GROningen MAchine for Chemical Simulation
95940
    1G5    HO5'    1   7.136   4.518   4.522
    1G5     O5'    2   7.080   4.470   4.461
    1G5     C5'    3   7.073   4.538   4.332
    1G5     H5'    4   7.150   4.615   4.329
    1G5    H5''    5   6.974   4.583   4.319
    1G5     C4'    6   7.091   4.440   4.211
    1G5     H4'    7   7.081   4.503   4.123
    1G5     O4'    8   7.215   4.370   4.198
    1G5     C1'    9   7.189   4.232   4.181
    1G5     H1'   10   7.260   4.198   4.105
    1G5      N9   11   7.220   4.146   4.304
    1G5      C8   12   7.260   4.180   4.428
    1G5      H8   13   7.275   4.281   4.463
    1G5      N7   14   7.285   4.081   4.510
    1G5      C5   15   7.267   3.970   4.433
    1G5      C6   16   7.284   3.833   4.458
    1G5      O6   17   7.321   3.776   4.564
    1G5      N1   18   7.244   3.754   4.351
    1G5      H1   19   7.243   3.655   4.373
    1G5      C2   20   7.203   3.799   4.233
    1G5      N2   21   7.168   3.712   4.146
    1G5     H21   22   7.167   3.616   4.177
    1G5     H22   23   7.141   3.749   4.056
    1G5      N3   24   7.193   3.930   4.203
    1G5      C4   25   7.219   4.009   4.306
    1G5     C3'   26   6.981   4.334   4.196
    1G5     H3'   27   6.951   4.299   4.295
    1G5     C2'   28   7.047   4.223   4.125
    1G5     H2'   29   6.999   4.129   4.151
    1G5     O2'   30   7.058   4.238   3.985
    1G5    HO2'   31   6.981   4.288   3.957
    1G5     O3'   32   6.877   4.381   4.107
    2G        P   33   6.732   4.327   4.135
    2G      OP1   34   6.643   4.361   4.032
    2G      OP2   35   6.692   4.371   4.265
    2G      O5'   36   6.737   4.162   4.138
    2G      C5'   37   6.726   4.081   4.021
    2G      H5'   38   6.806   4.103   3.950
    2G     H5''   39   6.636   4.109   3.967
    2G      C4'   40   6.728   3.927   4.052
    2G      H4'   41   6.716   3.873   3.959
    2G      O4'   42   6.856   3.880   4.102
    2G      C1'   43   6.837   3.780   4.207
    2G      H1'   44   6.885   3.686   4.178
    2G       N9   45   6.884   3.829   4.342
    2G       C8   46   6.889   3.956   4.393
    2G       H8   47   6.851   4.039   4.335
    2G       N7   48   6.931   3.967   4.517
    2G       C5   49   6.954   3.835   4.554
    2G       C6   50   7.014   3.780   4.673
    2G       O6   51   7.040   3.836   4.779
    2G       N1   52   7.036   3.648   4.663
    2G       H1   53   7.075   3.609   4.748
    2G       C2   54   7.001   3.569   4.556
    2G       N2   55   7.008   3.438   4.570
    2G      H21   56   7.033   3.396   4.659
    2G      H22   57   6.975   3.376   4.498
    2G       N3   58   6.942   3.610   4.449
    2G       C4   59   6.932   3.747   4.450
    2G      C3'   60   6.621   3.893   4.162
    2G      H3'   61   6.632   3.968   4.241
    2G      C2'   62   6.682   3.758   4.204
    2G      H2'   63   6.645   3.731   4.303
    2G      O2'   64   6.644   3.665   4.106
    2G     HO2'   65   6.602   3.707   4.031
    2G      O3'   66   6.493   3.896   4.104
    3G        P   67   6.366   3.904   4.199
    3G      OP1   68   6.245   3.869   4.120
    3G      OP2   69   6.366   4.030   4.270
    3G      O5'   70   6.383   3.788   4.306
    3G      C5'   71   6.363   3.647   4.264
    3G      H5'   72   6.421   3.629   4.174
    3G     H5''   73   6.260   3.631   4.232
    3G      C4'   74   6.395   3.546   4.369
    3G      H4'   75   6.380   3.447   4.326
    3G      O4'   76   6.534   3.560   4.417
    3G      C1'   77   6.523   3.537   4.553
    3G      H1'   78   6.594   3.466   4.595
    3G       N9   79   6.560   3.661   4.632
    3G       C8   80   6.517   3.786   4.616
    3G       H8   81   6.456   3.802   4.528
    3G       N7   82   6.585   3.878   4.679
    3G       C5   83   6.658   3.805   4.767
    3G       C6   84   6.746   3.844   4.873
    3G       O6   85   6.762   3.960   4.909
    3G       N1   86   6.814   3.733   4.930
    3G       H1   87   6.883   3.767   4.997
    3G       C2   88   6.786   3.604   4.896
    3G       N2   89   6.860   3.514   4.963
    3G      H21   90   6.929   3.550   5.026
    3G      H22   91   6.828   3.418   4.960
    3G       N3   92   6.697   3.566   4.806
    3G       C4   93   6.642   3.670   4.739
    3G      C3'   94   6.303   3.562   4.487
    3G      H3'   95   6.303   3.667   4.515
    3G      C2'   96   6.391   3.484   4.590
    3G      H2'   97   6.371   3.517   4.692
    3G      O2'   98   6.383   3.336   4.575
    3G     HO2'   99   6.290   3.312   4.585
    3G      O3'  100   6.175   3.500   4.461
    4U        P  101   6.051   3.531   4.553
    4U      OP1  102   5.946   3.442   4.498
    4U      OP2  103   6.031   3.678   4.535
    4U      O5'  104   6.090   3.509   4.703
    4U      C5'  105   6.095   3.378   4.762
    4U      H5'  106   6.159   3.310   4.705
    4U     H5''  107   5.996   3.332   4.764
    4U      C4'  108   6.146   3.374   4.907
    4U      H4'  109   6.147   3.272   4.948
    4U      O4'  110   6.274   3.430   4.915
    4U      C1'  111   6.290   3.505   5.036
    4U      H1'  112   6.365   3.457   5.098
    4U       N1  113   6.344   3.641   5.004
    4U       C6  114   6.283   3.723   4.912
    4U       H6  115   6.199   3.683   4.857
    4U       C5  116   6.328   3.845   4.888
    4U       H5  117   6.276   3.911   4.820
    4U       C4  118   6.429   3.910   4.973
    4U       O4  119   6.462   4.029   4.973
    4U       N3  120   6.483   3.820   5.063
    4U       H3  121   6.566   3.843   5.114
    4U       C2  122   6.450   3.691   5.079
    4U       O2  123   6.507   3.631   5.170
    4U      C3'  124   6.057   3.455   5.000
    4U      H3'  125   6.024   3.539   4.939
    4U      C2'  126   6.152   3.513   5.104
    4U      H2'  127   6.132   3.619   5.120
    4U      O2'  128   6.162   3.439   5.232
    4U     HO2'  129   6.079   3.445   5.279
    4U      O3'  130   5.949   3.382   5.050
    5U        P  131   5.832   3.452   5.124
    5U      OP1  132   5.712   3.360   5.103
    5U      OP2  133   5.815   3.596   5.089
    5U      O5'  134   5.874   3.444   5.279
    5U      C5'  135   5.874   3.323   5.345
    5U      H5'  136   5.936   3.247   5.299
    5U     H5''  137   5.771   3.285   5.345
    5U      C4'  138   5.942   3.329   5.482
    5U      H4'  139   5.931   3.229   5.524
    5U      O4'  140   6.077   3.361   5.485
    5U      C1'  141   6.100   3.399   5.626
    5U      H1'  142   6.128   3.311   5.684
    5U       N1  143   6.211   3.493   5.642
    5U       C6  144   6.276   3.549   5.532
    5U       H6  145   6.238   3.542   5.431
    5U       C5  146   6.381   3.639   5.545
    5U       H5  147   6.414   3.698   5.460
    5U       C4  148   6.433   3.680   5.676
    5U       O4  149   6.524   3.762   5.705
    5U       N3  150   6.365   3.620   5.778
    5U       H3  151   6.384   3.657   5.870
    5U       C2  152   6.254   3.529   5.765
    5U       O2  153   6.198   3.480   5.863
    5U      C3'  154   5.875   3.441   5.562
    5U      H3'  155   5.891   3.538   5.516
    5U      C2'  156   5.969   3.441   5.685
    5U      H2'  157   5.968   3.541   5.729
    5U      O2'  158   5.928   3.332   5.778
    5U     HO2'  159   5.841   3.347   5.815
    5U      O3'  160   5.738   3.421   5.599
    6A        P  161   5.635   3.533   5.601
    6A      OP1  162   5.521   3.466   5.676
    6A      OP2  163   5.623   3.587   5.465
    6A      O5'  164   5.698   3.646   5.699
    6A      C5'  165   5.702   3.634   5.840
    6A      H5'  166   5.739   3.537   5.874
    6A     H5''  167   5.603   3.647   5.884
    6A      C4'  168   5.790   3.737   5.911
    6A      H4'  169   5.762   3.723   6.015
    6A      O4'  170   5.924   3.717   5.901
    6A      C1'  171   5.999   3.841   5.910
    6A      H1'  172   6.067   3.842   5.995
    6A       N9  173   6.061   3.864   5.779
    6A       C8  174   6.004   3.835   5.665
    6A       H8  175   5.908   3.785   5.657
    6A       N7  176   6.072   3.872   5.558
    6A       C5  177   6.187   3.938   5.614
    6A       C6  178   6.296   4.011   5.565
    6A       N6  179   6.323   4.020   5.435
    6A      H61  180   6.409   4.059   5.398
    6A      H62  181   6.246   3.993   5.375
    6A       N1  182   6.383   4.081   5.643
    6A       C2  183   6.362   4.066   5.771
    6A       H2  184   6.412   4.134   5.838
    6A       N3  185   6.264   3.992   5.833
    6A       C4  186   6.178   3.929   5.750
    6A      C3'  187   5.756   3.889   5.887
    6A      H3'  188   5.751   3.916   5.781
    6A      C2'  189   5.889   3.947   5.942
    6A      H2'  190   5.909   4.046   5.901
    6A      O2'  191   5.879   3.954   6.082
    6A     HO2'  192   5.786   3.953   6.105
    6A      O3'  193   5.649   3.926   5.974
    7G        P  194   5.527   4.010   5.920
    7G      OP1  195   5.426   4.008   6.026
    7G      OP2  196   5.501   3.970   5.779
    7G      O5'  197   5.604   4.148   5.904
    7G      C5'  198   5.641   4.233   6.008
    7G      H5'  199   5.672   4.179   6.097
    7G     H5''  200   5.546   4.278   6.037
    7G      C4'  201   5.740   4.339   5.972
    7G      H4'  202   5.745   4.401   6.062
    7G      O4'  203   5.865   4.278   5.936
    7G      C1'  204   5.922   4.365   5.847
    7G      H1'  205   6.013   4.400   5.896
    7G       N9  206   5.937   4.303   5.715
    7G       C8  207   5.861   4.205   5.664
    7G       H8  208   5.771   4.168   5.711
    7G       N7  209   5.898   4.164   5.548
    7G       C5  210   6.007   4.248   5.516
    7G       C6  211   6.084   4.263   5.395
    7G       O6  212   6.080   4.198   5.288
    7G       N1  213   6.187   4.351   5.404
    7G       H1  214   6.252   4.355   5.326
    7G       C2  215   6.199   4.433   5.506
    7G       N2  216   6.294   4.515   5.510
    7G      H21  217   6.370   4.493   5.447
    7G      H22  218   6.326   4.544   5.601
    7G       N3  219   6.124   4.433   5.616
    7G       C4  220   6.030   4.333   5.622
    7G      C3'  221   5.693   4.418   5.850
    7G      H3'  222   5.678   4.353   5.763
    7G      C2'  223   5.832   4.482   5.819
    7G      H2'  224   5.837   4.515   5.715
    7G      O2'  225   5.882   4.583   5.900
    7G     HO2'  226   5.821   4.657   5.892
    7G      O3'  227   5.580   4.501   5.862
    8G        P  228   5.500   4.551   5.737
    8G      OP1  229   5.407   4.657   5.778
    8G      OP2  230   5.444   4.421   5.674
    8G      O5'  231   5.613   4.610   5.640
    8G      C5'  232   5.673   4.737   5.680
    8G      H5'  233   5.728   4.742   5.774
    8G     H5''  234   5.592   4.810   5.677
    8G      C4'  235   5.769   4.786   5.572
    8G      H4'  236   5.816   4.874   5.614
    8G      O4'  237   5.862   4.684   5.538
    8G      C1'  238   5.874   4.682   5.393
    8G      H1'  239   5.981   4.683   5.370
    8G       N9  240   5.831   4.543   5.346
    8G       C8  241   5.759   4.442   5.411
    8G       H8  242   5.714   4.459   5.508
    8G       N7  243   5.734   4.332   5.346
    8G       C5  244   5.801   4.350   5.229
    8G       C6  245   5.826   4.260   5.126
    8G       O6  246   5.787   4.147   5.110
    8G       N1  247   5.897   4.316   5.024
    8G       H1  248   5.913   4.261   4.940
    8G       C2  249   5.927   4.444   5.020
    8G       N2  250   5.986   4.477   4.909
    8G      H21  251   6.022   4.411   4.841
    8G      H22  252   6.011   4.575   4.907
    8G       N3  253   5.916   4.534   5.119
    8G       C4  254   5.854   4.481   5.223
    8G      C3'  255   5.694   4.818   5.439
    8G      H3'  256   5.608   4.752   5.432
    8G      C2'  257   5.798   4.796   5.330
    8G      H2'  258   5.760   4.765   5.233
    8G      O2'  259   5.883   4.908   5.326
    8G     HO2'  260   5.833   4.988   5.308
    8G      O3'  261   5.657   4.952   5.431
    9G        P  262   5.510   4.995   5.370
    9G      OP1  263   5.502   5.145   5.379
    9G      OP2  264   5.407   4.915   5.434
    9G      O5'  265   5.541   4.950   5.221
    9G      C5'  266   5.627   5.033   5.138
    9G      H5'  267   5.724   5.043   5.187
    9G     H5''  268   5.575   5.127   5.121
    9G      C4'  269   5.653   4.959   5.001
    9G      H4'  270   5.719   5.022   4.941
    9G      O4'  271   5.726   4.845   5.020
    9G      C1'  272   5.666   4.742   4.946
    9G      H1'  273   5.734   4.682   4.886
    9G       N9  274   5.587   4.635   5.025
    9G       C8  275   5.529   4.645   5.151
    9G       H8  276   5.527   4.732   5.215
    9G       N7  277   5.483   4.528   5.195
    9G       C5  278   5.514   4.437   5.092
    9G       C6  279   5.484   4.299   5.081
    9G       O6  280   5.414   4.233   5.157
    9G       N1  281   5.525   4.250   4.959
    9G       H1  282   5.504   4.155   4.932
    9G       C2  283   5.590   4.324   4.867
    9G       N2  284   5.617   4.258   4.755
    9G      H21  285   5.596   4.160   4.749
    9G      H22  286   5.671   4.304   4.682
    9G       N3  287   5.605   4.454   4.870
    9G       C4  288   5.572   4.504   4.988
    9G      C3'  289   5.528   4.936   4.920
    9G      H3'  290   5.445   4.913   4.986
    9G      C2'  291   5.571   4.809   4.842
    9G      H2'  292   5.487   4.745   4.816
    9G      O2'  293   5.652   4.826   4.726
    9G     HO2'  294   5.651   4.915   4.691
    9G      O3'  295   5.502   5.039   4.833
   10U        P  296   5.354   5.060   4.775
   10U      OP1  297   5.363   5.140   4.652
   10U      OP2  298   5.273   5.100   4.888
   10U      O5'  299   5.298   4.914   4.738
   10U      C5'  300   5.307   4.863   4.606
   10U      H5'  301   5.410   4.835   4.587
   10U     H5''  302   5.280   4.936   4.530
   10U      C4'  303   5.214   4.740   4.587
   10U      H4'  304   5.218   4.710   4.482
   10U      O4'  305   5.256   4.638   4.678
   10U      C1'  306   5.151   4.556   4.711
   10U      H1'  307   5.166   4.454   4.675
   10U       N1  308   5.145   4.544   4.864
   10U       C6  309   5.173   4.654   4.949
   10U       H6  310   5.201   4.747   4.902
   10U       C5  311   5.164   4.643   5.082
   10U       H5  312   5.179   4.724   5.151
   10U       C4  313   5.129   4.518   5.143
   10U       O4  314   5.119   4.500   5.263
   10U       N3  315   5.103   4.412   5.057
   10U       H3  316   5.095   4.322   5.104
   10U       C2  317   5.124   4.419   4.922
   10U       O2  318   5.109   4.314   4.858
   10U      C3'  319   5.069   4.770   4.633
   10U      H3'  320   5.073   4.826   4.727
   10U      C2'  321   5.024   4.627   4.655
   10U      H2'  322   4.944   4.623   4.728
   10U      O2'  323   4.986   4.565   4.538
   10U     HO2'  324   4.924   4.625   4.496
   10U      O3'  325   4.991   4.824   4.525
   11U        P  326   4.854   4.896   4.546
   11U      OP1  327   4.832   4.982   4.426
   11U      OP2  328   4.860   4.954   4.678
   11U      O5'  329   4.749   4.771   4.555
   11U      C5'  330   4.672   4.744   4.437
   11U      H5'  331   4.739   4.714   4.356
   11U     H5''  332   4.630   4.842   4.411
   11U      C4'  333   4.551   4.648   4.452
   11U      H4'  334   4.488   4.657   4.363
   11U      O4'  335   4.591   4.513   4.473
   11U      C1'  336   4.496   4.432   4.553
   11U      H1'  337   4.452   4.347   4.500
   11U       N1  338   4.558   4.387   4.681
   11U       C6  339   4.676   4.442   4.727
   11U       H6  340   4.732   4.521   4.677
   11U       C5  341   4.718   4.407   4.851
   11U       H5  342   4.807   4.459   4.885
   11U       C4  343   4.653   4.309   4.931
   11U       O4  344   4.687   4.270   5.039
   11U       N3  345   4.544   4.250   4.870
   11U       H3  346   4.502   4.176   4.926
   11U       C2  347   4.495   4.279   4.744
   11U       O2  348   4.389   4.234   4.708
   11U      C3'  349   4.462   4.667   4.566
   11U      H3'  350   4.525   4.677   4.655
   11U      C2'  351   4.394   4.538   4.578
   11U      H2'  352   4.367   4.533   4.683
   11U      O2'  353   4.278   4.517   4.493
   11U     HO2'  354   4.235   4.603   4.502
   11U      O3'  355   4.373   4.778   4.547
   12A        P  356   4.333   4.864   4.678
   12A      OP1  357   4.202   4.910   4.635
   12A      OP2  358   4.443   4.957   4.690
   12A      O5'  359   4.318   4.757   4.797
   12A      C5'  360   4.193   4.699   4.837
   12A      H5'  361   4.164   4.642   4.749
   12A     H5''  362   4.119   4.778   4.852
   12A      C4'  363   4.194   4.611   4.961
   12A      H4'  364   4.099   4.558   4.959
   12A      O4'  365   4.307   4.532   4.967
   12A      C1'  366   4.382   4.551   5.088
   12A      H1'  367   4.420   4.455   5.123
   12A       N9  368   4.502   4.640   5.067
   12A       C8  369   4.564   4.668   4.946
   12A       H8  370   4.512   4.654   4.853
   12A       N7  371   4.678   4.725   4.959
   12A       C5  372   4.705   4.722   5.099
   12A       C6  373   4.802   4.768   5.193
   12A       N6  374   4.917   4.833   5.164
   12A      H61  375   4.976   4.867   5.239
   12A      H62  376   4.929   4.848   5.065
   12A       N1  377   4.802   4.747   5.324
   12A       C2  378   4.693   4.695   5.369
   12A       H2  379   4.694   4.682   5.477
   12A       N3  380   4.592   4.642   5.299
   12A       C4  381   4.601   4.667   5.164
   12A      C3'  382   4.207   4.704   5.083
   12A      H3'  383   4.270   4.786   5.047
   12A      C2'  384   4.286   4.621   5.186
   12A      H2'  385   4.334   4.690   5.255
   12A      O2'  386   4.202   4.525   5.243
   12A     HO2'  387   4.188   4.466   5.169
   12A      O3'  388   4.079   4.744   5.149
   13G        P  389   4.063   4.894   5.194
   13G      OP1  390   3.932   4.894   5.254
   13G      OP2  391   4.098   4.975   5.071
   13G      O5'  392   4.171   4.920   5.303
   13G      C5'  393   4.160   4.869   5.436
   13G      H5'  394   4.156   4.760   5.428
   13G     H5''  395   4.063   4.899   5.476
   13G      C4'  396   4.270   4.918   5.525
   13G      H4'  397   4.258   4.877   5.625
   13G      O4'  398   4.393   4.868   5.466
   13G      C1'  399   4.484   4.982   5.461
   13G      H1'  400   4.570   4.946   5.517
   13G       N9  401   4.528   5.021   5.325
   13G       C8  402   4.464   4.993   5.202
   13G       H8  403   4.365   4.953   5.184
   13G       N7  404   4.531   5.029   5.098
   13G       C5  405   4.653   5.078   5.151
   13G       C6  406   4.769   5.142   5.091
   13G       O6  407   4.805   5.151   4.975
   13G       N1  408   4.856   5.188   5.177
   13G       H1  409   4.948   5.195   5.136
   13G       C2  410   4.844   5.185   5.312
   13G       N2  411   4.947   5.227   5.376
   13G      H21  412   5.022   5.278   5.332
   13G      H22  413   4.925   5.233   5.475
   13G       N3  414   4.742   5.125   5.373
   13G       C4  415   4.648   5.078   5.289
   13G      C3'  416   4.279   5.073   5.522
   13G      H3'  417   4.254   5.105   5.421
   13G      C2'  418   4.427   5.102   5.540
   13G      H2'  419   4.472   5.186   5.486
   13G      O2'  420   4.464   5.079   5.682
   13G     HO2'  421   4.399   5.127   5.734
   13G      O3'  422   4.211   5.148   5.622
   14G        P  423   4.134   5.288   5.584
   14G      OP1  424   4.080   5.338   5.709
   14G      OP2  425   4.041   5.256   5.471
   14G      O5'  426   4.245   5.388   5.524
   14G      C5'  427   4.325   5.459   5.609
   14G      H5'  428   4.374   5.404   5.690
   14G     H5''  429   4.266   5.543   5.647
   14G      C4'  430   4.446   5.515   5.533
   14G      H4'  431   4.519   5.558   5.600
   14G      O4'  432   4.514   5.410   5.460
   14G      C1'  433   4.568   5.476   5.349
   14G      H1'  434   4.675   5.460   5.342
   14G       N9  435   4.506   5.428   5.226
   14G       C8  436   4.403   5.344   5.202
   14G       H8  437   4.335   5.331   5.285
   14G       N7  438   4.385   5.303   5.083
   14G       C5  439   4.503   5.351   5.018
   14G       C6  440   4.556   5.341   4.886
   14G       O6  441   4.512   5.264   4.797
   14G       N1  442   4.663   5.428   4.860
   14G       H1  443   4.694   5.430   4.763
   14G       C2  444   4.726   5.495   4.956
   14G       N2  445   4.825   5.575   4.928
   14G      H21  446   4.873   5.565   4.840
   14G      H22  447   4.852   5.644   4.997
   14G       N3  448   4.682   5.509   5.079
   14G       C4  449   4.566   5.437   5.102
   14G      C3'  450   4.400   5.624   5.429
   14G      H3'  451   4.326   5.589   5.356
   14G      C2'  452   4.539   5.628   5.367
   14G      H2'  453   4.542   5.682   5.272
   14G      O2'  454   4.645   5.681   5.449
   14G     HO2'  455   4.730   5.661   5.410
   14G      O3'  456   4.363   5.744   5.496
   15G        P  457   4.271   5.847   5.418
   15G      OP1  458   4.242   5.964   5.507
   15G      OP2  459   4.154   5.779   5.357
   15G      O5'  460   4.347   5.902   5.291
   15G      C5'  461   4.448   6.004   5.301
   15G      H5'  462   4.529   5.967   5.363
   15G     H5''  463   4.411   6.102   5.333
   15G      C4'  464   4.514   6.028   5.162
   15G      H4'  465   4.586   6.109   5.168
   15G      O4'  466   4.579   5.907   5.133
   15G      C1'  467   4.565   5.889   4.996
   15G      H1'  468   4.666   5.879   4.954
   15G       N9  469   4.488   5.763   4.964
   15G       C8  470   4.399   5.699   5.046
   15G       H8  471   4.381   5.730   5.148
   15G       N7  472   4.321   5.616   4.985
   15G       C5  473   4.370   5.618   4.859
   15G       C6  474   4.354   5.535   4.746
   15G       O6  475   4.273   5.443   4.731
   15G       N1  476   4.427   5.570   4.631
   15G       H1  477   4.416   5.510   4.550
   15G       C2  478   4.510   5.677   4.624
   15G       N2  479   4.569   5.696   4.512
   15G      H21  480   4.553   5.638   4.431
   15G      H22  481   4.648   5.758   4.527
   15G       N3  482   4.548   5.742   4.730
   15G       C4  483   4.475   5.711   4.840
   15G      C3'  484   4.425   6.070   5.052
   15G      H3'  485   4.334   6.012   5.065
   15G      C2'  486   4.498   6.011   4.932
   15G      H2'  487   4.429   5.980   4.854
   15G      O2'  488   4.601   6.105   4.878
   15G     HO2'  489   4.553   6.188   4.870
   15G      O3'  490   4.404   6.211   5.048
   16U        P  491   4.262   6.275   4.986
   16U      OP1  492   4.290   6.417   4.969
   16U      OP2  493   4.155   6.230   5.075
   16U      O5'  494   4.234   6.212   4.847
   16U      C5'  495   4.277   6.276   4.725
   16U      H5'  496   4.386   6.277   4.726
   16U     H5''  497   4.251   6.382   4.725
   16U      C4'  498   4.225   6.197   4.602
   16U      H4'  499   4.259   6.240   4.507
   16U      O4'  500   4.272   6.065   4.595
   16U      C1'  501   4.175   5.977   4.535
   16U      H1'  502   4.219   5.924   4.451
   16U       N1  503   4.124   5.874   4.635
   16U       C6  504   4.113   5.886   4.775
   16U       H6  505   4.157   5.972   4.825
   16U       C5  506   4.064   5.786   4.846
   16U       H5  507   4.067   5.794   4.954
   16U       C4  508   4.004   5.665   4.786
   16U       O4  509   3.967   5.569   4.850
   16U       N3  510   4.020   5.657   4.651
   16U       H3  511   3.986   5.571   4.609
   16U       C2  512   4.080   5.756   4.575
   16U       O2  513   4.098   5.725   4.455
   16U      C3'  514   4.072   6.186   4.581
   16U      H3'  515   4.019   6.175   4.676
   16U      C2'  516   4.056   6.065   4.489
   16U      H2'  517   3.959   6.018   4.506
   16U      O2'  518   4.067   6.114   4.353
   16U     HO2'  519   3.990   6.166   4.327
   16U      O3'  520   4.019   6.310   4.527
   17U        P  521   3.867   6.322   4.488
   17U      OP1  522   3.823   6.463   4.517
   17U      OP2  523   3.793   6.214   4.555
   17U      O5'  524   3.864   6.297   4.329
   17U      C5'  525   3.863   6.408   4.234
   17U      H5'  526   3.963   6.443   4.210
   17U     H5''  527   3.815   6.497   4.275
   17U      C4'  528   3.794   6.367   4.105
   17U      H4'  529   3.781   6.466   4.060
   17U      O4'  530   3.876   6.286   4.024
   17U      C1'  531   3.790   6.196   3.957
   17U      H1'  532   3.801   6.194   3.849
   17U       N1  533   3.794   6.056   4.007
   17U       C6  534   3.842   6.023   4.128
   17U       H6  535   3.868   6.102   4.197
   17U       C5  536   3.863   5.895   4.161
   17U       H5  537   3.893   5.878   4.263
   17U       C4  538   3.840   5.783   4.072
   17U       O4  539   3.847   5.663   4.089
   17U       N3  540   3.801   5.826   3.944
   17U       H3  541   3.800   5.755   3.872
   17U       C2  542   3.774   5.957   3.908
   17U       O2  543   3.724   5.974   3.796
   17U      C3'  544   3.659   6.303   4.123
   17U      H3'  545   3.664   6.215   4.188
   17U      C2'  546   3.642   6.240   3.988
   17U      H2'  547   3.576   6.154   3.989
   17U      O2'  548   3.601   6.340   3.895
   17U     HO2'  549   3.601   6.421   3.946
   17U      O3'  550   3.548   6.378   4.161
   18A        P  551   3.442   6.332   4.269
   18A      OP1  552   3.320   6.399   4.222
   18A      OP2  553   3.510   6.362   4.401
   18A      O5'  554   3.431   6.171   4.249
   18A      C5'  555   3.350   6.114   4.148
   18A      H5'  556   3.385   6.144   4.049
   18A     H5''  557   3.253   6.162   4.156
   18A      C4'  558   3.318   5.965   4.163
   18A      H4'  559   3.268   5.937   4.071
   18A      O4'  560   3.436   5.889   4.172
   18A      C1'  561   3.415   5.774   4.254
   18A      H1'  562   3.440   5.684   4.197
   18A       N9  563   3.509   5.807   4.364
   18A       C8  564   3.605   5.910   4.381
   18A       H8  565   3.618   5.989   4.308
   18A       N7  566   3.649   5.911   4.506
   18A       C5  567   3.593   5.796   4.564
   18A       C6  568   3.619   5.731   4.689
   18A       N6  569   3.701   5.774   4.781
   18A      H61  570   3.702   5.732   4.873
   18A      H62  571   3.733   5.869   4.770
   18A       N1  572   3.542   5.621   4.713
   18A       C2  573   3.455   5.576   4.623
   18A       H2  574   3.403   5.490   4.663
   18A       N3  575   3.429   5.625   4.507
   18A       C4  576   3.508   5.736   4.480
   18A      C3'  577   3.222   5.933   4.279
   18A      H3'  578   3.249   5.981   4.373
   18A      C2'  579   3.263   5.778   4.281
   18A      H2'  580   3.233   5.732   4.375
   18A      O2'  581   3.197   5.712   4.173
   18A     HO2'  582   3.130   5.767   4.131
   18A      O3'  583   3.089   5.936   4.249
   19G        P  584   2.982   6.000   4.340
   19G      OP1  585   2.854   5.989   4.270
   19G      OP2  586   3.029   6.137   4.375
   19G      O5'  587   2.976   5.914   4.477
   19G      C5'  588   2.913   5.785   4.483
   19G      H5'  589   2.929   5.727   4.393
   19G     H5''  590   2.805   5.802   4.488
   19G      C4'  591   2.952   5.705   4.619
   19G      H4'  592   2.905   5.606   4.624
   19G      O4'  593   3.084   5.673   4.625
   19G      C1'  594   3.136   5.696   4.764
   19G      H1'  595   3.187   5.609   4.806
   19G       N9  596   3.229   5.807   4.776
   19G       C8  597   3.280   5.878   4.674
   19G       H8  598   3.236   5.858   4.577
   19G       N7  599   3.373   5.963   4.698
   19G       C5  600   3.393   5.946   4.833
   19G       C6  601   3.480   6.012   4.928
   19G       O6  602   3.557   6.099   4.899
   19G       N1  603   3.462   5.976   5.062
   19G       H1  604   3.505   6.034   5.132
   19G       C2  605   3.387   5.866   5.094
   19G       N2  606   3.380   5.836   5.228
   19G      H21  607   3.444   5.882   5.291
   19G      H22  608   3.314   5.767   5.262
   19G       N3  609   3.305   5.800   5.014
   19G       C4  610   3.312   5.846   4.882
   19G      C3'  611   2.920   5.782   4.744
   19G      H3'  612   2.948   5.887   4.741
   19G      C2'  613   3.015   5.729   4.845
   19G      H2'  614   3.041   5.806   4.917
   19G      O2'  615   2.956   5.618   4.901
   19G     HO2'  616   2.865   5.646   4.914
   19G      O3'  617   2.786   5.770   4.786
   20G        P  618   2.701   5.904   4.813
   20G      OP1  619   2.564   5.877   4.850
   20G      OP2  620   2.729   6.002   4.708
   20G      O5'  621   2.788   5.950   4.932
   20G      C5'  622   2.782   5.889   5.058
   20G      H5'  623   2.823   5.789   5.051
   20G     H5''  624   2.679   5.886   5.093
   20G      C4'  625   2.872   5.977   5.150
   20G      H4'  626   2.873   5.936   5.251
   20G      O4'  627   3.009   5.967   5.100
   20G      C1'  628   3.079   6.089   5.133
   20G      H1'  629   3.164   6.060   5.195
   20G       N9  630   3.121   6.155   5.005
   20G       C8  631   3.067   6.153   4.876
   20G       H8  632   2.970   6.108   4.857
   20G       N7  633   3.137   6.222   4.785
   20G       C5  634   3.243   6.264   4.858
   20G       C6  635   3.362   6.338   4.820
   20G       O6  636   3.400   6.370   4.708
   20G       N1  637   3.447   6.371   4.915
   20G       H1  638   3.534   6.414   4.888
   20G       C2  639   3.426   6.348   5.047
   20G       N2  640   3.525   6.397   5.128
   20G      H21  641   3.617   6.419   5.093
   20G      H22  642   3.514   6.378   5.226
   20G       N3  643   3.323   6.280   5.094
   20G       C4  644   3.231   6.245   4.995
   20G      C3'  645   2.834   6.119   5.161
   20G      H3'  646   2.806   6.161   5.065
   20G      C2'  647   2.971   6.169   5.212
   20G      H2'  648   2.986   6.276   5.198
   20G      O2'  649   2.993   6.140   5.349
   20G     HO2'  650   2.914   6.159   5.401
   20G      O3'  651   2.732   6.142   5.260
   21G3       P  652   2.630   6.254   5.232
   21G3     OP1  653   2.516   6.238   5.332
   21G3     OP2  654   2.609   6.257   5.091
   21G3     O5'  655   2.707   6.387   5.270
   21G3     C5'  656   2.728   6.434   5.399
   21G3     H5'  657   2.775   6.357   5.461
   21G3    H5''  658   2.627   6.451   5.435
   21G3     C4'  659   2.804   6.570   5.406
   21G3     H4'  660   2.802   6.595   5.512
   21G3     O4'  661   2.936   6.572   5.360
   21G3     C1'  662   2.946   6.680   5.261
   21G3     H1'  663   3.039   6.733   5.279
   21G3      N9  664   2.943   6.637   5.119
   21G3      C8  665   2.848   6.579   5.044
   21G3      H8  666   2.749   6.557   5.082
   21G3      N7  667   2.882   6.533   4.924
   21G3      C5  668   3.018   6.568   4.918
   21G3      C6  669   3.111   6.575   4.802
   21G3      O6  670   3.095   6.542   4.678
   21G3      N1  671   3.224   6.641   4.835
   21G3      H1  672   3.295   6.646   4.764
   21G3      C2  673   3.257   6.670   4.964
   21G3      N2  674   3.386   6.685   4.990
   21G3     H21  675   3.453   6.687   4.914
   21G3     H22  676   3.415   6.687   5.087
   21G3      N3  677   3.176   6.666   5.068
   21G3      C4  678   3.051   6.625   5.037
   21G3     C3'  679   2.729   6.681   5.335
   21G3     H3'  680   2.676   6.643   5.249
   21G3     C2'  681   2.838   6.781   5.293
   21G3     H2'  682   2.813   6.835   5.202
   21G3     O2'  683   2.883   6.867   5.402
   21G3    HO2'  684   2.915   6.953   5.376
   21G3     O3'  685   2.637   6.747   5.415
   21G3    HO3'  686   2.693   6.816   5.452
   22Cl-    Cl-  687   8.289   0.911   3.273
   23Cl-    Cl-  688   9.298   1.327   1.370
   24Cl-    Cl-  689   0.327   6.025   0.435
   25Cl-    Cl-  690   0.635   3.283   0.597
   26Cl-    Cl-  691   2.499   8.012   0.407
   27Cl-    Cl-  692   2.226   7.859   1.784
   28Cl-    Cl-  693   6.102   6.713   0.242
   29Cl-    Cl-  694   0.721   9.368   3.021
   30Cl-    Cl-  695   8.381   0.415   0.585
   31Cl-    Cl-  696   9.202   3.979   7.314
   32Cl-    Cl-  697   4.402   6.607   7.504
   33Cl-    Cl-  698   6.726   5.720   7.430
   34Cl-    Cl-  699   5.660   7.890   9.679
   35Cl-    Cl-  700   0.701   8.078   1.892
   36Cl-    Cl-  701   4.866   8.500   4.691
   37Cl-    Cl-  702   5.262   1.237   3.603
   38Cl-    Cl-  703   3.568   7.128   2.459
   39Cl-    Cl-  704   0.275   1.133   5.758
   40Cl-    Cl-  705   6.903   7.954   0.831
   41Cl-    Cl-  706   8.344   1.879   9.061
   42Cl-    Cl-  707   2.226   5.158   7.451
   43Cl-    Cl-  708   6.042   5.925   3.723
   44Cl-    Cl-  709   3.479   0.977   6.288
   45Cl-    Cl-  710   6.827   6.511   9.222
   46Cl-    Cl-  711   2.566   1.430   0.224
   47Cl-    Cl-  712   9.223   3.082   4.101
   48Cl-    Cl-  713   3.391   4.400   0.072
   49Cl-    Cl-  714   2.640   5.851   0.625
   50Cl-    Cl-  715   5.381   0.876   1.262
   51Cl-    Cl-  716   1.779   9.276   0.797
   52Cl-    Cl-  717   5.976   2.124   5.982
   53Cl-    Cl-  718   5.513   5.795   0.801
   54Cl-    Cl-  719   8.070   6.820   3.027
   55Cl-    Cl-  720   4.437   7.023   8.645
   56Cl-    Cl-  721   7.070   6.531   5.620
   57Cl-    Cl-  722   8.923   6.955   9.035
   58Cl-    Cl-  723   9.351   9.487   9.049
   59Cl-    Cl-  724   2.915   7.393   3.966
   60Cl-    Cl-  725   4.900   3.379   0.122
   61Cl-    Cl-  726   3.003   8.155   9.002
   62Cl-    Cl-  727   0.091   8.237   9.394
   63Cl-    Cl-  728   6.576   5.701   0.274
   64Cl-    Cl-  729   5.922   8.881   1.191
   65Cl-    Cl-  730   1.170   0.969   4.157
   66Cl-    Cl-  731   1.586   4.435   7.092
   67Cl-    Cl-  732   8.711   1.043   5.950
   68Cl-    Cl-  733   4.304   0.441   2.647
   69Cl-    Cl-  734   5.290   9.299   1.920
   70Cl-    Cl-  735   5.260   8.358   6.334
   71Cl-    Cl-  736   5.403   4.091   6.411
   72Cl-    Cl-  737   6.786   0.655   3.617
   73Cl-    Cl-  738   3.350   4.355   2.845
   74Cl-    Cl-  739   7.261   1.582   9.104
   75Cl-    Cl-  740   9.553   8.171   4.049
   76Cl-    Cl-  741   2.392   0.530   5.324
   77Cl-    Cl-  742   0.845   9.544   7.615
   78Cl-    Cl-  743   6.994   0.877   7.417
   79Cl-    Cl-  744   8.978   0.037   5.853
   80Cl-    Cl-  745   4.273   0.965   7.387
   81Cl-    Cl-  746   5.371   5.475   2.154
   82Cl-    Cl-  747   7.775   9.293   4.876
   83Cl-    Cl-  748   8.889   0.487   4.141
   84Cl-    Cl-  749   6.146   9.111   5.340
   85Cl-    Cl-  750   2.880   9.584   3.613
   86Cl-    Cl-  751   6.723   3.056   4.989
   87Cl-    Cl-  752   4.005   1.664   6.571
   88Cl-    Cl-  753   7.409   2.194   8.405
   89Cl-    Cl-  754   6.706   7.092   5.072
   90Cl-    Cl-  755   9.769   4.077   0.380
   91Cl-    Cl-  756   2.835   4.333   1.209
   92Cl-    Cl-  757   0.576   7.701   7.793
   93Cl-    Cl-  758   3.944   7.069   3.469
   94Cl-    Cl-  759   4.058   8.938   3.286
   95Cl-    Cl-  760   4.179   1.416   4.622
   96Cl-    Cl-  761   7.963   3.042   0.576
   97Cl-    Cl-  762   6.114   3.348   2.407
   98Cl-    Cl-  763   4.523   9.623   5.024
   99Cl-    Cl-  764   5.498   6.551   4.617
  100Cl-    Cl-  765   3.430   6.470   6.708
  101Cl-    Cl-  766   1.439   1.846   8.427
  102Cl-    Cl-  767   3.820   2.961   2.858
  103Cl-    Cl-  768   8.809   6.461   6.117
  104Cl-    Cl-  769   4.642   1.583   6.997
  105Cl-    Cl-  770   9.617   3.896   3.092
  106Cl-    Cl-  771   3.689   2.754   7.147
  107K+      K+  772   4.651   4.961   4.827
  108K+      K+  773   3.551   4.648   1.083
  109K+      K+  774   4.131   9.791   2.995
  110K+      K+  775   5.755   4.011   5.353
  111K+      K+  776   3.764   4.410   3.686
  112K+      K+  777   9.242   7.286   2.061
  113K+      K+  778   3.671   1.221   6.918
  114K+      K+  779   7.180   8.092   2.529
  115K+      K+  780   5.420   3.792   5.145
  116K+      K+  781   6.272   0.445   7.286
  117K+      K+  782   8.433   0.544   0.101
  118K+      K+  783   5.048   4.678   5.465
  119K+      K+  784   5.013   2.867   7.177
  120K+      K+  785   5.344   4.397   5.417
  121K+      K+  786   5.113   7.466   4.495
  122K+      K+  787   4.679   0.729   1.393
  123K+      K+  788   4.606   2.999   3.852
  124K+      K+  789   5.697   1.741   0.920
  125K+      K+  790   0.245   3.775   0.592
  126K+      K+  791   8.537   5.728   2.952
  127K+      K+  792   0.872   6.893   3.437
  128K+      K+  793   4.027   4.615   5.907
  129K+      K+  794   1.672   0.069   6.709
  130K+      K+  795   3.838   6.950   2.408
  131K+      K+  796   5.264   2.785   3.442
  132K+      K+  797   2.107   8.904   2.852
  133K+      K+  798   4.628   7.099   7.398
  134K+      K+  799   5.821   2.705   7.923
  135K+      K+  800   4.852   8.364   6.424
  136K+      K+  801   3.307   4.674   5.253
  137K+      K+  802   9.773   2.705   6.439
  138K+      K+  803   0.557   8.765   7.110
  139K+      K+  804   2.814   6.464   4.672
  140K+      K+  805   9.434   1.570   8.206
  141K+      K+  806   9.505   8.738   4.007
  142K+      K+  807   8.735   1.662   6.652
  143K+      K+  808   3.287   6.525   4.480
  144K+      K+  809   3.515   6.179   4.581
  145K+      K+  810   9.466   0.812   5.939
  146K+      K+  811   5.298   3.328   6.668
  147K+      K+  812   6.288   6.384   2.065
  148K+      K+  813   3.842   9.221   3.908
  149K+      K+  814   8.664   2.311   3.509
  150K+      K+  815   1.568   7.966   0.351
  151K+      K+  816   5.254   1.750   5.237
  152K+      K+  817   7.612   9.679   8.069
  153K+      K+  818   2.040   3.596   5.146
  154K+      K+  819   4.233   5.184   4.670
  155K+      K+  820   0.182   5.644   9.736
  156K+      K+  821   0.129   3.608   2.838
  157K+      K+  822   0.145   4.447   9.611
  158K+      K+  823   5.363   7.216   0.069
  159K+      K+  824   5.388   7.045   3.910
  160K+      K+  825   6.663   3.139   8.853
  161K+      K+  826   4.037   3.400   0.455
  162K+      K+  827   4.082   3.669   2.914
  163K+      K+  828   2.839   2.068   8.192
  164K+      K+  829   3.031   3.270   4.710
  165K+      K+  830   7.891   2.077   0.158
  166K+      K+  831   6.579   5.921   6.095
  167K+      K+  832   9.124   1.016   5.177
  168K+      K+  833   3.553   1.188   7.336
  169K+      K+  834   1.126   7.888   2.501
  170K+      K+  835   8.636   6.696   8.574
  171K+      K+  836   6.576   6.505   8.777
  172K+      K+  837   6.731   4.118   4.676
  173K+      K+  838   1.572   5.094   9.414
  174K+      K+  839   8.736   0.833   5.134
  175K+      K+  840   3.755   5.630   6.291
  176K+      K+  841   6.755   8.767   2.962
  177K+      K+  842   3.630   6.644   3.448
  178K+      K+  843   5.261   1.532   4.380
  179K+      K+  844   0.407   4.206   6.182
  180K+      K+  845   4.746   8.403   8.409
  181K+      K+  846   6.913   5.959   4.843
  182K+      K+  847   4.113   5.417   5.004
  183K+      K+  848   4.132   6.759   4.219
  184K+      K+  849   6.397   6.951   0.559
  185K+      K+  850   5.346   5.763   6.347
  186K+      K+  851   9.619   8.583   8.833
  187K+      K+  852   8.847   9.663   9.880
  188K+      K+  853   3.679   0.795   3.554
  189K+      K+  854   1.639   2.129   9.144
  190K+      K+  855   6.845   8.377   0.733
  191K+      K+  856   8.916   5.893   6.603
  192K+      K+  857   4.326   5.955   5.790
  193K+      K+  858   4.021   5.614   0.900
  194K+      K+  859   2.975   1.744   8.863
  195K+      K+  860   1.805   4.343   1.112
  196K+      K+  861   4.803   5.689   7.677
  197K+      K+  862   7.531   0.602   3.016
  198K+      K+  863   3.594   8.059   9.306
  199K+      K+  864   9.756   8.668   9.437
  200K+      K+  865   4.418   0.212   4.879
  201K+      K+  866   4.378   8.065   5.165
  202K+      K+  867   6.468   7.914   3.722
  203K+      K+  868   7.455   8.103   1.747
  204K+      K+  869   7.591   9.743   5.588
  205K+      K+  870   5.867   3.486   4.234
  206K+      K+  871   7.025   1.900   2.061
  207K+      K+  872   9.601   8.495   7.672
  208K+      K+  873   2.174   9.326   3.019
  209K+      K+  874   6.262   2.824   5.120
  210K+      K+  875   5.888   6.709   8.894
  211K+      K+  876   6.140   8.673   7.276
  212WAT      O  877   7.550   4.832   3.550
  212WAT     H1  878   7.648   4.808   3.555
  212WAT     H2  879   7.502   4.786   3.625
  213WAT      O  880   3.237   9.739   9.263
  213WAT     H1  881   3.140   9.735   9.238
  213WAT     H2  882   3.289   9.783   9.190
  214WAT      O  883   6.440   8.477   3.446
  214WAT     H1  884   6.492   8.408   3.396
  214WAT     H2  885   6.455   8.465   3.544
  215WAT      O  886   5.075   8.053   1.352
  215WAT     H1  887   5.153   8.076   1.294
  215WAT     H2  888   5.052   8.132   1.409
  216WAT      O  889   5.631   5.244   3.167
  216WAT     H1  890   5.565   5.265   3.238
  216WAT     H2  891   5.621   5.148   3.139
  217WAT      O  892   8.639   0.305   1.199
  217WAT     H1  893   8.565   0.292   1.133
  217WAT     H2  894   8.643   0.226   1.260
  218WAT      O  895   2.444   2.596   9.819
  218WAT     H1  896   2.356   2.629   9.785
  218WAT     H2  897   2.459   2.629   9.912
  219WAT      O  898   2.489   5.637   7.154
  219WAT     H1  899   2.491   5.736   7.140
  219WAT     H2  900   2.413   5.613   7.215
  220WAT      O  901   9.657   8.522   8.128
  220WAT     H1  902   9.756   8.529   8.142
  220WAT     H2  903   9.627   8.429   8.148
  221WAT      O  904   3.456   8.166   0.321
  221WAT     H1  905   3.512   8.107   0.263
  221WAT     H2  906   3.397   8.223   0.263
  222WAT      O  907   0.862   9.652   4.005
  222WAT     H1  908   0.793   9.588   3.971
  222WAT     H2  909   0.816   9.733   4.043
  223WAT      O  910   2.772   7.731   4.009
  223WAT     H1  911   2.783   7.760   3.914
  223WAT     H2  912   2.710   7.653   4.013
  224WAT      O  913   3.855   8.392   1.132
  224WAT     H1  914   3.951   8.370   1.151
  224WAT     H2  915   3.819   8.330   1.063
  225WAT      O  916   7.905   7.456   7.658
  225WAT     H1  917   7.926   7.429   7.752
  225WAT     H2  918   7.967   7.408   7.595
  226WAT      O  919   2.998   0.013   6.905
  226WAT     H1  920   3.004   0.088   6.839
  226WAT     H2  921   2.963  -0.069   6.860
  227WAT      O  922   9.789   0.765   7.107
  227WAT     H1  923   9.830   0.832   7.045
  227WAT     H2  924   9.727   0.812   7.170
  228WAT      O  925   6.858   2.841   1.395
  228WAT     H1  926   6.949   2.825   1.357
  228WAT     H2  927   6.861   2.919   1.457
  229WAT      O  928   7.217   9.182   6.218
  229WAT     H1  929   7.210   9.181   6.318
  229WAT     H2  930   7.270   9.262   6.189
  230WAT      O  931   8.487   4.026   0.180
  230WAT     H1  932   8.571   3.993   0.222
  230WAT     H2  933   8.418   4.042   0.251
  231WAT      O  934   4.458   8.553   9.761
  231WAT     H1  935   4.451   8.614   9.841
  231WAT     H2  936   4.409   8.593   9.684
  232WAT      O  937   5.644   7.185   6.263
  232WAT     H1  938   5.711   7.111   6.278
  232WAT     H2  939   5.674   7.242   6.187
  233WAT      O  940   6.770   8.713   2.435
  233WAT     H1  941   6.774   8.810   2.411
  233WAT     H2  942   6.826   8.696   2.517
  234WAT      O  943   1.273   1.131   7.264
  234WAT     H1  944   1.285   1.182   7.350
  234WAT     H2  945   1.361   1.097   7.233
  235WAT      O  946   1.268   8.539   3.220
  235WAT     H1  947   1.213   8.456   3.209
  235WAT     H2  948   1.209   8.614   3.252
  236WAT      O  949   3.710   5.586   7.167
  236WAT     H1  950   3.757   5.533   7.239
  236WAT     H2  951   3.757   5.673   7.155
  237WAT      O  952   3.607   5.937   1.807
  237WAT     H1  953   3.636   5.887   1.725
  237WAT     H2  954   3.688   5.969   1.856
  238WAT      O  955   6.225   3.262   3.310
  238WAT     H1  956   6.128   3.283   3.303
  238WAT     H2  957   6.258   3.227   3.222
  239WAT      O  958   1.229   1.104   8.444
  239WAT     H1  959   1.319   1.061   8.460
  239WAT     H2  960   1.221   1.128   8.347
  240WAT      O  961   5.104   2.960   0.152
  240WAT     H1  962   5.070   2.909   0.231
  240WAT     H2  963   5.179   3.020   0.180
  241WAT      O  964   8.965   3.400   3.634
  241WAT     H1  965   8.902   3.429   3.706
  241WAT     H2  966   8.936   3.311   3.599
  242WAT      O  967   4.755   2.380   6.050
  242WAT     H1  968   4.797   2.292   6.070
  242WAT     H2  969   4.658   2.377   6.074
  243WAT      O  970   0.161   1.266   6.466
  243WAT     H1  971   0.089   1.306   6.524
  243WAT     H2  972   0.118   1.214   6.391
  244WAT      O  973   0.772   7.096   5.493
  244WAT     H1  974   0.770   7.169   5.562
  244WAT     H2  975   0.730   7.130   5.409
  245WAT      O  976   7.707   9.017   8.756
  245WAT     H1  977   7.734   8.921   8.742
  245WAT     H2  978   7.771   9.061   8.819
  246WAT      O  979   4.964   9.415   9.458
  246WAT     H1  980   4.880   9.368   9.429
  246WAT     H2  981   5.024   9.427   9.379
  247WAT      O  982   0.096   5.061   1.167
  247WAT     H1  983   0.079   4.964   1.186
  247WAT     H2  984   0.149   5.100   1.243
  248WAT      O  985   7.638   0.757   1.215
  248WAT     H1  986   7.601   0.789   1.127
  248WAT     H2  987   7.674   0.835   1.266
  249WAT      O  988   8.551   1.121   4.883
  249WAT     H1  989   8.476   1.122   4.817
  249WAT     H2  990   8.633   1.161   4.842
  250WAT      O  991   4.651   1.828   6.530
  250WAT     H1  992   4.616   1.748   6.579
  250WAT     H2  993   4.627   1.911   6.580
  251WAT      O  994   9.626   9.060   6.605
  251WAT     H1  995   9.665   9.062   6.697
  251WAT     H2  996   9.530   9.087   6.609
  252WAT      O  997   4.904   1.058   2.488
  252WAT     H1  998   4.952   0.971   2.486
  252WAT     H2  999   4.840   1.063   2.411
  253WAT      O 1000   0.107   3.469   6.118
  253WAT     H1 1001   0.103   3.569   6.114
  253WAT     H2 1002   0.145   3.434   6.032
  254WAT      O 1003   4.829   2.711   7.698
  254WAT     H1 1004   4.831   2.809   7.721
  254WAT     H2 1005   4.734   2.681   7.694
  255WAT      O 1006   7.939   8.568   3.521
  255WAT     H1 1007   7.943   8.630   3.443
  255WAT     H2 1008   7.984   8.482   3.498
  256WAT      O 1009   6.989   7.495   5.869
  256WAT     H1 1010   7.026   7.497   5.776
  256WAT     H2 1011   7.064   7.486   5.935
  257WAT      O 1012   3.261   3.409   5.048
  257WAT     H1 1013   3.297   3.501   5.036
  257WAT     H2 1014   3.323   3.342   5.006
  258WAT      O 1015   0.218   9.515   2.428
  258WAT     H1 1016   0.285   9.589   2.414
  258WAT     H2 1017   0.128   9.546   2.399
  259WAT      O 1018   6.179   4.608   2.557
  259WAT     H1 1019   6.132   4.656   2.482
  259WAT     H2 1020   6.264   4.656   2.579
  260WAT      O 1021   5.278   1.272   6.178
  260WAT     H1 1022   5.277   1.365   6.141
  260WAT     H2 1023   5.196   1.255   6.232
  261WAT      O 1024   3.337   3.917   9.219
  261WAT     H1 1025   3.329   4.016   9.231
  261WAT     H2 1026   3.434   3.892   9.216
  262WAT      O 1027   4.599   5.620   3.958
  262WAT     H1 1028   4.623   5.685   3.885
  262WAT     H2 1029   4.658   5.539   3.952
  263WAT      O 1030   9.127   0.057   0.772
  263WAT     H1 1031   9.085   0.127   0.714
  263WAT     H2 1032   9.196   0.099   0.831
  264WAT      O 1033   3.311   4.833   6.540
  264WAT     H1 1034   3.377   4.822   6.613
  264WAT     H2 1035   3.323   4.922   6.496
  265WAT      O 1036   4.201   0.502   8.739
  265WAT     H1 1037   4.163   0.529   8.827
  265WAT     H2 1038   4.156   0.554   8.666
  266WAT      O 1039   2.059   5.657   9.443
  266WAT     H1 1040   2.127   5.615   9.503
  266WAT     H2 1041   2.095   5.741   9.404
  267WAT      O 1042   3.856   0.133   9.870
  267WAT     H1 1043   3.808   0.131   9.958
  267WAT     H2 1044   3.803   0.187   9.804
  268WAT      O 1045   5.795   3.625   1.633
  268WAT     H1 1046   5.763   3.552   1.693
  268WAT     H2 1047   5.794   3.594   1.538
  269WAT      O 1048   6.619   4.620   0.285
  269WAT     H1 1049   6.565   4.702   0.301
  269WAT     H2 1050   6.665   4.593   0.369
  270WAT      O 1051   6.658   1.448   9.821
  270WAT     H1 1052   6.751   1.421   9.845
  270WAT     H2 1053   6.597   1.432   9.899
  271WAT      O 1054   4.958   3.070   3.861
  271WAT     H1 1055   5.010   3.137   3.808
  271WAT     H2 1056   4.990   3.069   3.955
  272WAT      O 1057   7.835   0.958   7.448
  272WAT     H1 1058   7.864   0.903   7.526
  272WAT     H2 1059   7.890   1.041   7.444
  273WAT      O 1060   2.752   4.677   8.814
  273WAT     H1 1061   2.814   4.653   8.889
  273WAT     H2 1062   2.670   4.721   8.851
  274WAT      O 1063   4.670   4.070   6.000
  274WAT     H1 1064   4.752   4.078   6.057
  274WAT     H2 1065   4.663   3.978   5.964
  275WAT      O 1066   0.829   8.901   3.776
  275WAT     H1 1067   0.800   8.930   3.867
  275WAT     H2 1068   0.828   8.802   3.771
  276WAT      O 1069   4.701   8.600   1.137
  276WAT     H1 1070   4.686   8.601   1.038
  276WAT     H2 1071   4.784   8.652   1.159
  277WAT      O 1072   0.128   7.887   2.905
  277WAT     H1 1073   0.198   7.818   2.888
  277WAT     H2 1074   0.063   7.853   2.973
  278WAT      O 1075   4.564   2.018   8.969
  278WAT     H1 1076   4.609   2.012   9.059
  278WAT     H2 1077   4.624   1.979   8.899
  279WAT      O 1078   0.943   3.586   5.401
  279WAT     H1 1079   0.869   3.652   5.409
  279WAT     H2 1080   0.990   3.578   5.489
  280WAT      O 1081   3.341   3.562   8.388
  280WAT     H1 1082   3.300   3.632   8.446
  280WAT     H2 1083   3.426   3.597   8.348
  281WAT      O 1084   6.565   5.113   7.917
  281WAT     H1 1085   6.528   5.023   7.893
  281WAT     H2 1086   6.565   5.124   8.016
  282WAT      O 1087   2.789   3.443   7.682
  282WAT     H1 1088   2.781   3.393   7.596
  282WAT     H2 1089   2.726   3.520   7.682
  283WAT      O 1090   1.163   5.292   1.328
  283WAT     H1 1091   1.229   5.263   1.259
  283WAT     H2 1092   1.080   5.327   1.283
  284WAT      O 1093   8.294   0.747   0.267
  284WAT     H1 1094   8.328   0.707   0.352
  284WAT     H2 1095   8.325   0.843   0.262
  285WAT      O 1096   1.302  -0.003   0.050
  285WAT     H1 1097   1.364   0.021   0.125
  285WAT     H2 1098   1.314   0.062  -0.025
  286WAT      O 1099   6.864   3.503   5.729
  286WAT     H1 1100   6.945   3.537   5.682
  286WAT     H2 1101   6.872   3.405   5.744
  287WAT      O 1102   1.340   4.196   8.712
  287WAT     H1 1103   1.383   4.151   8.634
  287WAT     H2 1104   1.410   4.245   8.764
  288WAT      O 1105   1.022   0.504   3.423
  288WAT     H1 1106   0.974   0.454   3.352
  288WAT     H2 1107   1.029   0.601   3.397
  289WAT      O 1108   8.393   5.411   0.675
  289WAT     H1 1109   8.313   5.406   0.616
  289WAT     H2 1110   8.470   5.364   0.631
  290WAT      O 1111   8.169   6.260   9.618
  290WAT     H1 1112   8.207   6.334   9.563
  290WAT     H2 1113   8.155   6.292   9.712
  291WAT      O 1114   3.490   9.420   5.759
  291WAT     H1 1115   3.499   9.519   5.773
  291WAT     H2 1116   3.468   9.402   5.663
  292WAT      O 1117   1.259   6.340   0.802
  292WAT     H1 1118   1.327   6.407   0.773
  292WAT     H2 1119   1.294   6.248   0.785
  293WAT      O 1120   9.243   2.467   8.571
  293WAT     H1 1121   9.251   2.487   8.473
  293WAT     H2 1122   9.158   2.417   8.588
  294WAT      O 1123   2.971   1.689   6.432
  294WAT     H1 1124   2.965   1.593   6.406
  294WAT     H2 1125   3.059   1.706   6.477
  295WAT      O 1126   7.250   4.698   4.755
  295WAT     H1 1127   7.213   4.694   4.848
  295WAT     H2 1128   7.265   4.605   4.721
  296WAT      O 1129   7.225   3.585   8.070
  296WAT     H1 1130   7.311   3.583   8.120
  296WAT     H2 1131   7.210   3.498   8.024
  297WAT      O 1132   8.472   8.355   3.035
  297WAT     H1 1133   8.377   8.381   3.018
  297WAT     H2 1134   8.511   8.315   2.953
  298WAT      O 1135   2.114   2.564   5.498
  298WAT     H1 1136   2.103   2.590   5.402
  298WAT     H2 1137   2.192   2.613   5.538
  299WAT      O 1138   0.378   0.412   5.360
  299WAT     H1 1139   0.412   0.506   5.355
  299WAT     H2 1140   0.281   0.413   5.386
  300WAT      O 1141   6.415   4.205   4.054
  300WAT     H1 1142   6.392   4.173   4.146
  300WAT     H2 1143   6.501   4.255   4.056
  301WAT      O 1144   3.601   4.256   0.309
  301WAT     H1 1145   3.536   4.323   0.272
  301WAT     H2 1146   3.572   4.164   0.281
  302WAT      O 1147   0.170   2.638   2.173
  302WAT     H1 1148   0.208   2.674   2.088
  302WAT     H2 1149   0.071   2.649   2.173
  303WAT      O 1150   5.772   6.942   2.031
  303WAT     H1 1151   5.845   6.961   1.966
  303WAT     H2 1152   5.747   7.026   2.079
  304WAT      O 1153   8.616   1.186   4.434
  304WAT     H1 1154   8.594   1.096   4.398
  304WAT     H2 1155   8.583   1.257   4.371
  305WAT      O 1156   2.898   2.284   2.828
  305WAT     H1 1157   2.974   2.349   2.820
  305WAT     H2 1158   2.856   2.270   2.739
  306WAT      O 1159   9.271   5.530   2.869
  306WAT     H1 1160   9.193   5.562   2.814
  306WAT     H2 1161   9.237   5.489   2.953
  307WAT      O 1162   6.722   8.405   8.938
  307WAT     H1 1163   6.757   8.349   9.013
  307WAT     H2 1164   6.795   8.463   8.903
  308WAT      O 1165   7.601   0.624   8.950
  308WAT     H1 1166   7.675   0.567   8.914
  308WAT     H2 1167   7.606   0.715   8.908
  309WAT      O 1168   0.947   1.918   1.118
  309WAT     H1 1169   0.973   1.822   1.133
  309WAT     H2 1170   0.999   1.976   1.182
  310WAT      O 1171   5.131   6.255   2.271
  310WAT     H1 1172   5.166   6.340   2.232
  310WAT     H2 1173   5.172   6.240   2.361
  311WAT      O 1174   5.596   1.968   5.752
  311WAT     H1 1175   5.668   1.906   5.721
  311WAT     H2 1176   5.638   2.051   5.788
  312WAT      O 1177   1.266   9.094   9.880
  312WAT     H1 1178   1.237   9.110   9.975
  312WAT     H2 1179   1.326   9.014   9.877
  313WAT      O 1180   3.066   6.777   7.868
  313WAT     H1 1181   3.080   6.762   7.770
  313WAT     H2 1182   3.053   6.874   7.885
  314WAT      O 1183   8.449   4.651   0.166
  314WAT     H1 1184   8.366   4.704   0.179
  314WAT     H2 1185   8.460   4.630   0.069
  315WAT      O 1186   4.268   7.403   1.362
  315WAT     H1 1187   4.302   7.348   1.438
  315WAT     H2 1188   4.187   7.359   1.322
  316WAT      O 1189   3.978   5.462   7.450
  316WAT     H1 1190   4.051   5.442   7.515
  316WAT     H2 1191   3.907   5.392   7.457
  317WAT      O 1192   5.479   5.922   7.253
  317WAT     H1 1193   5.485   5.848   7.320
  317WAT     H2 1194   5.551   5.910   7.184
  318WAT      O 1195   4.083   5.889   0.867
  318WAT     H1 1196   4.026   5.931   0.796
  318WAT     H2 1197   4.172   5.933   0.869
  319WAT      O 1198   4.726   9.804   4.302
  319WAT     H1 1199   4.810   9.845   4.266
  319WAT     H2 1200   4.745   9.713   4.338
  320WAT      O 1201   9.661   0.518   9.241
  320WAT     H1 1202   9.632   0.475   9.326
  320WAT     H2 1203   9.723   0.457   9.192
  321WAT      O 1204   5.605   2.832   7.780
  321WAT     H1 1205   5.535   2.804   7.714
  321WAT     H2 1206   5.647   2.917   7.749
  322WAT      O 1207   6.118   0.365   1.715
  322WAT     H1 1208   6.174   0.283   1.709
  322WAT     H2 1209   6.134   0.410   1.802
  323WAT      O 1210   1.931   9.657   8.891
  323WAT     H1 1211   1.838   9.666   8.926
  323WAT     H2 1212   1.995   9.697   8.958
  324WAT      O 1213   2.793   1.642   9.764
  324WAT     H1 1214   2.789   1.725   9.820
  324WAT     H2 1215   2.889   1.616   9.750
  325WAT      O 1216   0.423   2.604   4.038
  325WAT     H1 1217   0.356   2.558   3.980
  325WAT     H2 1218   0.409   2.703   4.032
  326WAT      O 1219   3.805   5.422   2.771
  326WAT     H1 1220   3.748   5.413   2.853
  326WAT     H2 1221   3.774   5.500   2.717
  327WAT      O 1222   7.381   3.247   8.478
  327WAT     H1 1223   7.437   3.272   8.558
  327WAT     H2 1224   7.407   3.155   8.448
  328WAT      O 1225   3.386   7.079   6.621
  328WAT     H1 1226   3.423   7.100   6.711
  328WAT     H2 1227   3.304   7.135   6.605
  329WAT      O 1228   4.631   3.122   7.075
  329WAT     H1 1229   4.605   3.209   7.116
  329WAT     H2 1230   4.591   3.047   7.127
  330WAT      O 1231   8.327   4.658   9.709
  330WAT     H1 1232   8.240   4.673   9.662
  330WAT     H2 1233   8.373   4.746   9.721
  331WAT      O 1234   0.664   1.346   1.276
  331WAT     H1 1235   0.745   1.343   1.218
  331WAT     H2 1236   0.665   1.268   1.339
  332WAT      O 1237   8.060   8.106   5.491
  332WAT     H1 1238   8.020   8.197   5.504
  332WAT     H2 1239   7.988   8.037   5.488
  333WAT      O 1240   7.132   3.489   3.535
  333WAT     H1 1241   7.176   3.543   3.463
  333WAT     H2 1242   7.037   3.470   3.508
  334WAT      O 1243   6.555   9.734   5.347
  334WAT     H1 1244   6.579   9.791   5.426
  334WAT     H2 1245   6.633   9.676   5.323
  335WAT      O 1246   5.275   7.580   9.578
  335WAT     H1 1247   5.210   7.652   9.554
  335WAT     H2 1248   5.240   7.492   9.547
  336WAT      O 1249   5.333   5.163   1.134
  336WAT     H1 1250   5.403   5.101   1.096
  336WAT     H2 1251   5.313   5.136   1.228
  337WAT      O 1252   0.397   0.319   1.567
  337WAT     H1 1253   0.373   0.294   1.661
  337WAT     H2 1254   0.352   0.405   1.543
  338WAT      O 1255   3.742   5.307   1.744
  338WAT     H1 1256   3.735   5.245   1.823
  338WAT     H2 1257   3.801   5.266   1.675
  339WAT      O 1258   9.184   7.489   7.720
  339WAT     H1 1259   9.183   7.589   7.726
  339WAT     H2 1260   9.223   7.452   7.804
  340WAT      O 1261   5.511   4.719   2.531
  340WAT     H1 1262   5.608   4.701   2.519
  340WAT     H2 1263   5.496   4.818   2.543
  341WAT      O 1264   7.690   1.421   0.892
  341WAT     H1 1265   7.596   1.442   0.864
  341WAT     H2 1266   7.707   1.323   0.880
  342WAT      O 1267   0.334   3.436   6.271
  342WAT     H1 1268   0.309   3.393   6.358
  342WAT     H2 1269   0.262   3.419   6.204
  343WAT      O 1270   0.490   8.268   9.527
  343WAT     H1 1271   0.549   8.205   9.478
  343WAT     H2 1272   0.541   8.310   9.603
  344WAT      O 1273   4.701   7.941   7.201
  344WAT     H1 1274   4.757   7.993   7.265
  344WAT     H2 1275   4.715   7.975   7.108
  345WAT      O 1276   1.419   9.212   0.236
  345WAT     H1 1277   1.514   9.213   0.203
  345WAT     H2 1278   1.410   9.144   0.309
  346WAT      O 1279   6.766   9.336   8.552
  346WAT     H1 1280   6.737   9.374   8.464
  346WAT     H2 1281   6.751   9.238   8.553
  347WAT      O 1282   2.187   9.133   1.971
  347WAT     H1 1283   2.150   9.062   2.031
  347WAT     H2 1284   2.278   9.160   2.003
  348WAT      O 1285   8.377   6.664   6.209
  348WAT     H1 1286   8.294   6.715   6.186
  348WAT     H2 1287   8.432   6.651   6.127
  349WAT      O 1288   7.050   3.213   2.818
  349WAT     H1 1289   7.134   3.169   2.787
  349WAT     H2 1290   7.034   3.191   2.914
  350WAT      O 1291   6.493   2.603   4.782
  350WAT     H1 1292   6.422   2.594   4.852
  350WAT     H2 1293   6.497   2.519   4.728
  351WAT      O 1294   1.257   9.556   3.393
  351WAT     H1 1295   1.273   9.612   3.312
  351WAT     H2 1296   1.162   9.566   3.423
  352WAT      O 1297   9.413   8.306   3.329
  352WAT     H1 1298   9.443   8.236   3.394
  352WAT     H2 1299   9.464   8.390   3.346
  353WAT      O 1300   4.867   9.344   1.063
  353WAT     H1 1301   4.949   9.321   1.011
  353WAT     H2 1302   4.804   9.395   1.004
  354WAT      O 1303   4.630   4.746   8.942
  354WAT     H1 1304   4.700   4.691   8.987
  354WAT     H2 1305   4.584   4.691   8.873
  355WAT      O 1306   9.870   1.310   4.043
  355WAT     H1 1307   9.770   1.316   4.041
  355WAT     H2 1308   9.909   1.387   3.992
  356WAT      O 1309   8.492   5.261   2.292
  356WAT     H1 1310   8.498   5.206   2.209
  356WAT     H2 1311   8.531   5.211   2.369
  357WAT      O 1312   7.719   0.419   5.513
  357WAT     H1 1313   7.800   0.456   5.558
  357WAT     H2 1314   7.685   0.484   5.446
  358WAT      O 1315   9.838   4.292   4.754
  358WAT     H1 1316   9.893   4.335   4.826
  358WAT     H2 1317   9.889   4.214   4.716
  359WAT      O 1318   6.761   7.263   0.548
  359WAT     H1 1319   6.813   7.179   0.566
  359WAT     H2 1320   6.665   7.248   0.573
  360WAT      O 1321   0.007   2.054   9.607
  360WAT     H1 1322   0.041   1.978   9.662
  360WAT     H2 1323  -0.083   2.082   9.641
  361WAT      O 1324   3.692   0.217   6.674
  361WAT     H1 1325   3.791   0.231   6.678
  361WAT     H2 1326   3.665   0.151   6.745
  362WAT      O 1327   1.263   6.449   0.491
  362WAT     H1 1328   1.292   6.491   0.577
  362WAT     H2 1329   1.193   6.506   0.448
  363WAT      O 1330   2.795   9.712   4.001
  363WAT     H1 1331   2.708   9.760   4.013
  363WAT     H2 1332   2.833   9.689   4.090
  364WAT      O 1333   8.043   5.539   5.238
  364WAT     H1 1334   8.078   5.528   5.331
  364WAT     H2 1335   8.045   5.635   5.212
  365WAT      O 1336   8.908   0.998   0.916
  365WAT     H1 1337   8.964   0.999   0.833
  365WAT     H2 1338   8.960   1.037   0.992
  366WAT      O 1339   7.543   1.460   6.005
  366WAT     H1 1340   7.589   1.442   5.918
  366WAT     H2 1341   7.450   1.425   6.001
  367WAT      O 1342   0.543   6.819   7.657
  367WAT     H1 1343   0.628   6.774   7.632
  367WAT     H2 1344   0.518   6.793   7.751
  368WAT      O 1345   0.898   0.852   2.619
  368WAT     H1 1346   0.845   0.851   2.534
  368WAT     H2 1347   0.843   0.816   2.694
  369WAT      O 1348   2.726   5.281   5.285
  369WAT     H1 1349   2.783   5.344   5.337
  369WAT     H2 1350   2.752   5.187   5.307
  370WAT      O 1351   4.136   1.799   5.785
  370WAT     H1 1352   4.098   1.723   5.732
  370WAT     H2 1353   4.164   1.765   5.875
  371WAT      O 1354   5.705   2.421   7.837
  371WAT     H1 1355   5.768   2.353   7.799
  371WAT     H2 1356   5.649   2.379   7.909
  372WAT      O 1357   6.169   2.189   7.695
  372WAT     H1 1358   6.181   2.127   7.618
  372WAT     H2 1359   6.249   2.248   7.704
  373WAT      O 1360   6.620   5.989   0.896
  373WAT     H1 1361   6.683   6.056   0.856
  373WAT     H2 1362   6.614   5.909   0.836
  374WAT      O 1363   6.338   1.027   8.460
  374WAT     H1 1364   6.266   0.962   8.484
  374WAT     H2 1365   6.354   1.089   8.537
  375WAT      O 1366   9.876   6.825   5.636
  375WAT     H1 1367   9.948   6.813   5.705
  375WAT     H2 1368   9.795   6.865   5.679
  376WAT      O 1369   0.765   2.584   5.095
  376WAT     H1 1370   0.789   2.519   5.022
  376WAT     H2 1371   0.695   2.544   5.154
  377WAT      O 1372   0.160   1.060   9.039
  377WAT     H1 1373   0.131   1.138   8.983
  377WAT     H2 1374   0.250   1.079   9.078
  378WAT      O 1375   2.921   0.659   1.487
  378WAT     H1 1376   2.850   0.716   1.446
  378WAT     H2 1377   2.895   0.563   1.481
  379WAT      O 1378   0.242   0.122   4.594
  379WAT     H1 1379   0.254   0.102   4.496
  379WAT     H2 1380   0.315   0.182   4.626
  380WAT      O 1381   5.187   0.587   7.093
  380WAT     H1 1382   5.223   0.612   7.003
  380WAT     H2 1383   5.255   0.534   7.142
  381WAT      O 1384   1.099   2.810   8.585
  381WAT     H1 1385   1.003   2.784   8.596
  381WAT     H2 1386   1.106   2.910   8.576
  382WAT      O 1387   5.197   0.707   2.831
  382WAT     H1 1388   5.119   0.694   2.892
  382WAT     H2 1389   5.217   0.621   2.784
  383WAT      O 1390   7.610   4.505   3.485
  383WAT     H1 1391   7.658   4.431   3.531
  383WAT     H2 1392   7.536   4.538   3.543
  384WAT      O 1393   9.276   8.838   9.859
  384WAT     H1 1394   9.309   8.829   9.765
  384WAT     H2 1395   9.319   8.918   9.901
  385WAT      O 1396   8.694   3.067   1.814
  385WAT     H1 1397   8.673   3.060   1.716
  385WAT     H2 1398   8.786   3.032   1.831
  386WAT      O 1399   2.446   4.542   2.142
  386WAT     H1 1400   2.441   4.641   2.132
  386WAT     H2 1401   2.475   4.519   2.235
  387WAT      O 1402   0.138   8.684   3.850
  387WAT     H1 1403   0.204   8.613   3.829
  387WAT     H2 1404   0.175   8.773   3.823
  388WAT      O 1405   5.882   6.865   8.173
  388WAT     H1 1406   5.793   6.822   8.156
  388WAT     H2 1407   5.940   6.853   8.092
  389WAT      O 1408   6.813   5.076   4.237
  389WAT     H1 1409   6.906   5.059   4.206
  389WAT     H2 1410   6.811   5.082   4.337
  390WAT      O 1411   6.966   7.497   9.772
  390WAT     H1 1412   6.950   7.433   9.847
  390WAT     H2 1413   7.051   7.547   9.789
  391WAT      O 1414   4.316   5.895   7.040
  391WAT     H1 1415   4.325   5.897   6.941
  391WAT     H2 1416   4.406   5.882   7.082
  392WAT      O 1417   0.969   5.680   3.155
  392WAT     H1 1418   0.876   5.642   3.148
  392WAT     H2 1419   1.029   5.631   3.091
  393WAT      O 1420   0.515   4.412   1.778
  393WAT     H1 1421   0.522   4.349   1.701
  393WAT     H2 1422   0.525   4.362   1.864
  394WAT      O 1423   1.249   7.740   9.490
  394WAT     H1 1424   1.259   7.798   9.572
  394WAT     H2 1425   1.223   7.648   9.518
  395WAT      O 1426   8.354   2.414   7.046
  395WAT     H1 1427   8.379   2.331   7.096
  395WAT     H2 1428   8.257   2.411   7.024
  396WAT      O 1429   1.534   7.484   8.125
  396WAT     H1 1430   1.558   7.571   8.082
  396WAT     H2 1431   1.439   7.487   8.157
  397WAT      O 1432   8.552   2.519   3.702
  397WAT     H1 1433   8.529   2.600   3.649
  397WAT     H2 1434   8.605   2.545   3.783
  398WAT      O 1435   3.119   9.609   6.280
  398WAT     H1 1436   3.023   9.585   6.293
  398WAT     H2 1437   3.152   9.658   6.360
  399WAT      O 1438   0.742   7.140   2.827
  399WAT     H1 1439   0.822   7.086   2.803
  399WAT     H2 1440   0.659   7.088   2.808
  400WAT      O 1441   1.749   1.825   4.268
  400WAT     H1 1442   1.672   1.788   4.216
  400WAT     H2 1443   1.714   1.882   4.343
  401WAT      O 1444   9.282   2.537   5.901
  401WAT     H1 1445   9.249   2.481   5.977
  401WAT     H2 1446   9.234   2.625   5.901
  402WAT      O 1447   0.249   0.971   4.109
  402WAT     H1 1448   0.342   0.990   4.142
  402WAT     H2 1449   0.225   0.877   4.130
  403WAT      O 1450   6.011   8.435   3.235
  403WAT     H1 1451   5.924   8.466   3.274
  403WAT     H2 1452   6.015   8.335   3.237
  404WAT      O 1453   9.537   3.454   5.991
  404WAT     H1 1454   9.578   3.521   6.053
  404WAT     H2 1455   9.437   3.461   5.996
  405WAT      O 1456   5.772   8.451   5.539
  405WAT     H1 1457   5.769   8.547   5.510
  405WAT     H2 1458   5.843   8.403   5.488
  406WAT      O 1459   0.014   9.491   5.412
  406WAT     H1 1460   0.080   9.555   5.451
  406WAT     H2 1461   0.055   9.400   5.406
  407WAT      O 1462   3.875   4.385   4.975
  407WAT     H1 1463   3.951   4.322   4.993
  407WAT     H2 1464   3.875   4.458   5.043
  408WAT      O 1465   7.700   4.131   8.478
  408WAT     H1 1466   7.620   4.104   8.533
  408WAT     H2 1467   7.781   4.132   8.536
  409WAT      O 1468   4.610   3.980   9.356
  409WAT     H1 1469   4.705   3.979   9.389
  409WAT     H2 1470   4.565   3.895   9.382
  410WAT      O 1471   5.336   8.188   9.091
  410WAT     H1 1472   5.308   8.092   9.090
  410WAT     H2 1473   5.387   8.209   9.008
  411WAT      O 1474   3.597   0.782   5.939
  411WAT     H1 1475   3.619   0.725   6.018
  411WAT     H2 1476   3.582   0.876   5.968
  412WAT      O 1477   5.812   8.368   2.894
  412WAT     H1 1478   5.828   8.390   2.798
  412WAT     H2 1479   5.722   8.402   2.922
  413WAT      O 1480   8.354   7.332   5.689
  413WAT     H1 1481   8.336   7.393   5.766
  413WAT     H2 1482   8.313   7.243   5.707
  414WAT      O 1483   1.679   6.758   2.682
  414WAT     H1 1484   1.739   6.762   2.762
  414WAT     H2 1485   1.592   6.802   2.704
  415WAT      O 1486   8.942   0.354   1.231
  415WAT     H1 1487   8.971   0.274   1.283
  415WAT     H2 1488   8.845   0.344   1.206
  416WAT      O 1489   0.227   0.557   4.902
  416WAT     H1 1490   0.295   0.485   4.889
  416WAT     H2 1491   0.196   0.590   4.813
  417WAT      O 1492   2.854   5.236   6.919
  417WAT     H1 1493   2.918   5.177   6.870
  417WAT     H2 1494   2.799   5.288   6.854
  418WAT      O 1495   2.383   2.104   5.143
  418WAT     H1 1496   2.480   2.126   5.131
  418WAT     H2 1497   2.357   2.032   5.078
  419WAT      O 1498   9.217   3.096   9.508
  419WAT     H1 1499   9.240   3.008   9.550
  419WAT     H2 1500   9.295   3.128   9.454
  420WAT      O 1501   8.240   8.334   4.666
  420WAT     H1 1502   8.291   8.267   4.613
  420WAT     H2 1503   8.215   8.295   4.755
  421WAT      O 1504   7.645   3.933   6.755
  421WAT     H1 1505   7.658   3.997   6.680
  421WAT     H2 1506   7.548   3.906   6.759
  422WAT      O 1507   5.168   7.034   2.629
  422WAT     H1 1508   5.142   6.992   2.541
  422WAT     H2 1509   5.190   7.130   2.614
  423WAT      O 1510   1.604   9.794   3.415
  423WAT     H1 1511   1.554   9.837   3.490
  423WAT     H2 1512   1.585   9.696   3.414
  424WAT      O 1513   7.965   5.482   0.946
  424WAT     H1 1514   8.047   5.439   0.984
  424WAT     H2 1515   7.989   5.532   0.863
  425WAT      O 1516   8.227   9.712   2.340
  425WAT     H1 1517   8.259   9.674   2.427
  425WAT     H2 1518   8.157   9.781   2.358
  426WAT      O 1519   1.128   2.098   8.234
  426WAT     H1 1520   1.108   2.130   8.141
  426WAT     H2 1521   1.051   2.120   8.294
  427WAT      O 1522   4.232   3.651   0.786
  427WAT     H1 1523   4.191   3.582   0.726
  427WAT     H2 1524   4.274   3.723   0.731
  428WAT      O 1525   1.038   3.532   0.081
  428WAT     H1 1526   1.042   3.563   0.176
  428WAT     H2 1527   1.117   3.568   0.031
  429WAT      O 1528   1.655   5.138   2.820
  429WAT     H1 1529   1.749   5.162   2.797
  429WAT     H2 1530   1.629   5.184   2.905
  430WAT      O 1531   2.160   4.956   0.116
  430WAT     H1 1532   2.240   4.898   0.102
  430WAT     H2 1533   2.160   4.991   0.210
  431WAT      O 1534   2.545   5.438   4.109
  431WAT     H1 1535   2.612   5.466   4.178
  431WAT     H2 1536   2.521   5.342   4.122
  432WAT      O 1537   2.607   6.965   6.044
  432WAT     H1 1538   2.705   6.959   6.028
  432WAT     H2 1539   2.571   7.050   6.006
  433WAT      O 1540   5.695   2.729   9.811
  433WAT     H1 1541   5.631   2.805   9.799
  433WAT     H2 1542   5.645   2.649   9.844
  434WAT      O 1543   7.343   8.985   6.086
  434WAT     H1 1544   7.295   9.060   6.131
  434WAT     H2 1545   7.292   8.956   6.005
  435WAT      O 1546   4.726   2.046   3.103
  435WAT     H1 1547   4.629   2.033   3.123
  435WAT     H2 1548   4.737   2.125   3.042
  436WAT      O 1549   7.493   6.614   8.564
  436WAT     H1 1550   7.449   6.528   8.590
  436WAT     H2 1551   7.459   6.688   8.622
  437WAT      O 1552   0.135   8.456   1.356
  437WAT     H1 1553   0.202   8.469   1.428
  437WAT     H2 1554   0.140   8.532   1.291
  438WAT      O 1555   4.554   5.349   7.561
  438WAT     H1 1556   4.553   5.259   7.606
  438WAT     H2 1557   4.645   5.366   7.523
  439WAT      O 1558   5.651   0.943   9.352
  439WAT     H1 1559   5.684   1.031   9.319
  439WAT     H2 1560   5.577   0.959   9.419
  440WAT      O 1561   1.047   0.242   9.790
  440WAT     H1 1562   1.003   0.171   9.735
  440WAT     H2 1563   1.147   0.235   9.778
  441WAT      O 1564   9.080   2.484   4.135
  441WAT     H1 1565   9.173   2.519   4.130
  441WAT     H2 1566   9.071   2.403   4.077
  442WAT      O 1567   2.119   4.606   1.927
  442WAT     H1 1568   2.026   4.605   1.891
  442WAT     H2 1569   2.143   4.698   1.957
  443WAT      O 1570   7.878   0.677   9.234
  443WAT     H1 1571   7.866   0.578   9.231
  443WAT     H2 1572   7.885   0.707   9.329
  444WAT      O 1573   3.958   1.622   4.824
  444WAT     H1 1574   3.974   1.549   4.758
  444WAT     H2 1575   4.043   1.674   4.838
  445WAT      O 1576   5.475   5.927   6.499
  445WAT     H1 1577   5.427   5.914   6.586
  445WAT     H2 1578   5.543   5.999   6.510
  446WAT      O 1579   3.817   7.175   1.404
  446WAT     H1 1580   3.872   7.258   1.414
  446WAT     H2 1581   3.804   7.155   1.307
  447WAT      O 1582   8.770   4.451   5.664
  447WAT     H1 1583   8.675   4.476   5.645
  447WAT     H2 1584   8.788   4.465   5.761
  448WAT      O 1585   3.250   7.171   8.685
  448WAT     H1 1586   3.212   7.261   8.704
  448WAT     H2 1587   3.179   7.101   8.694
  449WAT      O 1588   7.497   2.042   1.201
  449WAT     H1 1589   7.433   1.966   1.215
  449WAT     H2 1590   7.590   2.011   1.221
  450WAT      O 1591   8.873   2.193   8.193
  450WAT     H1 1592   8.801   2.260   8.178
  450WAT     H2 1593   8.855   2.143   8.277
  451WAT      O 1594   5.625   8.869   2.212
  451WAT     H1 1595   5.637   8.889   2.309
  451WAT     H2 1596   5.536   8.903   2.182
  452WAT      O 1597   6.583   7.302   3.136
  452WAT     H1 1598   6.606   7.270   3.228
  452WAT     H2 1599   6.504   7.250   3.102
  453WAT      O 1600   3.961   0.867   8.317
  453WAT     H1 1601   3.984   0.951   8.269
  453WAT     H2 1602   4.040   0.806   8.319
  454WAT      O 1603   0.454   9.239   5.605
  454WAT     H1 1604   0.367   9.207   5.641
  454WAT     H2 1605   0.508   9.160   5.573
  455WAT      O 1606   8.555   5.875   1.476
  455WAT     H1 1607   8.456   5.867   1.482
  455WAT     H2 1608   8.595   5.868   1.568
  456WAT      O 1609   2.477   6.195   6.089
  456WAT     H1 1610   2.534   6.266   6.049
  456WAT     H2 1611   2.515   6.167   6.177
  457WAT      O 1612   0.739   0.488   4.377
  457WAT     H1 1613   0.643   0.491   4.402
  457WAT     H2 1614   0.783   0.410   4.422
  458WAT      O 1615   1.436   7.368   1.757
  458WAT     H1 1616   1.534   7.349   1.762
  458WAT     H2 1617   1.391   7.334   1.839
  459WAT      O 1618   3.712   3.310   6.222
  459WAT     H1 1619   3.782   3.332   6.289
  459WAT     H2 1620   3.750   3.247   6.154
  460WAT      O 1621   3.952   7.636   8.270
  460WAT     H1 1622   3.907   7.614   8.356
  460WAT     H2 1623   3.925   7.568   8.201
  461WAT      O 1624   1.801   4.950   0.854
  461WAT     H1 1625   1.727   5.008   0.887
  461WAT     H2 1626   1.774   4.907   0.767
  462WAT      O 1627   6.969   0.015   8.938
  462WAT     H1 1628   6.962   0.092   9.000
  462WAT     H2 1629   6.881  -0.001   8.893
  463WAT      O 1630   8.526   6.872   1.226
  463WAT     H1 1631   8.613   6.824   1.240
  463WAT     H2 1632   8.542   6.971   1.224
  464WAT      O 1633   2.555   4.093   0.546
  464WAT     H1 1634   2.631   4.121   0.487
  464WAT     H2 1635   2.582   4.105   0.642
  465WAT      O 1636   8.371   1.770   2.052
  465WAT     H1 1637   8.466   1.800   2.039
  465WAT     H2 1638   8.309   1.846   2.032
  466WAT      O 1639   6.011   4.931   3.164
  466WAT     H1 1640   6.065   4.943   3.247
  466WAT     H2 1641   6.050   4.858   3.109
  467WAT      O 1642   1.995   9.011   5.926
  467WAT     H1 1643   1.967   9.009   6.022
  467WAT     H2 1644   1.993   8.919   5.889
  468WAT      O 1645   4.737   6.885   2.042
  468WAT     H1 1646   4.783   6.885   1.953
  468WAT     H2 1647   4.773   6.958   2.099
  469WAT      O 1648   6.965   6.084   5.882
  469WAT     H1 1649   7.057   6.069   5.844
  469WAT     H2 1650   6.900   6.021   5.838
  470WAT      O 1651   9.258   9.158   4.213
  470WAT     H1 1652   9.255   9.252   4.248
  470WAT     H2 1653   9.264   9.159   4.114
  471WAT      O 1654   1.994   8.139   0.423
  471WAT     H1 1655   2.082   8.184   0.406
  471WAT     H2 1656   1.922   8.188   0.375
  472WAT      O 1657   0.342   8.983   5.747
  472WAT     H1 1658   0.412   8.959   5.814
  472WAT     H2 1659   0.257   9.007   5.795
  473WAT      O 1660   9.046   9.081   5.100
  473WAT     H1 1661   8.959   9.050   5.140
  473WAT     H2 1662   9.079   9.013   5.035
  474WAT      O 1663   0.230   5.070   7.060
  474WAT     H1 1664   0.265   5.018   7.138
  474WAT     H2 1665   0.299   5.135   7.029
  475WAT      O 1666   2.823   7.783   7.093
  475WAT     H1 1667   2.752   7.714   7.085
  475WAT     H2 1668   2.912   7.743   7.070
  476WAT      O 1669   3.368   9.013   2.230
  476WAT     H1 1670   3.303   8.937   2.225
  476WAT     H2 1671   3.320   9.099   2.215
  477WAT      O 1672   6.325   7.331   7.244
  477WAT     H1 1673   6.399   7.364   7.303
  477WAT     H2 1674   6.274   7.258   7.291
  478WAT      O 1675   1.272   6.741   2.115
  478WAT     H1 1676   1.176   6.765   2.096
  478WAT     H2 1677   1.303   6.793   2.194
  479WAT      O 1678   9.516   5.680   2.593
  479WAT     H1 1679   9.511   5.591   2.638
  479WAT     H2 1680   9.610   5.712   2.593
  480WAT      O 1681   2.292   7.460   3.551
  480WAT     H1 1682   2.282   7.473   3.650
  480WAT     H2 1683   2.374   7.508   3.520
  481WAT      O 1684   6.013   8.494   0.198
  481WAT     H1 1685   6.019   8.536   0.288
  481WAT     H2 1686   5.918   8.494   0.166
  482WAT      O 1687   2.705   7.842   3.385
  482WAT     H1 1688   2.641   7.824   3.460
  482WAT     H2 1689   2.786   7.785   3.397
  483WAT      O 1690   3.025   6.315   6.571
  483WAT     H1 1691   3.037   6.365   6.657
  483WAT     H2 1692   3.114   6.300   6.529
  484WAT      O 1693   7.174   5.569   2.612
  484WAT     H1 1694   7.085   5.610   2.592
  484WAT     H2 1695   7.184   5.558   2.711
  485WAT      O 1696   5.194   2.028   5.831
  485WAT     H1 1697   5.099   2.019   5.861
  485WAT     H2 1698   5.249   2.066   5.905
  486WAT      O 1699   7.507   1.063   6.218
  486WAT     H1 1700   7.428   1.124   6.211
  486WAT     H2 1701   7.591   1.117   6.207
  487WAT      O 1702   7.143   8.328   1.438
  487WAT     H1 1703   7.174   8.386   1.362
  487WAT     H2 1704   7.044   8.340   1.450
  488WAT      O 1705   4.264   6.954   1.878
  488WAT     H1 1706   4.336   7.016   1.847
  488WAT     H2 1707   4.298   6.860   1.873
  489WAT      O 1708   5.328   3.719   3.203
  489WAT     H1 1709   5.421   3.748   3.227
  489WAT     H2 1710   5.262   3.785   3.239
  490WAT      O 1711   2.467   8.281   5.617
  490WAT     H1 1712   2.554   8.237   5.596
  490WAT     H2 1713   2.481   8.349   5.689
  491WAT      O 1714   4.111   9.654   5.893
  491WAT     H1 1715   4.057   9.732   5.861
  491WAT     H2 1716   4.171   9.623   5.820
  492WAT      O 1717   3.218   2.580   8.220
  492WAT     H1 1718   3.131   2.620   8.248
  492WAT     H2 1719   3.277   2.569   8.300
  493WAT      O 1720   8.767   6.951   2.516
  493WAT     H1 1721   8.839   6.900   2.469
  493WAT     H2 1722   8.698   6.888   2.550
  494WAT      O 1723   2.188   9.372   9.017
  494WAT     H1 1724   2.142   9.382   8.929
  494WAT     H2 1725   2.281   9.339   9.002
  495WAT      O 1726   1.167   4.409   1.367
  495WAT     H1 1727   1.199   4.314   1.371
  495WAT     H2 1728   1.245   4.471   1.359
  496WAT      O 1729   5.902   2.538   4.937
  496WAT     H1 1730   5.907   2.508   4.841
  496WAT     H2 1731   5.939   2.467   4.996
  497WAT      O 1732   3.477   7.129   5.517
  497WAT     H1 1733   3.552   7.100   5.458
  497WAT     H2 1734   3.414   7.186   5.466
  498WAT      O 1735   7.807   3.311   2.876
  498WAT     H1 1736   7.883   3.252   2.902
  498WAT     H2 1737   7.736   3.308   2.947
  499WAT      O 1738   1.262   6.410   5.270
  499WAT     H1 1739   1.349   6.393   5.223
  499WAT     H2 1740   1.190   6.428   5.203
  500WAT      O 1741   4.129   9.312   0.915
  500WAT     H1 1742   4.190   9.391   0.911
  500WAT     H2 1743   4.118   9.274   0.823
  501WAT      O 1744   7.860   5.233   6.849
  501WAT     H1 1745   7.896   5.228   6.756
  501WAT     H2 1746   7.874   5.325   6.886
  502WAT      O 1747   1.914   8.378   9.032
  502WAT     H1 1748   1.969   8.304   9.070
  502WAT     H2 1749   1.967   8.463   9.034
  503WAT      O 1750   4.616   8.950   2.432
  503WAT     H1 1751   4.578   8.955   2.339
  503WAT     H2 1752   4.670   9.032   2.450
  504WAT      O 1753   7.803   5.878   0.719
  504WAT     H1 1754   7.800   5.971   0.683
  504WAT     H2 1755   7.711   5.839   0.718
  505WAT      O 1756   7.736   5.538   8.307
  505WAT     H1 1757   7.680   5.608   8.351
  505WAT     H2 1758   7.833   5.559   8.321
  506WAT      O 1759   9.537   2.353   4.405
  506WAT     H1 1760   9.465   2.291   4.373
  506WAT     H2 1761   9.497   2.432   4.451
  507WAT      O 1762   7.755   1.146   3.269
  507WAT     H1 1763   7.697   1.139   3.350
  507WAT     H2 1764   7.769   1.055   3.229
  508WAT      O 1765   0.301   2.296   5.486
  508WAT     H1 1766   0.269   2.335   5.572
  508WAT     H2 1767   0.279   2.199   5.483
  509WAT      O 1768   6.128   9.499   9.262
  509WAT     H1 1769   6.217   9.524   9.223
  509WAT     H2 1770   6.142   9.434   9.336
  510WAT      O 1771   8.444   0.364   6.715
  510WAT     H1 1772   8.397   0.313   6.787
  510WAT     H2 1773   8.527   0.316   6.688
  511WAT      O 1774   9.761   3.532   2.749
  511WAT     H1 1775   9.677   3.578   2.719
  511WAT     H2 1776   9.803   3.486   2.672
  512WAT      O 1777   2.245   4.419   4.708
  512WAT     H1 1778   2.260   4.351   4.637
  512WAT     H2 1779   2.210   4.374   4.790
  513WAT      O 1780   7.314   3.021   7.749
  513WAT     H1 1781   7.382   3.092   7.735
  513WAT     H2 1782   7.304   2.967   7.666
  514WAT      O 1783   3.838   2.939   8.060
  514WAT     H1 1784   3.803   2.991   8.138
  514WAT     H2 1785   3.938   2.935   8.065
  515WAT      O 1786   5.708   7.043   0.118
  515WAT     H1 1787   5.767   7.013   0.193
  515WAT     H2 1788   5.727   6.991   0.036
  516WAT      O 1789   1.129   7.310   8.289
  516WAT     H1 1790   1.056   7.305   8.357
  516WAT     H2 1791   1.198   7.240   8.309
  517WAT      O 1792   3.516   1.546   4.275
  517WAT     H1 1793   3.537   1.448   4.284
  517WAT     H2 1794   3.463   1.576   4.354
  518WAT      O 1795   6.761   0.507   6.651
  518WAT     H1 1796   6.678   0.453   6.639
  518WAT     H2 1797   6.760   0.585   6.588
  519WAT      O 1798   4.654   3.371   1.180
  519WAT     H1 1799   4.561   3.357   1.144
  519WAT     H2 1800   4.655   3.352   1.278
  520WAT      O 1801   8.832   0.163   7.003
  520WAT     H1 1802   8.815   0.064   7.008
  520WAT     H2 1803   8.851   0.189   6.909
  521WAT      O 1804   0.647   1.112   2.685
  521WAT     H1 1805   0.585   1.189   2.698
  521WAT     H2 1806   0.622   1.038   2.748
  522WAT      O 1807   3.923   7.839   5.089
  522WAT     H1 1808   3.871   7.923   5.104
  522WAT     H2 1809   3.886   7.789   5.012
  523WAT      O 1810   5.191   9.705   6.004
  523WAT     H1 1811   5.233   9.712   6.094
  523WAT     H2 1812   5.131   9.624   6.002
  524WAT      O 1813   8.365   8.354   0.255
  524WAT     H1 1814   8.287   8.346   0.193
  524WAT     H2 1815   8.339   8.325   0.347
  525WAT      O 1816   5.509   7.511   6.390
  525WAT     H1 1817   5.462   7.444   6.333
  525WAT     H2 1818   5.550   7.464   6.469
  526WAT      O 1819   1.722   6.953   1.587
  526WAT     H1 1820   1.700   6.984   1.495
  526WAT     H2 1821   1.742   6.855   1.585
  527WAT      O 1822   2.188   7.800   8.958
  527WAT     H1 1823   2.182   7.897   8.982
  527WAT     H2 1824   2.097   7.765   8.936
  528WAT      O 1825   3.437   5.052   6.995
  528WAT     H1 1826   3.375   5.078   7.068
  528WAT     H2 1827   3.517   5.112   6.995
  529WAT      O 1828   5.008   0.190   8.527
  529WAT     H1 1829   4.932   0.249   8.499
  529WAT     H2 1830   5.087   0.207   8.467
  530WAT      O 1831   4.867   9.630   4.496
  530WAT     H1 1832   4.863   9.579   4.411
  530WAT     H2 1833   4.836   9.572   4.572
  531WAT      O 1834   9.638   9.387   9.863
  531WAT     H1 1835   9.730   9.398   9.827
  531WAT     H2 1836   9.604   9.295   9.842
  532WAT      O 1837   3.629   5.100   4.001
  532WAT     H1 1838   3.602   5.107   4.096
  532WAT     H2 1839   3.579   5.025   3.957
  533WAT      O 1840   1.365   6.877   2.975
  533WAT     H1 1841   1.368   6.830   2.887
  533WAT     H2 1842   1.311   6.823   3.040
  534WAT      O 1843   3.013   8.987   7.450
  534WAT     H1 1844   3.052   8.895   7.446
  534WAT     H2 1845   2.997   9.020   7.357
  535WAT      O 1846   5.902   3.804   0.502
  535WAT     H1 1847   5.973   3.769   0.440
  535WAT     H2 1848   5.879   3.898   0.476
  536WAT      O 1849   4.584   3.342   3.024
  536WAT     H1 1850   4.665   3.285   3.029
  536WAT     H2 1851   4.603   3.423   2.969
  537WAT      O 1852   1.773   4.965   3.776
  537WAT     H1 1853   1.860   5.008   3.799
  537WAT     H2 1854   1.773   4.938   3.680
  538WAT      O 1855   5.739   7.481   4.216
  538WAT     H1 1856   5.762   7.416   4.144
  538WAT     H2 1857   5.800   7.561   4.209
  539WAT      O 1858   5.890   1.403   2.414
  539WAT     H1 1859   5.909   1.364   2.504
  539WAT     H2 1860   5.799   1.375   2.384
  540WAT      O 1861   1.732   5.162   4.367
  540WAT     H1 1862   1.771   5.149   4.459
  540WAT     H2 1863   1.743   5.078   4.314
  541WAT      O 1864   4.825   2.553   3.656
  541WAT     H1 1865   4.754   2.484   3.667
  541WAT     H2 1866   4.839   2.571   3.558
  542WAT      O 1867   2.938   6.982   8.205
  542WAT     H1 1868   2.916   6.974   8.302
  542WAT     H2 1869   2.861   6.948   8.151
  543WAT      O 1870   7.203   4.892   1.794
  543WAT     H1 1871   7.234   4.797   1.802
  543WAT     H2 1872   7.114   4.901   1.839
  544WAT      O 1873   9.803   3.368   1.760
  544WAT     H1 1874   9.891   3.333   1.793
  544WAT     H2 1875   9.799   3.467   1.772
  545WAT      O 1876   2.367   4.528   8.549
  545WAT     H1 1877   2.454   4.519   8.599
  545WAT     H2 1878   2.386   4.554   8.454
  546WAT      O 1879   7.663   6.818   7.911
  546WAT     H1 1880   7.666   6.914   7.939
  546WAT     H2 1881   7.713   6.807   7.825
  547WAT      O 1882   7.606   8.740   2.637
  547WAT     H1 1883   7.531   8.745   2.703
  547WAT     H2 1884   7.627   8.644   2.619
  548WAT      O 1885   3.370   3.443   2.214
  548WAT     H1 1886   3.417   3.452   2.126
  548WAT     H2 1887   3.337   3.349   2.225
  549WAT      O 1888   6.846   8.561   3.303
  549WAT     H1 1889   6.906   8.544   3.224
  549WAT     H2 1890   6.765   8.611   3.272
  550WAT      O 1891   9.161   5.547   0.249
  550WAT     H1 1892   9.196   5.640   0.242
  550WAT     H2 1893   9.062   5.547   0.234
  551WAT      O 1894   9.341   0.434   6.254
  551WAT     H1 1895   9.360   0.336   6.256
  551WAT     H2 1896   9.270   0.455   6.321
  552WAT      O 1897   1.634   2.238   1.814
  552WAT     H1 1898   1.732   2.260   1.810
  552WAT     H2 1899   1.584   2.318   1.846
  553WAT      O 1900   2.814   9.628   8.055
  553WAT     H1 1901   2.724   9.587   8.067
  553WAT     H2 1902   2.853   9.597   7.968
  554WAT      O 1903   6.316   9.017   3.445
  554WAT     H1 1904   6.302   8.948   3.516
  554WAT     H2 1905   6.400   8.996   3.395
  555WAT      O 1906   6.642   7.565   6.936
  555WAT     H1 1907   6.629   7.471   6.905
  555WAT     H2 1908   6.681   7.563   7.028
  556WAT      O 1909   3.150   9.743   7.491
  556WAT     H1 1910   3.055   9.724   7.515
  556WAT     H2 1911   3.189   9.665   7.443
  557WAT      O 1912   6.719   0.997   8.885
  557WAT     H1 1913   6.658   0.944   8.826
  557WAT     H2 1914   6.683   0.997   8.978
  558WAT      O 1915   4.509   0.614   9.720
  558WAT     H1 1916   4.418   0.622   9.679
  558WAT     H2 1917   4.557   0.536   9.680
  559WAT      O 1918   7.442   1.773   2.592
  559WAT     H1 1919   7.538   1.794   2.612
  559WAT     H2 1920   7.424   1.677   2.616
  560WAT      O 1921   7.754   5.352   3.060
  560WAT     H1 1922   7.732   5.425   3.125
  560WAT     H2 1923   7.673   5.295   3.045
  561WAT      O 1924   7.259   0.831   7.277
  561WAT     H1 1925   7.175   0.842   7.329
  561WAT     H2 1926   7.336   0.815   7.340
  562WAT      O 1927   5.303   9.728   6.247
  562WAT     H1 1928   5.400   9.727   6.272
  562WAT     H2 1929   5.251   9.673   6.313
  563WAT      O 1930   4.884   6.486   5.117
  563WAT     H1 1931   4.907   6.393   5.146
  563WAT     H2 1932   4.933   6.552   5.175
  564WAT      O 1933   5.790   3.106   0.835
  564WAT     H1 1934   5.722   3.179   0.828
  564WAT     H2 1935   5.828   3.087   0.744
  565WAT      O 1936   6.036   8.097   3.145
  565WAT     H1 1937   6.063   8.142   3.059
  565WAT     H2 1938   6.051   7.999   3.136
  566WAT      O 1939   8.387   3.588   0.769
  566WAT     H1 1940   8.432   3.654   0.829
  566WAT     H2 1941   8.439   3.579   0.684
  567WAT      O 1942   3.417   2.378   8.683
  567WAT     H1 1943   3.373   2.415   8.601
  567WAT     H2 1944   3.484   2.443   8.717
  568WAT      O 1945   0.841   3.575   0.668
  568WAT     H1 1946   0.788   3.518   0.605
  568WAT     H2 1947   0.807   3.562   0.761
  569WAT      O 1948   3.192   8.801   2.247
  569WAT     H1 1949   3.250   8.726   2.217
  569WAT     H2 1950   3.099   8.787   2.213
  570WAT      O 1951   8.347   5.073   1.177
  570WAT     H1 1952   8.445   5.054   1.184
  570WAT     H2 1953   8.330   5.136   1.101
  571WAT      O 1954   8.614   3.161   2.800
  571WAT     H1 1955   8.599   3.105   2.718
  571WAT     H2 1956   8.543   3.141   2.868
  572WAT      O 1957   2.679   6.381   1.943
  572WAT     H1 1958   2.712   6.401   2.035
  572WAT     H2 1959   2.697   6.285   1.921
  573WAT      O 1960   3.310   9.156   8.855
  573WAT     H1 1961   3.254   9.230   8.817
  573WAT     H2 1962   3.251   9.078   8.876
  574WAT      O 1963   3.797   7.750   7.043
  574WAT     H1 1964   3.789   7.651   7.033
  574WAT     H2 1965   3.850   7.771   7.125
  575WAT      O 1966   2.706   3.503   3.598
  575WAT     H1 1967   2.805   3.512   3.598
  575WAT     H2 1968   2.668   3.547   3.516
  576WAT      O 1969   9.192   0.417   4.214
  576WAT     H1 1970   9.252   0.350   4.169
  576WAT     H2 1971   9.106   0.424   4.163
  577WAT      O 1972   9.073   0.757   9.339
  577WAT     H1 1973   9.005   0.694   9.377
  577WAT     H2 1974   9.067   0.754   9.239
  578WAT      O 1975   7.020   9.267   9.748
  578WAT     H1 1976   7.008   9.352   9.696
  578WAT     H2 1977   7.082   9.206   9.699
  579WAT      O 1978   0.945   4.340   2.779
  579WAT     H1 1979   0.954   4.337   2.879
  579WAT     H2 1980   0.997   4.418   2.744
  580WAT      O 1981   5.267   1.553   8.733
  580WAT     H1 1982   5.328   1.487   8.778
  580WAT     H2 1983   5.315   1.597   8.657
  581WAT      O 1984   8.880   8.551   0.788
  581WAT     H1 1985   8.891   8.644   0.823
  581WAT     H2 1986   8.862   8.554   0.690
  582WAT      O 1987   4.851   1.421   6.399
  582WAT     H1 1988   4.777   1.488   6.403
  582WAT     H2 1989   4.884   1.402   6.492
  583WAT      O 1990   1.807   8.069   8.671
  583WAT     H1 1991   1.885   8.090   8.613
  583WAT     H2 1992   1.758   8.154   8.693
  584WAT      O 1993   0.029   3.235   9.461
  584WAT     H1 1994   0.021   3.178   9.379
  584WAT     H2 1995   0.086   3.187   9.529
  585WAT      O 1996   1.799   7.219   1.946
  585WAT     H1 1997   1.807   7.137   2.002
  585WAT     H2 1998   1.788   7.299   2.004
  586WAT      O 1999   1.133   3.457   3.166
  586WAT     H1 2000   1.055   3.453   3.229
  586WAT     H2 2001   1.116   3.395   3.089
  587WAT      O 2002   9.609   4.666   3.556
  587WAT     H1 2003   9.571   4.713   3.476
  587WAT     H2 2004   9.629   4.571   3.532
  588WAT      O 2005   3.391   8.270   4.651
  588WAT     H1 2006   3.375   8.353   4.597
  588WAT     H2 2007   3.480   8.275   4.695
  589WAT      O 2008   0.959   6.105   7.465
  589WAT     H1 2009   0.919   6.039   7.528
  589WAT     H2 2010   1.022   6.059   7.402
  590WAT      O 2011   5.451   5.151   0.356
  590WAT     H1 2012   5.493   5.133   0.445
  590WAT     H2 2013   5.352   5.151   0.366
  591WAT      O 2014   3.309   7.743   6.710
  591WAT     H1 2015   3.301   7.764   6.612
  591WAT     H2 2016   3.369   7.664   6.721
  592WAT      O 2017   9.748   4.230   2.837
  592WAT     H1 2018   9.825   4.167   2.830
  592WAT     H2 2019   9.712   4.229   2.930
  593WAT      O 2020   5.598   3.427   2.415
  593WAT     H1 2021   5.683   3.390   2.453
  593WAT     H2 2022   5.619   3.506   2.357
  594WAT      O 2023   8.865   3.818   3.098
  594WAT     H1 2024   8.945   3.869   3.068
  594WAT     H2 2025   8.888   3.763   3.178
  595WAT      O 2026   3.026   3.542   7.028
  595WAT     H1 2027   3.014   3.574   7.122
  595WAT     H2 2028   3.116   3.572   6.994
  596WAT      O 2029   7.335   8.087   6.036
  596WAT     H1 2030   7.243   8.048   6.030
  596WAT     H2 2031   7.356   8.110   6.131
  597WAT      O 2032   5.502   2.477   8.448
  597WAT     H1 2033   5.409   2.504   8.420
  597WAT     H2 2034   5.502   2.381   8.476
  598WAT      O 2035   8.991   5.588   9.133
  598WAT     H1 2036   9.010   5.649   9.057
  598WAT     H2 2037   8.906   5.539   9.116
  599WAT      O 2038   5.620   7.364   0.421
  599WAT     H1 2039   5.569   7.279   0.424
  599WAT     H2 2040   5.577   7.430   0.483
  600WAT      O 2041   5.665   7.055   4.981
  600WAT     H1 2042   5.668   7.119   5.058
  600WAT     H2 2043   5.699   7.100   4.899
  601WAT      O 2044   7.800   4.900   6.216
  601WAT     H1 2045   7.823   4.917   6.311
  601WAT     H2 2046   7.856   4.959   6.157
  602WAT      O 2047   3.201   2.430   6.823
  602WAT     H1 2048   3.176   2.397   6.914
  602WAT     H2 2049   3.266   2.367   6.781
  603WAT      O 2050   2.602   9.205   0.104
  603WAT     H1 2051   2.545   9.123   0.105
  603WAT     H2 2052   2.558   9.276   0.048
  604WAT      O 2053   8.851   9.053   8.637
  604WAT     H1 2054   8.919   8.987   8.607
  604WAT     H2 2055   8.768   9.044   8.583
  605WAT      O 2056   2.021   3.957   0.599
  605WAT     H1 2057   1.978   4.002   0.677
  605WAT     H2 2058   1.956   3.952   0.524
  606WAT      O 2059   8.434   8.104   5.081
  606WAT     H1 2060   8.418   8.086   5.179
  606WAT     H2 2061   8.531   8.125   5.067
  607WAT      O 2062   3.699   5.372   8.730
  607WAT     H1 2063   3.795   5.380   8.757
  607WAT     H2 2064   3.674   5.275   8.726
  608WAT      O 2065   6.903   8.802   8.667
  608WAT     H1 2066   6.841   8.870   8.706
  608WAT     H2 2067   6.998   8.833   8.679
  609WAT      O 2068   4.981   0.017   4.192
  609WAT     H1 2069   5.052   0.085   4.206
  609WAT     H2 2070   5.023  -0.073   4.180
  610WAT      O 2071   8.697   6.110   5.684
  610WAT     H1 2072   8.700   6.210   5.684
  610WAT     H2 2073   8.706   6.076   5.777
  611WAT      O 2074   5.409   3.129   8.131
  611WAT     H1 2075   5.459   3.093   8.209
  611WAT     H2 2076   5.379   3.054   8.072
  612WAT      O 2077   6.840   6.993   9.830
  612WAT     H1 2078   6.830   6.894   9.816
  612WAT     H2 2079   6.763   7.040   9.787
  613WAT      O 2080   7.152   8.916   3.350
  613WAT     H1 2081   7.226   8.863   3.309
  613WAT     H2 2082   7.087   8.943   3.278
  614WAT      O 2083   0.064   4.973   1.744
  614WAT     H1 2084   0.028   4.885   1.773
  614WAT     H2 2085   0.159   4.983   1.773
  615WAT      O 2086   8.413   3.283   7.066
  615WAT     H1 2087   8.394   3.381   7.068
  615WAT     H2 2088   8.327   3.232   7.068
  616WAT      O 2089   9.752   7.216   6.124
  616WAT     H1 2090   9.844   7.191   6.096
  616WAT     H2 2091   9.748   7.314   6.141
  617WAT      O 2092   2.927   4.343   6.225
  617WAT     H1 2093   2.929   4.245   6.246
  617WAT     H2 2094   2.837   4.367   6.187
  618WAT      O 2095   0.191   3.387   5.885
  618WAT     H1 2096   0.242   3.301   5.894
  618WAT     H2 2097   0.254   3.464   5.899
  619WAT      O 2098   1.913   0.626   5.473
  619WAT     H1 2099   1.929   0.569   5.554
  619WAT     H2 2100   1.831   0.594   5.426
  620WAT      O 2101   7.500   1.040   9.530
  620WAT     H1 2102   7.587   0.991   9.531
  620WAT     H2 2103   7.425   0.975   9.513
  621WAT      O 2104   9.407   7.836   5.706
  621WAT     H1 2105   9.430   7.933   5.712
  621WAT     H2 2106   9.448   7.797   5.623
  622WAT      O 2107   6.860   6.156   9.609
  622WAT     H1 2108   6.931   6.104   9.657
  622WAT     H2 2109   6.859   6.128   9.513
  623WAT      O 2110   3.188   2.059   5.622
  623WAT     H1 2111   3.143   1.986   5.571
  623WAT     H2 2112   3.200   2.139   5.562
  624WAT      O 2113   1.041   7.371   0.107
  624WAT     H1 2114   1.058   7.462   0.068
  624WAT     H2 2115   0.948   7.367   0.144
  625WAT      O 2116   5.613   9.812   3.241
  625WAT     H1 2117   5.652   9.904   3.238
  625WAT     H2 2118   5.669   9.754   3.301
  626WAT      O 2119   7.223   4.224   8.593
  626WAT     H1 2120   7.179   4.134   8.593
  626WAT     H2 2121   7.279   4.234   8.511
  627WAT      O 2122   2.900   8.822   6.390
  627WAT     H1 2123   2.821   8.883   6.386
  627WAT     H2 2124   2.954   8.843   6.471
  628WAT      O 2125   2.515   3.240   3.151
  628WAT     H1 2126   2.504   3.185   3.234
  628WAT     H2 2127   2.501   3.182   3.071
  629WAT      O 2128   8.913   3.192   5.491
  629WAT     H1 2129   8.938   3.105   5.447
  629WAT     H2 2130   8.825   3.182   5.537
  630WAT      O 2131   2.323   4.801   2.181
  630WAT     H1 2132   2.294   4.777   2.274
  630WAT     H2 2133   2.243   4.800   2.120
  631WAT      O 2134   2.091   3.093   8.997
  631WAT     H1 2135   2.088   3.035   8.915
  631WAT     H2 2136   2.175   3.146   8.997
  632WAT      O 2137   1.297   4.279   2.521
  632WAT     H1 2138   1.241   4.246   2.597
  632WAT     H2 2139   1.258   4.246   2.435
  633WAT      O 2140   7.521   1.291   1.546
  633WAT     H1 2141   7.595   1.281   1.480
  633WAT     H2 2142   7.461   1.211   1.541
  634WAT      O 2143   8.215   7.594   7.109
  634WAT     H1 2144   8.249   7.508   7.071
  634WAT     H2 2145   8.292   7.648   7.143
  635WAT      O 2146   1.268   1.366   5.475
  635WAT     H1 2147   1.279   1.377   5.574
  635WAT     H2 2148   1.342   1.310   5.439
  636WAT      O 2149   7.295   6.287   9.335
  636WAT     H1 2150   7.366   6.345   9.375
  636WAT     H2 2151   7.240   6.340   9.271
  637WAT      O 2152   0.334   9.411   1.146
  637WAT     H1 2153   0.265   9.392   1.077
  637WAT     H2 2154   0.408   9.465   1.106
  638WAT      O 2155   1.415   8.590   9.134
  638WAT     H1 2156   1.325   8.581   9.177
  638WAT     H2 2157   1.482   8.538   9.186
  639WAT      O 2158   7.643   7.823   8.210
  639WAT     H1 2159   7.655   7.917   8.177
  639WAT     H2 2160   7.721   7.768   8.183
  640WAT      O 2161   6.840   4.819   2.162
  640WAT     H1 2162   6.872   4.762   2.237
  640WAT     H2 2163   6.902   4.897   2.151
  641WAT      O 2164   5.808   2.793   5.293
  641WAT     H1 2165   5.830   2.878   5.247
  641WAT     H2 2166   5.758   2.733   5.230
  642WAT      O 2167   8.875   6.709   5.975
  642WAT     H1 2168   8.807   6.778   6.002
  642WAT     H2 2169   8.860   6.625   6.028
  643WAT      O 2170   8.451   4.638   9.428
  643WAT     H1 2171   8.447   4.551   9.379
  643WAT     H2 2172   8.421   4.625   9.523
  644WAT      O 2173   0.762   1.522   5.256
  644WAT     H1 2174   0.672   1.479   5.253
  644WAT     H2 2175   0.830   1.454   5.284
  645WAT      O 2176   1.722   6.067   5.223
  645WAT     H1 2177   1.815   6.033   5.212
  645WAT     H2 2178   1.657   5.999   5.187
  646WAT      O 2179   8.422   1.046   0.966
  646WAT     H1 2180   8.353   1.043   0.894
  646WAT     H2 2181   8.505   0.999   0.934
  647WAT      O 2182   9.779   3.854   4.378
  647WAT     H1 2183   9.734   3.853   4.467
  647WAT     H2 2184   9.845   3.929   4.375
  648WAT      O 2185   9.579   1.871   6.494
  648WAT     H1 2186   9.540   1.785   6.461
  648WAT     H2 2187   9.665   1.851   6.542
  649WAT      O 2188   8.908   7.265   8.963
  649WAT     H1 2189   8.850   7.264   8.881
  649WAT     H2 2190   8.922   7.171   8.994
  650WAT      O 2191   5.398   6.759   7.538
  650WAT     H1 2192   5.465   6.776   7.610
  650WAT     H2 2193   5.307   6.781   7.571
  651WAT      O 2194   0.171   2.404   1.917
  651WAT     H1 2195   0.149   2.307   1.902
  651WAT     H2 2196   0.262   2.411   1.956
  652WAT      O 2197   9.353   3.798   8.614
  652WAT     H1 2198   9.257   3.774   8.629
  652WAT     H2 2199   9.411   3.728   8.655
  653WAT      O 2200   5.066   0.709   6.057
  653WAT     H1 2201   4.968   0.696   6.074
  653WAT     H2 2202   5.087   0.807   6.054
  654WAT      O 2203   0.449   8.440   6.057
  654WAT     H1 2204   0.431   8.377   5.982
  654WAT     H2 2205   0.444   8.534   6.024
  655WAT      O 2206   7.632   1.682   0.607
  655WAT     H1 2207   7.709   1.688   0.670
  655WAT     H2 2208   7.600   1.774   0.586
  656WAT      O 2209   8.678   7.299   0.034
  656WAT     H1 2210   8.640   7.208   0.018
  656WAT     H2 2211   8.747   7.293   0.107
  657WAT      O 2212   6.247   0.409   7.989
  657WAT     H1 2213   6.321   0.402   8.055
  657WAT     H2 2214   6.162   0.377   8.032
  658WAT      O 2215   1.984   0.707   1.627
  658WAT     H1 2216   1.921   0.783   1.644
  658WAT     H2 2217   2.065   0.742   1.579
  659WAT      O 2218   9.455   1.636   6.125
  659WAT     H1 2219   9.512   1.658   6.045
  659WAT     H2 2220   9.507   1.651   6.209
  660WAT      O 2221   9.791   1.239   4.817
  660WAT     H1 2222   9.733   1.162   4.846
  660WAT     H2 2223   9.837   1.215   4.732
  661WAT      O 2224   1.466   2.596   9.266
  661WAT     H1 2225   1.405   2.615   9.344
  661WAT     H2 2226   1.411   2.584   9.183
  662WAT      O 2227   8.034   4.597   6.747
  662WAT     H1 2228   8.057   4.679   6.800
  662WAT     H2 2229   7.994   4.529   6.808
  663WAT      O 2230   9.084   6.682   6.408
  663WAT     H1 2231   9.007   6.619   6.398
  663WAT     H2 2232   9.056   6.774   6.378
  664WAT      O 2233   4.223   1.303   8.541
  664WAT     H1 2234   4.213   1.204   8.538
  664WAT     H2 2235   4.251   1.337   8.451
  665WAT      O 2236   4.618   6.220   8.381
  665WAT     H1 2237   4.670   6.135   8.393
  665WAT     H2 2238   4.531   6.213   8.430
  666WAT      O 2239   8.133   1.351   3.708
  666WAT     H1 2240   8.078   1.378   3.786
  666WAT     H2 2241   8.140   1.252   3.704
  667WAT      O 2242   9.508   3.632   9.623
  667WAT     H1 2243   9.573   3.676   9.684
  667WAT     H2 2244   9.505   3.534   9.641
  668WAT      O 2245   6.339   9.701   3.945
  668WAT     H1 2246   6.355   9.622   4.004
  668WAT     H2 2247   6.425   9.749   3.928
  669WAT      O 2248   9.239   1.828   5.915
  669WAT     H1 2249   9.186   1.912   5.901
  669WAT     H2 2250   9.181   1.759   5.957
  670WAT      O 2251   1.658   5.168   7.950
  670WAT     H1 2252   1.735   5.174   7.887
  670WAT     H2 2253   1.664   5.084   8.003
  671WAT      O 2254   6.466   3.561   9.149
  671WAT     H1 2255   6.412   3.631   9.102
  671WAT     H2 2256   6.550   3.602   9.184
  672WAT      O 2257   7.480   5.946   8.528
  672WAT     H1 2258   7.432   5.972   8.444
  672WAT     H2 2259   7.431   5.984   8.607
  673WAT      O 2260   7.941   1.564   4.410
  673WAT     H1 2261   7.915   1.521   4.497
  673WAT     H2 2262   7.860   1.572   4.352
  674WAT      O 2263   6.371   3.155   6.557
  674WAT     H1 2264   6.397   3.103   6.638
  674WAT     H2 2265   6.450   3.165   6.496
  675WAT      O 2266   4.545   0.355   3.654
  675WAT     H1 2267   4.475   0.323   3.591
  675WAT     H2 2268   4.560   0.286   3.725
  676WAT      O 2269   7.581   0.466   5.770
  676WAT     H1 2270   7.633   0.433   5.692
  676WAT     H2 2271   7.635   0.453   5.854
  677WAT      O 2272   0.839   2.968   6.243
  677WAT     H1 2273   0.850   3.002   6.150
  677WAT     H2 2274   0.890   3.025   6.306
  678WAT      O 2275   4.150   6.608   8.348
  678WAT     H1 2276   4.232   6.621   8.404
  678WAT     H2 2277   4.169   6.544   8.274
  679WAT      O 2278   4.562   7.025   4.883
  679WAT     H1 2279   4.548   6.976   4.969
  679WAT     H2 2280   4.648   7.076   4.887
  680WAT      O 2281   7.563   7.789   4.469
  680WAT     H1 2282   7.543   7.834   4.382
  680WAT     H2 2283   7.657   7.810   4.497
  681WAT      O 2284   0.411   2.471   8.822
  681WAT     H1 2285   0.438   2.563   8.852
  681WAT     H2 2286   0.491   2.423   8.786
  682WAT      O 2287   7.451   3.299   3.366
  682WAT     H1 2288   7.536   3.256   3.395
  682WAT     H2 2289   7.420   3.258   3.281
  683WAT      O 2290   4.804   6.020   9.745
  683WAT     H1 2291   4.828   6.112   9.713
  683WAT     H2 2292   4.792   5.959   9.667
  684WAT      O 2293   5.690   0.337   8.094
  684WAT     H1 2294   5.608   0.327   8.151
  684WAT     H2 2295   5.708   0.252   8.045
  685WAT      O 2296   9.036   9.140   3.825
  685WAT     H1 2297   9.035   9.075   3.750
  685WAT     H2 2298   8.967   9.115   3.893
  686WAT      O 2299   6.700   5.604   2.674
  686WAT     H1 2300   6.674   5.509   2.695
  686WAT     H2 2301   6.618   5.661   2.669
  687WAT      O 2302   8.248   9.693   2.610
  687WAT     H1 2303   8.326   9.721   2.666
  687WAT     H2 2304   8.163   9.718   2.657
  688WAT      O 2305   0.108   1.983   8.559
  688WAT     H1 2306   0.185   2.001   8.497
  688WAT     H2 2307   0.142   1.939   8.643
  689WAT      O 2308   4.847   0.015   1.054
  689WAT     H1 2309   4.926   0.077   1.060
  689WAT     H2 2310   4.822  -0.015   1.146
  690WAT      O 2311   6.158   8.028   7.182
  690WAT     H1 2312   6.191   8.017   7.088
  690WAT     H2 2313   6.130   7.940   7.219
  691WAT      O 2314   4.273   2.888   0.559
  691WAT     H1 2315   4.225   2.819   0.504
  691WAT     H2 2316   4.307   2.845   0.643
  692WAT      O 2317   2.215   3.977   6.961
  692WAT     H1 2318   2.292   3.913   6.967
  692WAT     H2 2319   2.143   3.947   7.024
  693WAT      O 2320   7.836   9.235   4.107
  693WAT     H1 2321   7.891   9.179   4.169
  693WAT     H2 2322   7.760   9.276   4.158
  694WAT      O 2323   7.567   2.722   0.163
  694WAT     H1 2324   7.486   2.669   0.184
  694WAT     H2 2325   7.643   2.694   0.222
  695WAT      O 2326   0.759   3.168   6.629
  695WAT     H1 2327   0.752   3.224   6.547
  695WAT     H2 2328   0.743   3.224   6.710
  696WAT      O 2329   8.773   3.597   2.157
  696WAT     H1 2330   8.831   3.630   2.231
  696WAT     H2 2331   8.808   3.632   2.070
  697WAT      O 2332   7.264   5.457   0.874
  697WAT     H1 2333   7.363   5.440   0.868
  697WAT     H2 2334   7.214   5.375   0.849
  698WAT      O 2335   5.926   7.205   5.692
  698WAT     H1 2336   5.979   7.287   5.714
  698WAT     H2 2337   5.925   7.144   5.772
  699WAT      O 2338   2.106   5.230   8.370
  699WAT     H1 2339   2.059   5.312   8.402
  699WAT     H2 2340   2.093   5.156   8.437
  700WAT      O 2341   3.384   5.484   5.304
  700WAT     H1 2342   3.311   5.471   5.236
  700WAT     H2 2343   3.471   5.495   5.256
  701WAT      O 2344   8.458   4.510   1.556
  701WAT     H1 2345   8.430   4.426   1.602
  701WAT     H2 2346   8.381   4.574   1.551
  702WAT      O 2347   5.598   9.665   8.192
  702WAT     H1 2348   5.687   9.640   8.155
  702WAT     H2 2349   5.527   9.615   8.143
  703WAT      O 2350   6.746   3.892   9.841
  703WAT     H1 2351   6.696   3.811   9.810
  703WAT     H2 2352   6.738   3.901   9.940
  704WAT      O 2353   3.972   6.001   5.541
  704WAT     H1 2354   3.921   5.987   5.456
  704WAT     H2 2355   4.070   6.005   5.520
  705WAT      O 2356   6.846   6.446   7.449
  705WAT     H1 2357   6.835   6.452   7.548
  705WAT     H2 2358   6.771   6.391   7.411
  706WAT      O 2359   9.367   7.686   0.381
  706WAT     H1 2360   9.288   7.634   0.346
  706WAT     H2 2361   9.383   7.661   0.476
  707WAT      O 2362   1.943   4.608   6.967
  707WAT     H1 2363   1.867   4.638   7.025
  707WAT     H2 2364   2.020   4.580   7.024
  708WAT      O 2365   9.428   1.507   9.444
  708WAT     H1 2366   9.471   1.598   9.440
  708WAT     H2 2367   9.378   1.498   9.531
  709WAT      O 2368   7.055   1.807   9.738
  709WAT     H1 2369   7.134   1.868   9.747
  709WAT     H2 2370   7.008   1.825   9.652
  710WAT      O 2371   6.412   8.488   2.848
  710WAT     H1 2372   6.393   8.508   2.751
  710WAT     H2 2373   6.384   8.395   2.869
  711WAT      O 2374   7.055   3.513   7.201
  711WAT     H1 2375   7.085   3.418   7.209
  711WAT     H2 2376   7.101   3.556   7.124
  712WAT      O 2377   6.270   3.212   7.898
  712WAT     H1 2378   6.344   3.255   7.845
  712WAT     H2 2379   6.198   3.280   7.916
  713WAT      O 2380   5.877   9.075   2.924
  713WAT     H1 2381   5.964   9.049   2.883
  713WAT     H2 2382   5.885   9.077   3.023
  714WAT      O 2383   9.144   3.914   1.676
  714WAT     H1 2384   9.198   3.898   1.594
  714WAT     H2 2385   9.156   3.838   1.740
  715WAT      O 2386   0.201   0.609   8.530
  715WAT     H1 2387   0.116   0.649   8.496
  715WAT     H2 2388   0.262   0.681   8.564
  716WAT      O 2389   2.667   8.868   7.756
  716WAT     H1 2390   2.721   8.949   7.736
  716WAT     H2 2391   2.691   8.795   7.692
  717WAT      O 2392   3.174   8.754   7.079
  717WAT     H1 2393   3.229   8.781   7.158
  717WAT     H2 2394   3.187   8.656   7.062
  718WAT      O 2395   2.341   3.317   6.695
  718WAT     H1 2396   2.261   3.270   6.657
  718WAT     H2 2397   2.392   3.254   6.753
  719WAT      O 2398   5.536   2.279   4.402
  719WAT     H1 2399   5.549   2.223   4.484
  719WAT     H2 2400   5.442   2.311   4.398
  720WAT      O 2401   5.412   3.950   1.280
  720WAT     H1 2402   5.390   3.857   1.308
  720WAT     H2 2403   5.496   3.980   1.325
  721WAT      O 2404   4.891   6.599   3.061
  721WAT     H1 2405   4.868   6.551   3.146
  721WAT     H2 2406   4.990   6.597   3.047
  722WAT      O 2407   4.070   3.943   7.144
  722WAT     H1 2408   4.017   3.928   7.061
  722WAT     H2 2409   4.165   3.960   7.121
  723WAT      O 2410   7.853   8.121   4.915
  723WAT     H1 2411   7.800   8.166   4.987
  723WAT     H2 2412   7.795   8.105   4.836
  724WAT      O 2413   0.735   1.085   7.744
  724WAT     H1 2414   0.680   1.094   7.827
  724WAT     H2 2415   0.676   1.093   7.664
  725WAT      O 2416   3.119   4.425   2.284
  725WAT     H1 2417   3.191   4.484   2.319
  725WAT     H2 2418   3.090   4.361   2.355
  726WAT      O 2419   8.797   2.043   7.965
  726WAT     H1 2420   8.863   2.072   8.035
  726WAT     H2 2421   8.717   2.003   8.010
  727WAT      O 2422   3.691   5.829   6.682
  727WAT     H1 2423   3.662   5.882   6.762
  727WAT     H2 2424   3.691   5.887   6.601
  728WAT      O 2425   3.396   1.603   1.629
  728WAT     H1 2426   3.373   1.699   1.639
  728WAT     H2 2427   3.365   1.571   1.539
  729WAT      O 2428   3.993   4.854   5.788
  729WAT     H1 2429   3.959   4.942   5.822
  729WAT     H2 2430   3.916   4.798   5.759
  730WAT      O 2431   6.479   4.656   6.622
  730WAT     H1 2432   6.496   4.559   6.639
  730WAT     H2 2433   6.491   4.707   6.707
  731WAT      O 2434   3.678   0.654   5.665
  731WAT     H1 2435   3.662   0.620   5.572
  731WAT     H2 2436   3.680   0.577   5.728
  732WAT      O 2437   3.607   3.725   7.573
  732WAT     H1 2438   3.567   3.816   7.586
  732WAT     H2 2439   3.706   3.730   7.588
  733WAT      O 2440   1.467   7.542   7.328
  733WAT     H1 2441   1.474   7.446   7.354
  733WAT     H2 2442   1.392   7.554   7.263
  734WAT      O 2443   8.420   8.046   9.636
  734WAT     H1 2444   8.444   8.133   9.679
  734WAT     H2 2445   8.419   7.974   9.705
  735WAT      O 2446   3.911   1.741   6.981
  735WAT     H1 2447   3.962   1.760   7.065
  735WAT     H2 2448   3.956   1.669   6.929
  736WAT      O 2449   7.533   7.479   0.081
  736WAT     H1 2450   7.624   7.517   0.099
  736WAT     H2 2451   7.489   7.455   0.168
  737WAT      O 2452   2.575   8.259   6.364
  737WAT     H1 2453   2.477   8.278   6.352
  737WAT     H2 2454   2.589   8.214   6.452
  738WAT      O 2455   1.862   5.231   4.965
  738WAT     H1 2456   1.924   5.214   4.888
  738WAT     H2 2457   1.806   5.150   4.981
  739WAT      O 2458   1.914   1.047   9.273
  739WAT     H1 2459   1.869   0.959   9.286
  739WAT     H2 2460   1.910   1.073   9.177
  740WAT      O 2461   8.771   4.655   4.247
  740WAT     H1 2462   8.799   4.646   4.152
  740WAT     H2 2463   8.742   4.566   4.282
  741WAT      O 2464   9.058   8.342   0.853
  741WAT     H1 2465   9.010   8.277   0.913
  741WAT     H2 2466   8.999   8.422   0.838
  742WAT      O 2467   8.089   3.424   9.692
  742WAT     H1 2468   8.061   3.417   9.788
  742WAT     H2 2469   8.071   3.516   9.658
  743WAT      O 2470   2.769   2.825   3.578
  743WAT     H1 2471   2.860   2.788   3.559
  743WAT     H2 2472   2.764   2.918   3.540
  744WAT      O 2473   9.386   8.155   4.434
  744WAT     H1 2474   9.442   8.137   4.353
  744WAT     H2 2475   9.289   8.152   4.410
  745WAT      O 2476   2.436   8.636   4.572
  745WAT     H1 2477   2.437   8.554   4.629
  745WAT     H2 2478   2.511   8.631   4.505
  746WAT      O 2479   7.901   4.390   6.904
  746WAT     H1 2480   7.848   4.354   6.982
  746WAT     H2 2481   7.863   4.355   6.819
  747WAT      O 2482   5.446   1.308   7.300
  747WAT     H1 2483   5.411   1.276   7.212
  747WAT     H2 2484   5.528   1.256   7.324
  748WAT      O 2485   8.373   1.812   6.718
  748WAT     H1 2486   8.311   1.820   6.641
  748WAT     H2 2487   8.362   1.891   6.778
  749WAT      O 2488   2.429   3.339   1.725
  749WAT     H1 2489   2.459   3.433   1.706
  749WAT     H2 2490   2.329   3.338   1.735
  750WAT      O 2491   9.045   7.331   0.165
  750WAT     H1 2492   9.115   7.325   0.235
  750WAT     H2 2493   8.977   7.399   0.191
  751WAT      O 2494   4.267   3.550   4.702
  751WAT     H1 2495   4.182   3.583   4.744
  751WAT     H2 2496   4.312   3.625   4.654
  752WAT      O 2497   3.672   4.331   9.044
  752WAT     H1 2498   3.601   4.369   8.983
  752WAT     H2 2499   3.678   4.388   9.126
  753WAT      O 2500   1.826   8.251   3.154
  753WAT     H1 2501   1.794   8.345   3.168
  753WAT     H2 2502   1.748   8.188   3.157
  754WAT      O 2503   5.572   7.851   4.114
  754WAT     H1 2504   5.561   7.831   4.017
  754WAT     H2 2505   5.513   7.927   4.140
  755WAT      O 2506   2.190   6.155   9.399
  755WAT     H1 2507   2.279   6.155   9.445
  755WAT     H2 2508   2.196   6.213   9.317
  756WAT      O 2509   0.911   0.048   9.630
  756WAT     H1 2510   0.813   0.068   9.629
  756WAT     H2 2511   0.946   0.050   9.536
  757WAT      O 2512   3.315   8.472   0.351
  757WAT     H1 2513   3.287   8.440   0.441
  757WAT     H2 2514   3.334   8.394   0.292
  758WAT      O 2515   7.303   0.666   8.860
  758WAT     H1 2516   7.209   0.633   8.858
  758WAT     H2 2517   7.319   0.723   8.779
  759WAT      O 2518   1.236   2.526   6.497
  759WAT     H1 2519   1.250   2.592   6.571
  759WAT     H2 2520   1.324   2.508   6.452
  760WAT      O 2521   9.880   6.525   4.947
  760WAT     H1 2522   9.841   6.528   4.856
  760WAT     H2 2523   9.973   6.563   4.945
  761WAT      O 2524   7.438   0.071   5.026
  761WAT     H1 2525   7.405   0.165   5.019
  761WAT     H2 2526   7.497   0.050   4.948
  762WAT      O 2527   7.387   2.448   9.767
  762WAT     H1 2528   7.306   2.505   9.783
  762WAT     H2 2529   7.373   2.357   9.807
  763WAT      O 2530   2.585   3.819   0.597
  763WAT     H1 2531   2.501   3.773   0.568
  763WAT     H2 2532   2.570   3.917   0.601
  764WAT      O 2533   2.315   6.925   7.660
  764WAT     H1 2534   2.253   6.878   7.723
  764WAT     H2 2535   2.270   6.938   7.572
  765WAT      O 2536   8.191   6.806   2.714
  765WAT     H1 2537   8.242   6.721   2.702
  765WAT     H2 2538   8.151   6.808   2.806
  766WAT      O 2539   2.199   8.628   0.069
  766WAT     H1 2540   2.254   8.621  -0.014
  766WAT     H2 2541   2.203   8.542   0.120
  767WAT      O 2542   3.834   9.219   1.581
  767WAT     H1 2543   3.834   9.279   1.661
  767WAT     H2 2544   3.884   9.263   1.506
  768WAT      O 2545   8.731   1.868   5.171
  768WAT     H1 2546   8.740   1.773   5.201
  768WAT     H2 2547   8.808   1.890   5.111
  769WAT      O 2548   7.612   1.775   3.090
  769WAT     H1 2549   7.586   1.682   3.063
  769WAT     H2 2550   7.533   1.836   3.079
  770WAT      O 2551   7.816   3.903   2.048
  770WAT     H1 2552   7.766   3.868   2.127
  770WAT     H2 2553   7.892   3.841   2.027
  771WAT      O 2554   4.426   9.707   6.480
  771WAT     H1 2555   4.337   9.752   6.477
  771WAT     H2 2556   4.421   9.618   6.433
  772WAT      O 2557   9.417   0.393   1.957
  772WAT     H1 2558   9.471   0.472   1.929
  772WAT     H2 2559   9.320   0.412   1.940
  773WAT      O 2560   8.042   1.337   5.435
  773WAT     H1 2561   8.029   1.361   5.531
  773WAT     H2 2562   7.977   1.387   5.379
  774WAT      O 2563   2.730   4.681   8.317
  774WAT     H1 2564   2.830   4.674   8.309
  774WAT     H2 2565   2.702   4.653   8.409
  775WAT      O 2566   8.966   2.630   3.050
  775WAT     H1 2567   8.875   2.664   3.075
  775WAT     H2 2568   8.978   2.635   2.951
  776WAT      O 2569   8.283   4.066   3.028
  776WAT     H1 2570   8.247   4.000   2.963
  776WAT     H2 2571   8.371   4.101   2.996
  777WAT      O 2572   8.224   7.501   8.260
  777WAT     H1 2573   8.289   7.432   8.291
  777WAT     H2 2574   8.160   7.523   8.333
  778WAT      O 2575   8.836   3.377   4.072
  778WAT     H1 2576   8.875   3.464   4.101
  778WAT     H2 2577   8.862   3.305   4.137
  779WAT      O 2578   2.257   4.903   0.399
  779WAT     H1 2579   2.160   4.930   0.397
  779WAT     H2 2580   2.263   4.805   0.420
  780WAT      O 2581   1.295   7.789   4.632
  780WAT     H1 2582   1.217   7.825   4.683
  780WAT     H2 2583   1.276   7.793   4.534
  781WAT      O 2584   0.195   5.271   3.790
  781WAT     H1 2585   0.281   5.313   3.761
  781WAT     H2 2586   0.124   5.290   3.723
  782WAT      O 2587   9.238   3.695   5.057
  782WAT     H1 2588   9.143   3.674   5.031
  782WAT     H2 2589   9.245   3.695   5.157
  783WAT      O 2590   0.944   3.168   4.794
  783WAT     H1 2591   0.962   3.254   4.842
  783WAT     H2 2592   1.027   3.136   4.750
  784WAT      O 2593   9.427   5.559   2.097
  784WAT     H1 2594   9.484   5.635   2.067
  784WAT     H2 2595   9.347   5.551   2.037
  785WAT      O 2596   2.363   6.198   0.969
  785WAT     H1 2597   2.285   6.261   0.967
  785WAT     H2 2598   2.446   6.247   0.940
  786WAT      O 2599   3.415   0.593   2.994
  786WAT     H1 2600   3.350   0.542   3.050
  786WAT     H2 2601   3.373   0.615   2.906
  787WAT      O 2602   6.145   3.361   0.009
  787WAT     H1 2603   6.106   3.269   0.021
  787WAT     H2 2604   6.073   3.425  -0.016
  788WAT      O 2605   6.525   3.846   9.503
  788WAT     H1 2606   6.483   3.881   9.419
  788WAT     H2 2607   6.618   3.882   9.510
  789WAT      O 2608   9.852   7.380   1.743
  789WAT     H1 2609   9.795   7.462   1.741
  789WAT     H2 2610   9.795   7.301   1.767
  790WAT      O 2611   8.654   0.646   7.623
  790WAT     H1 2612   8.581   0.644   7.691
  790WAT     H2 2613   8.632   0.584   7.548
  791WAT      O 2614   3.793   6.472   1.730
  791WAT     H1 2615   3.775   6.409   1.806
  791WAT     H2 2616   3.722   6.462   1.661
  792WAT      O 2617   0.679   2.698   3.974
  792WAT     H1 2618   0.698   2.796   3.960
  792WAT     H2 2619   0.626   2.687   4.058
  793WAT      O 2620   8.103   8.060   1.742
  793WAT     H1 2621   8.079   8.150   1.778
  793WAT     H2 2622   8.183   8.068   1.683
  794WAT      O 2623   5.158   9.560   0.085
  794WAT     H1 2624   5.077   9.505   0.108
  794WAT     H2 2625   5.188   9.537  -0.007
  795WAT      O 2626   8.044   5.923   3.275
  795WAT     H1 2627   8.023   5.829   3.248
  795WAT     H2 2628   7.972   5.984   3.241
  796WAT      O 2629   8.388   8.209   7.371
  796WAT     H1 2630   8.310   8.162   7.330
  796WAT     H2 2631   8.365   8.236   7.464
  797WAT      O 2632   3.543   2.984   4.935
  797WAT     H1 2633   3.642   2.977   4.937
  797WAT     H2 2634   3.507   2.930   4.859
  798WAT      O 2635   6.155   1.839   0.886
  798WAT     H1 2636   6.203   1.834   0.798
  798WAT     H2 2637   6.185   1.921   0.935
  799WAT      O 2638   1.665   5.368   8.347
  799WAT     H1 2639   1.661   5.417   8.260
  799WAT     H2 2640   1.684   5.271   8.331
  800WAT      O 2641   8.946   1.419   7.821
  800WAT     H1 2642   8.869   1.422   7.757
  800WAT     H2 2643   9.031   1.442   7.772
  801WAT      O 2644   0.705   2.581   4.281
  801WAT     H1 2645   0.694   2.510   4.350
  801WAT     H2 2646   0.802   2.600   4.266
  802WAT      O 2647   5.740   3.146   4.822
  802WAT     H1 2648   5.765   3.221   4.763
  802WAT     H2 2649   5.685   3.180   4.899
  803WAT      O 2650   5.676   2.078   6.094
  803WAT     H1 2651   5.656   1.981   6.079
  803WAT     H2 2652   5.770   2.097   6.067
  804WAT      O 2653   4.006   7.765   6.011
  804WAT     H1 2654   3.916   7.810   6.003
  804WAT     H2 2655   4.011   7.716   6.098
  805WAT      O 2656   0.250   7.239   6.908
  805WAT     H1 2657   0.222   7.167   6.971
  805WAT     H2 2658   0.174   7.265   6.849
  806WAT      O 2659   8.234   0.498   3.460
  806WAT     H1 2660   8.139   0.469   3.449
  806WAT     H2 2661   8.294   0.421   3.438
  807WAT      O 2662   5.215   7.033   1.421
  807WAT     H1 2663   5.240   7.006   1.328
  807WAT     H2 2664   5.203   7.132   1.424
  808WAT      O 2665   1.652   1.335   0.310
  808WAT     H1 2666   1.681   1.406   0.373
  808WAT     H2 2667   1.554   1.347   0.289
  809WAT      O 2668   5.568   8.037   1.111
  809WAT     H1 2669   5.517   7.951   1.117
  809WAT     H2 2670   5.617   8.039   1.024
  810WAT      O 2671   6.358   0.064   8.071
  810WAT     H1 2672   6.278   0.020   8.111
  810WAT     H2 2673   6.347   0.070   7.972
  811WAT      O 2674   6.561   8.599   2.287
  811WAT     H1 2675   6.584   8.614   2.191
  811WAT     H2 2676   6.591   8.678   2.341
  812WAT      O 2677   4.995   6.579   6.166
  812WAT     H1 2678   4.914   6.532   6.199
  812WAT     H2 2679   4.997   6.671   6.204
  813WAT      O 2680   0.727   5.641   0.982
  813WAT     H1 2681   0.653   5.707   0.965
  813WAT     H2 2682   0.758   5.604   0.894
  814WAT      O 2683   0.105   2.225   1.307
  814WAT     H1 2684   0.167   2.223   1.229
  814WAT     H2 2685   0.066   2.317   1.317
  815WAT      O 2686   0.277   9.825   2.140
  815WAT     H1 2687   0.245   9.751   2.082
  815WAT     H2 2688   0.375   9.814   2.158
  816WAT      O 2689   8.769   8.885   1.697
  816WAT     H1 2690   8.794   8.977   1.667
  816WAT     H2 2691   8.679   8.887   1.740
  817WAT      O 2692   9.443   1.183   2.184
  817WAT     H1 2693   9.539   1.192   2.209
  817WAT     H2 2694   9.393   1.264   2.214
  818WAT      O 2695   6.749   8.158   6.328
  818WAT     H1 2696   6.750   8.104   6.412
  818WAT     H2 2697   6.655   8.179   6.302
  819WAT      O 2698   3.940   3.157   7.878
  819WAT     H1 2699   3.960   3.062   7.899
  819WAT     H2 2700   3.851   3.182   7.917
  820WAT      O 2701   2.073   3.290   1.163
  820WAT     H1 2702   2.016   3.214   1.195
  820WAT     H2 2703   2.169   3.264   1.170
  821WAT      O 2704   4.209   5.086   3.786
  821WAT     H1 2705   4.215   5.075   3.886
  821WAT     H2 2706   4.292   5.048   3.744
  822WAT      O 2707   1.988   4.314   5.477
  822WAT     H1 2708   2.042   4.397   5.488
  822WAT     H2 2709   1.994   4.259   5.560
  823WAT      O 2710   1.040   3.738   0.269
  823WAT     H1 2711   1.093   3.820   0.293
  823WAT     H2 2712   0.948   3.745   0.307
  824WAT      O 2713   9.043   7.997   9.694
  824WAT     H1 2714   9.107   7.988   9.618
  824WAT     H2 2715   9.093   7.986   9.781
  825WAT      O 2716   3.815   0.343   8.451
  825WAT     H1 2717   3.745   0.402   8.411
  825WAT     H2 2718   3.904   0.389   8.445
  826WAT      O 2719   5.274   9.039   8.847
  826WAT     H1 2720   5.304   8.943   8.844
  826WAT     H2 2721   5.204   9.049   8.918
  827WAT      O 2722   0.533   1.598   6.296
  827WAT     H1 2723   0.490   1.510   6.318
  827WAT     H2 2724   0.612   1.612   6.356
  828WAT      O 2725   0.366   6.666   8.608
  828WAT     H1 2726   0.294   6.735   8.603
  828WAT     H2 2727   0.422   6.681   8.690
  829WAT      O 2728   7.881   7.733   8.150
  829WAT     H1 2729   7.909   7.760   8.058
  829WAT     H2 2730   7.863   7.634   8.151
  830WAT      O 2731   7.935   1.865   8.426
  830WAT     H1 2732   7.861   1.932   8.434
  830WAT     H2 2733   8.012   1.905   8.377
  831WAT      O 2734   8.159   8.608   0.479
  831WAT     H1 2735   8.196   8.599   0.571
  831WAT     H2 2736   8.130   8.702   0.464
  832WAT      O 2737   0.819   7.842   7.928
  832WAT     H1 2738   0.740   7.801   7.882
  832WAT     H2 2739   0.822   7.940   7.907
  833WAT      O 2740   7.040   3.487   9.186
  833WAT     H1 2741   7.119   3.541   9.213
  833WAT     H2 2742   7.020   3.502   9.089
  834WAT      O 2743   9.553   2.368   9.718
  834WAT     H1 2744   9.560   2.424   9.636
  834WAT     H2 2745   9.483   2.407   9.779
  835WAT      O 2746   0.030   9.441   7.327
  835WAT     H1 2747  -0.015   9.379   7.391
  835WAT     H2 2748   0.073   9.516   7.377
  836WAT      O 2749   0.832   1.355   6.636
  836WAT     H1 2750   0.818   1.323   6.542
  836WAT     H2 2751   0.926   1.387   6.647
  837WAT      O 2752   4.930   4.573   4.216
  837WAT     H1 2753   5.006   4.553   4.279
  837WAT     H2 2754   4.964   4.629   4.140
  838WAT      O 2755   1.470   2.958   6.315
  838WAT     H1 2756   1.440   2.897   6.241
  838WAT     H2 2757   1.567   2.942   6.334
  839WAT      O 2758   3.019   2.805   5.656
  839WAT     H1 2759   2.975   2.831   5.742
  839WAT     H2 2760   3.058   2.886   5.613
  840WAT      O 2761   9.284   5.220   8.462
  840WAT     H1 2762   9.343   5.210   8.542
  840WAT     H2 2763   9.257   5.129   8.429
  841WAT      O 2764   1.774   9.751   3.653
  841WAT     H1 2765   1.840   9.716   3.586
  841WAT     H2 2766   1.801   9.843   3.681
  842WAT      O 2767   8.993   9.189   4.322
  842WAT     H1 2768   8.981   9.110   4.263
  842WAT     H2 2769   9.070   9.244   4.291
  843WAT      O 2770   8.050   4.763   5.025
  843WAT     H1 2771   8.015   4.683   4.976
  843WAT     H2 2772   8.039   4.844   4.967
  844WAT      O 2773   0.032   2.303   0.558
  844WAT     H1 2774   0.063   2.225   0.612
  844WAT     H2 2775   0.107   2.369   0.549
  845WAT      O 2776   6.170   2.475   0.332
  845WAT     H1 2777   6.184   2.470   0.233
  845WAT     H2 2778   6.256   2.500   0.377
  846WAT      O 2779   9.090   8.119   5.462
  846WAT     H1 2780   9.100   8.160   5.553
  846WAT     H2 2781   9.173   8.067   5.441
  847WAT      O 2782   8.023   8.359   1.664
  847WAT     H1 2783   7.998   8.455   1.661
  847WAT     H2 2784   8.027   8.322   1.571
  848WAT      O 2785   9.566   2.205   5.900
  848WAT     H1 2786   9.626   2.238   5.973
  848WAT     H2 2787   9.593   2.247   5.813
  849WAT      O 2788   3.150   9.107   6.874
  849WAT     H1 2789   3.190   9.120   6.965
  849WAT     H2 2790   3.165   9.012   6.845
  850WAT      O 2791   9.273   7.565   5.577
  850WAT     H1 2792   9.250   7.478   5.534
  850WAT     H2 2793   9.199   7.593   5.638
  851WAT      O 2794   1.989   5.824   7.002
  851WAT     H1 2795   1.999   5.851   7.098
  851WAT     H2 2796   2.053   5.875   6.946
  852WAT      O 2797   8.729   5.893   7.129
  852WAT     H1 2798   8.651   5.954   7.113
  852WAT     H2 2799   8.697   5.799   7.138
  853WAT      O 2800   8.236   3.263   2.358
  853WAT     H1 2801   8.165   3.327   2.387
  853WAT     H2 2802   8.292   3.305   2.287
  854WAT      O 2803   7.891   9.046   0.894
  854WAT     H1 2804   7.883   9.099   0.978
  854WAT     H2 2805   7.987   9.045   0.865
  855WAT      O 2806   5.715   8.137   9.463
  855WAT     H1 2807   5.670   8.064   9.515
  855WAT     H2 2808   5.758   8.097   9.381
  856WAT      O 2809   4.398   0.512   2.151
  856WAT     H1 2810   4.445   0.530   2.064
  856WAT     H2 2811   4.460   0.530   2.227
  857WAT      O 2812   7.662   7.349   5.930
  857WAT     H1 2813   7.631   7.367   5.836
  857WAT     H2 2814   7.751   7.391   5.944
  858WAT      O 2815   5.026   1.334   5.461
  858WAT     H1 2816   5.007   1.241   5.429
  858WAT     H2 2817   4.950   1.394   5.436
  859WAT      O 2818   2.387   8.610   2.455
  859WAT     H1 2819   2.471   8.570   2.418
  859WAT     H2 2820   2.396   8.620   2.555
  860WAT      O 2821   3.375   9.779   2.460
  860WAT     H1 2822   3.369   9.878   2.479
  860WAT     H2 2823   3.324   9.729   2.530
  861WAT      O 2824   2.866   6.228   9.343
  861WAT     H1 2825   2.896   6.324   9.341
  861WAT     H2 2826   2.922   6.177   9.408
  862WAT      O 2827   0.115   3.556   8.852
  862WAT     H1 2828   0.160   3.633   8.898
  862WAT     H2 2829   0.158   3.539   8.764
  863WAT      O 2830   2.252   3.443   5.081
  863WAT     H1 2831   2.245   3.442   4.981
  863WAT     H2 2832   2.208   3.361   5.118
  864WAT      O 2833   5.749   2.962   4.584
  864WAT     H1 2834   5.750   2.994   4.679
  864WAT     H2 2835   5.790   3.031   4.525
  865WAT      O 2836   8.633   1.312   1.944
  865WAT     H1 2837   8.548   1.328   1.893
  865WAT     H2 2838   8.620   1.236   2.007
  866WAT      O 2839   8.686   2.904   6.052
  866WAT     H1 2840   8.618   2.941   5.989
  866WAT     H2 2841   8.753   2.975   6.073
  867WAT      O 2842   4.939   3.433   2.426
  867WAT     H1 2843   4.857   3.389   2.389
  867WAT     H2 2844   5.008   3.364   2.445
  868WAT      O 2845   3.714   2.089   1.321
  868WAT     H1 2846   3.777   2.165   1.332
  868WAT     H2 2847   3.763   2.010   1.284
  869WAT      O 2848   6.844   6.106   0.183
  869WAT     H1 2849   6.839   6.196   0.138
  869WAT     H2 2850   6.766   6.096   0.244
  870WAT      O 2851   2.153   3.449   8.335
  870WAT     H1 2852   2.180   3.471   8.429
  870WAT     H2 2853   2.201   3.508   8.271
  871WAT      O 2854   4.877   2.658   4.786
  871WAT     H1 2855   4.917   2.715   4.858
  871WAT     H2 2856   4.777   2.663   4.791
  872WAT      O 2857   1.661   0.417   5.099
  872WAT     H1 2858   1.578   0.441   5.050
  872WAT     H2 2859   1.656   0.321   5.127
  873WAT      O 2860   2.941   3.539   0.271
  873WAT     H1 2861   3.033   3.577   0.278
  873WAT     H2 2862   2.946   3.439   0.271
  874WAT      O 2863   2.318   3.272   9.821
  874WAT     H1 2864   2.389   3.202   9.831
  874WAT     H2 2865   2.228   3.229   9.833
  875WAT      O 2866   3.441   0.814   8.948
  875WAT     H1 2867   3.483   0.727   8.975
  875WAT     H2 2868   3.504   0.864   8.888
  876WAT      O 2869   8.334   6.923   0.773
  876WAT     H1 2870   8.358   6.869   0.855
  876WAT     H2 2871   8.413   6.925   0.711
  877WAT      O 2872   4.777   7.876   4.330
  877WAT     H1 2873   4.747   7.860   4.236
  877WAT     H2 2874   4.877   7.875   4.333
  878WAT      O 2875   4.207   2.148   7.054
  878WAT     H1 2876   4.131   2.094   7.018
  878WAT     H2 2877   4.171   2.224   7.109
  879WAT      O 2878   8.280   0.546   9.307
  879WAT     H1 2879   8.338   0.598   9.243
  879WAT     H2 2880   8.226   0.480   9.255
  880WAT      O 2881   0.716   9.626   7.318
  880WAT     H1 2882   0.622   9.626   7.285
  880WAT     H2 2883   0.717   9.641   7.417
  881WAT      O 2884   0.904   7.621   7.015
  881WAT     H1 2885   0.983   7.613   6.955
  881WAT     H2 2886   0.820   7.610   6.961
  882WAT      O 2887   3.615   2.992   6.045
  882WAT     H1 2888   3.582   2.948   5.962
  882WAT     H2 2889   3.562   3.075   6.063
  883WAT      O 2890   4.906   8.672   5.274
  883WAT     H1 2891   4.934   8.612   5.349
  883WAT     H2 2892   4.973   8.664   5.200
  884WAT      O 2893   4.729   8.337   1.738
  884WAT     H1 2894   4.808   8.313   1.795
  884WAT     H2 2895   4.658   8.267   1.749
  885WAT      O 2896   0.212   3.280   4.137
  885WAT     H1 2897   0.288   3.236   4.088
  885WAT     H2 2898   0.132   3.283   4.077
  886WAT      O 2899   1.874   4.873   5.527
  886WAT     H1 2900   1.946   4.943   5.530
  886WAT     H2 2901   1.897   4.805   5.457
  887WAT      O 2902   9.723   1.980   0.424
  887WAT     H1 2903   9.653   1.954   0.490
  887WAT     H2 2904   9.712   2.077   0.401
  888WAT      O 2905   0.577   3.290   8.815
  888WAT     H1 2906   0.574   3.386   8.841
  888WAT     H2 2907   0.508   3.239   8.867
  889WAT      O 2908   0.591   2.440   5.251
  889WAT     H1 2909   0.519   2.483   5.306
  889WAT     H2 2910   0.549   2.380   5.182
  890WAT      O 2911   5.908   1.971   5.526
  890WAT     H1 2912   5.991   2.004   5.572
  890WAT     H2 2913   5.868   1.896   5.579
  891WAT      O 2914   4.124   0.503   7.613
  891WAT     H1 2915   4.046   0.498   7.675
  891WAT     H2 2916   4.113   0.580   7.551
  892WAT      O 2917   2.441   8.858   9.713
  892WAT     H1 2918   2.388   8.896   9.789
  892WAT     H2 2919   2.534   8.838   9.745
  893WAT      O 2920   0.476   1.228   3.714
  893WAT     H1 2921   0.408   1.231   3.787
  893WAT     H2 2922   0.518   1.318   3.704
  894WAT      O 2923   6.381   2.733   7.363
  894WAT     H1 2924   6.419   2.702   7.276
  894WAT     H2 2925   6.367   2.655   7.423
  895WAT      O 2926   9.794   9.643   6.413
  895WAT     H1 2927   9.724   9.634   6.342
  895WAT     H2 2928   9.757   9.612   6.500
  896WAT      O 2929   3.329   6.514   5.325
  896WAT     H1 2930   3.329   6.465   5.238
  896WAT     H2 2931   3.250   6.486   5.379
  897WAT      O 2932   0.835   7.491   6.319
  897WAT     H1 2933   0.805   7.577   6.359
  897WAT     H2 2934   0.821   7.493   6.220
  898WAT      O 2935   8.314   6.066   9.233
  898WAT     H1 2936   8.399   6.116   9.217
  898WAT     H2 2937   8.304   5.995   9.163
  899WAT      O 2938   9.644   1.316   9.446
  899WAT     H1 2939   9.575   1.387   9.431
  899WAT     H2 2940   9.650   1.257   9.365
  900WAT      O 2941   4.371   9.224   5.216
  900WAT     H1 2942   4.470   9.208   5.215
  900WAT     H2 2943   4.336   9.207   5.308
  901WAT      O 2944   2.892   6.193   5.940
  901WAT     H1 2945   2.940   6.245   5.870
  901WAT     H2 2946   2.878   6.100   5.909
  902WAT      O 2947   9.760   1.919   1.320
  902WAT     H1 2948   9.745   1.964   1.232
  902WAT     H2 2949   9.677   1.927   1.376
  903WAT      O 2950   0.486   6.912   9.334
  903WAT     H1 2951   0.445   6.882   9.421
  903WAT     H2 2952   0.585   6.912   9.342
  904WAT      O 2953   2.487   5.058   6.523
  904WAT     H1 2954   2.435   5.095   6.600
  904WAT     H2 2955   2.457   5.102   6.438
  905WAT      O 2956   0.149   0.046   7.155
  905WAT     H1 2957   0.193   0.120   7.105
  905WAT     H2 2958   0.214  -0.029   7.167
  906WAT      O 2959   5.012   5.886   9.413
  906WAT     H1 2960   4.916   5.899   9.438
  906WAT     H2 2961   5.053   5.975   9.391
  907WAT      O 2962   0.349   4.087   3.498
  907WAT     H1 2963   0.290   4.074   3.578
  907WAT     H2 2964   0.366   4.000   3.454
  908WAT      O 2965   2.045   4.101   8.549
  908WAT     H1 2966   2.057   4.201   8.546
  908WAT     H2 2967   2.106   4.063   8.619
  909WAT      O 2968   0.812   6.198   2.883
  909WAT     H1 2969   0.800   6.255   2.964
  909WAT     H2 2970   0.814   6.102   2.909
  910WAT      O 2971   1.243   1.948   4.804
  910WAT     H1 2972   1.271   1.862   4.761
  910WAT     H2 2973   1.163   1.932   4.862
  911WAT      O 2974   3.137   6.339   2.450
  911WAT     H1 2975   3.065   6.408   2.439
  911WAT     H2 2976   3.203   6.370   2.518
  912WAT      O 2977   2.301   8.026   5.038
  912WAT     H1 2978   2.301   8.077   5.124
  912WAT     H2 2979   2.387   7.976   5.029
  913WAT      O 2980   8.108   1.546   8.318
  913WAT     H1 2981   8.159   1.632   8.311
  913WAT     H2 2982   8.035   1.557   8.387
  914WAT      O 2983   5.707   2.217   3.116
  914WAT     H1 2984   5.609   2.198   3.113
  914WAT     H2 2985   5.729   2.262   3.202
  915WAT      O 2986   0.377   6.061   4.915
  915WAT     H1 2987   0.366   6.047   4.816
  915WAT     H2 2988   0.467   6.029   4.943
  916WAT      O 2989   5.154   7.437   2.822
  916WAT     H1 2990   5.183   7.532   2.825
  916WAT     H2 2991   5.156   7.404   2.727
  917WAT      O 2992   8.797   8.128   3.910
  917WAT     H1 2993   8.845   8.146   3.996
  917WAT     H2 2994   8.855   8.072   3.850
  918WAT      O 2995   6.668   2.337   7.167
  918WAT     H1 2996   6.717   2.335   7.254
  918WAT     H2 2997   6.710   2.273   7.103
  919WAT      O 2998   2.020   0.806   8.346
  919WAT     H1 2999   2.101   0.757   8.377
  919WAT     H2 3000   2.030   0.827   8.249
  920WAT      O 3001   3.886   0.091   2.204
  920WAT     H1 3002   3.970   0.126   2.161
  920WAT     H2 3003   3.880  -0.007   2.190
  921WAT      O 3004   7.765   9.783   2.870
  921WAT     H1 3005   7.775   9.697   2.920
  921WAT     H2 3006   7.683   9.779   2.813
  922WAT      O 3007   5.578   5.458   0.431
  922WAT     H1 3008   5.504   5.441   0.496
  922WAT     H2 3009   5.632   5.537   0.461
  923WAT      O 3010   5.836   2.655   1.916
  923WAT     H1 3011   5.893   2.698   1.846
  923WAT     H2 3012   5.857   2.696   2.005
  924WAT      O 3013   0.235   1.710   4.599
  924WAT     H1 3014   0.143   1.704   4.638
  924WAT     H2 3015   0.265   1.806   4.601
  925WAT      O 3016   3.163   4.743   0.607
  925WAT     H1 3017   3.236   4.749   0.676
  925WAT     H2 3018   3.157   4.649   0.574
  926WAT      O 3019   1.812   4.005   8.628
  926WAT     H1 3020   1.735   4.065   8.606
  926WAT     H2 3021   1.898   4.050   8.604
  927WAT      O 3022   6.463   5.874   9.528
  927WAT     H1 3023   6.483   5.793   9.584
  927WAT     H2 3024   6.545   5.899   9.477
  928WAT      O 3025   7.798   4.721   1.039
  928WAT     H1 3026   7.758   4.807   1.009
  928WAT     H2 3027   7.764   4.698   1.130
  929WAT      O 3028   6.725   3.723   5.505
  929WAT     H1 3029   6.720   3.623   5.504
  929WAT     H2 3030   6.664   3.758   5.575
  930WAT      O 3031   6.178   8.784   5.334
  930WAT     H1 3032   6.096   8.768   5.279
  930WAT     H2 3033   6.198   8.882   5.336
  931WAT      O 3034   2.244   3.844   0.814
  931WAT     H1 3035   2.211   3.758   0.774
  931WAT     H2 3036   2.337   3.832   0.847
  932WAT      O 3037   4.277   4.303   0.954
  932WAT     H1 3038   4.221   4.315   0.872
  932WAT     H2 3039   4.237   4.355   1.030
  933WAT      O 3040   7.187   5.647   3.608
  933WAT     H1 3041   7.254   5.679   3.675
  933WAT     H2 3042   7.187   5.710   3.530
  934WAT      O 3043   9.086   9.066   0.195
  934WAT     H1 3044   8.989   9.046   0.183
  934WAT     H2 3045   9.112   9.143   0.137
  935WAT      O 3046   3.764   2.414   7.113
  935WAT     H1 3047   3.723   2.497   7.152
  935WAT     H2 3048   3.726   2.333   7.158
  936WAT      O 3049   6.411   5.452   9.820
  936WAT     H1 3050   6.331   5.398   9.843
  936WAT     H2 3051   6.384   5.545   9.798
  937WAT      O 3052   7.790   1.402   0.056
  937WAT     H1 3053   7.773   1.497   0.084
  937WAT     H2 3054   7.818   1.401  -0.040
  938WAT      O 3055   2.124   6.038   8.797
  938WAT     H1 3056   2.084   5.949   8.820
  938WAT     H2 3057   2.130   6.094   8.879
  939WAT      O 3058   1.865   2.110   8.020
  939WAT     H1 3059   1.900   2.029   8.067
  939WAT     H2 3060   1.792   2.083   7.957
  940WAT      O 3061   2.033   2.305   4.258
  940WAT     H1 3062   2.094   2.352   4.195
  940WAT     H2 3063   2.083   2.282   4.342
  941WAT      O 3064   1.797   1.476   0.506
  941WAT     H1 3065   1.881   1.429   0.531
  941WAT     H2 3066   1.733   1.476   0.583
  942WAT      O 3067   8.665   0.239   8.599
  942WAT     H1 3068   8.695   0.237   8.694
  942WAT     H2 3069   8.581   0.293   8.592
  943WAT      O 3070   0.770   7.873   3.811
  943WAT     H1 3071   0.773   7.881   3.712
  943WAT     H2 3072   0.801   7.782   3.839
  944WAT      O 3073   1.743   6.098   0.624
  944WAT     H1 3074   1.822   6.158   0.612
  944WAT     H2 3075   1.769   6.020   0.681
  945WAT      O 3076   4.299   3.055   5.509
  945WAT     H1 3077   4.395   3.081   5.517
  945WAT     H2 3078   4.253   3.069   5.596
  946WAT      O 3079   3.393   2.620   5.027
  946WAT     H1 3080   3.321   2.567   5.072
  946WAT     H2 3081   3.362   2.715   5.016
  947WAT      O 3082   3.636   1.542   9.572
  947WAT     H1 3083   3.691   1.622   9.594
  947WAT     H2 3084   3.609   1.495   9.656
  948WAT      O 3085   2.928   0.387   8.193
  948WAT     H1 3086   3.014   0.438   8.201
  948WAT     H2 3087   2.923   0.319   8.266
  949WAT      O 3088   3.787   8.758   6.000
  949WAT     H1 3089   3.783   8.682   5.935
  949WAT     H2 3090   3.784   8.722   6.094
  950WAT      O 3091   5.155   6.528   5.440
  950WAT     H1 3092   5.180   6.471   5.517
  950WAT     H2 3093   5.210   6.503   5.360
  951WAT      O 3094   2.969   3.482   6.235
  951WAT     H1 3095   2.896   3.506   6.171
  951WAT     H2 3096   3.057   3.486   6.188
  952WAT      O 3097   6.086   1.440   0.984
  952WAT     H1 3098   6.061   1.386   0.904
  952WAT     H2 3099   6.074   1.537   0.964
  953WAT      O 3100   8.683   1.640   7.504
  953WAT     H1 3101   8.768   1.687   7.528
  953WAT     H2 3102   8.687   1.545   7.538
  954WAT      O 3103   8.181   7.054   5.935
  954WAT     H1 3104   8.134   6.966   5.936
  954WAT     H2 3105   8.134   7.116   5.998
  955WAT      O 3106   2.340   7.078   3.296
  955WAT     H1 3107   2.327   7.095   3.394
  955WAT     H2 3108   2.274   7.131   3.244
  956WAT      O 3109   4.071   4.923   3.008
  956WAT     H1 3110   4.067   4.940   2.909
  956WAT     H2 3111   4.088   5.009   3.056
  957WAT      O 3112   4.923   9.451   2.145
  957WAT     H1 3113   4.978   9.534   2.153
  957WAT     H2 3114   4.826   9.475   2.141
  958WAT      O 3115   2.048   4.523   3.659
  958WAT     H1 3116   2.049   4.593   3.588
  958WAT     H2 3117   2.097   4.556   3.740
  959WAT      O 3118   4.036   6.675   7.095
  959WAT     H1 3119   4.094   6.595   7.081
  959WAT     H2 3120   3.944   6.655   7.062
  960WAT      O 3121   2.918   2.684   3.940
  960WAT     H1 3122   2.850   2.643   3.879
  960WAT     H2 3123   3.007   2.685   3.894
  961WAT      O 3124   1.145   2.868   6.119
  961WAT     H1 3125   1.245   2.869   6.109
  961WAT     H2 3126   1.121   2.873   6.216
  962WAT      O 3127   8.177   7.654   0.848
  962WAT     H1 3128   8.100   7.598   0.816
  962WAT     H2 3129   8.174   7.744   0.802
  963WAT      O 3130   4.538   9.838   5.587
  963WAT     H1 3131   4.494   9.753   5.557
  963WAT     H2 3132   4.469   9.910   5.594
  964WAT      O 3133   6.246   9.080   7.867
  964WAT     H1 3134   6.155   9.120   7.875
  964WAT     H2 3135   6.287   9.106   7.780
  965WAT      O 3136   3.189   4.488   1.461
  965WAT     H1 3137   3.089   4.489   1.467
  965WAT     H2 3138   3.220   4.404   1.417
  966WAT      O 3139   8.997   4.309   4.992
  966WAT     H1 3140   9.042   4.226   5.025
  966WAT     H2 3141   8.979   4.301   4.894
  967WAT      O 3142   7.225   7.702   8.379
  967WAT     H1 3143   7.150   7.665   8.434
  967WAT     H2 3144   7.216   7.802   8.375
  968WAT      O 3145   6.772   1.736   2.544
  968WAT     H1 3146   6.812   1.753   2.454
  968WAT     H2 3147   6.697   1.671   2.536
  969WAT      O 3148   1.746   8.453   6.049
  969WAT     H1 3149   1.687   8.535   6.052
  969WAT     H2 3150   1.692   8.373   6.073
  970WAT      O 3151   1.373   5.257   9.512
  970WAT     H1 3152   1.436   5.334   9.507
  970WAT     H2 3153   1.279   5.290   9.503
  971WAT      O 3154   9.231   8.632   7.065
  971WAT     H1 3155   9.189   8.558   7.116
  971WAT     H2 3156   9.249   8.602   6.971
  972WAT      O 3157   0.049   8.041   3.219
  972WAT     H1 3158  -0.030   7.991   3.183
  972WAT     H2 3159   0.110   7.977   3.266
  973WAT      O 3160   4.485   1.995   9.463
  973WAT     H1 3161   4.475   1.959   9.556
  973WAT     H2 3162   4.459   1.925   9.397
  974WAT      O 3163   9.544   9.111   1.049
  974WAT     H1 3164   9.471   9.153   0.995
  974WAT     H2 3165   9.630   9.158   1.031
  975WAT      O 3166   5.976   4.287   7.923
  975WAT     H1 3167   6.013   4.257   7.835
  975WAT     H2 3168   5.977   4.387   7.927
  976WAT      O 3169   5.665   3.561   8.556
  976WAT     H1 3170   5.707   3.511   8.631
  976WAT     H2 3171   5.644   3.499   8.481
  977WAT      O 3172   2.590   9.329   4.895
  977WAT     H1 3173   2.686   9.354   4.908
  977WAT     H2 3174   2.540   9.345   4.980
  978WAT      O 3175   3.137   5.516   1.240
  978WAT     H1 3176   3.190   5.601   1.246
  978WAT     H2 3177   3.195   5.442   1.207
  979WAT      O 3178   5.598   8.501   8.357
  979WAT     H1 3179   5.677   8.442   8.341
  979WAT     H2 3180   5.604   8.581   8.297
  980WAT      O 3181   3.237   1.437   4.358
  980WAT     H1 3182   3.277   1.414   4.269
  980WAT     H2 3183   3.159   1.498   4.344
  981WAT      O 3184   6.802   4.446   7.459
  981WAT     H1 3185   6.782   4.510   7.384
  981WAT     H2 3186   6.847   4.365   7.422
  982WAT      O 3187   7.882   1.083   5.552
  982WAT     H1 3188   7.914   1.044   5.638
  982WAT     H2 3189   7.927   1.172   5.537
  983WAT      O 3190   9.105   0.738   6.403
  983WAT     H1 3191   9.164   0.659   6.388
  983WAT     H2 3192   9.160   0.817   6.430
  984WAT      O 3193   0.507   3.804   1.111
  984WAT     H1 3194   0.464   3.715   1.120
  984WAT     H2 3195   0.507   3.851   1.199
  985WAT      O 3196   2.155   1.720   9.810
  985WAT     H1 3197   2.183   1.642   9.866
  985WAT     H2 3198   2.084   1.771   9.858
  986WAT      O 3199   2.510   8.782   7.459
  986WAT     H1 3200   2.570   8.730   7.520
  986WAT     H2 3201   2.542   8.773   7.365
  987WAT      O 3202   9.131   5.505   7.004
  987WAT     H1 3203   9.087   5.548   6.925
  987WAT     H2 3204   9.083   5.531   7.088
  988WAT      O 3205   0.558   4.368   9.181
  988WAT     H1 3206   0.615   4.340   9.104
  988WAT     H2 3207   0.490   4.435   9.149
  989WAT      O 3208   3.190   6.597   8.021
  989WAT     H1 3209   3.136   6.656   7.962
  989WAT     H2 3210   3.280   6.581   7.980
  990WAT      O 3211   5.133   3.098   2.899
  990WAT     H1 3212   5.069   3.144   2.838
  990WAT     H2 3213   5.227   3.116   2.869
  991WAT      O 3214   9.080   3.617   0.590
  991WAT     H1 3215   9.129   3.594   0.674
  991WAT     H2 3216   8.982   3.624   0.609
  992WAT      O 3217   2.026   0.039   7.937
  992WAT     H1 3218   2.025  -0.061   7.935
  992WAT     H2 3219   2.099   0.072   7.878
  993WAT      O 3220   7.992   3.106   1.100
  993WAT     H1 3221   7.985   3.180   1.033
  993WAT     H2 3222   7.902   3.089   1.141
  994WAT      O 3223   9.787   5.102   7.982
  994WAT     H1 3224   9.770   5.132   8.076
  994WAT     H2 3225   9.853   5.163   7.938
  995WAT      O 3226   6.529   4.783   3.824
  995WAT     H1 3227   6.622   4.814   3.845
  995WAT     H2 3228   6.533   4.696   3.775
  996WAT      O 3229   1.059   5.056   4.357
  996WAT     H1 3230   1.017   5.064   4.266
  996WAT     H2 3231   1.123   5.131   4.370
  997WAT      O 3232   2.443   5.347   4.544
  997WAT     H1 3233   2.403   5.404   4.617
  997WAT     H2 3234   2.537   5.375   4.528
  998WAT      O 3235   8.617   7.305   7.772
  998WAT     H1 3236   8.557   7.385   7.773
  998WAT     H2 3237   8.595   7.248   7.693
  999WAT      O 3238   1.512   1.825   9.636
  999WAT     H1 3239   1.533   1.728   9.623
  999WAT     H2 3240   1.415   1.836   9.658
 1000WAT      O 3241   8.427   6.044   1.113
 1000WAT     H1 3242   8.453   5.950   1.092
 1000WAT     H2 3243   8.391   6.088   1.031
 1001WAT      O 3244   7.876   5.172   8.680
 1001WAT     H1 3245   7.903   5.091   8.627
 1001WAT     H2 3246   7.779   5.165   8.705
 1002WAT      O 3247   8.304   7.550   9.536
 1002WAT     H1 3248   8.373   7.478   9.536
 1002WAT     H2 3249   8.318   7.610   9.458
 1003WAT      O 3250   4.413   7.930   9.103
 1003WAT     H1 3251   4.362   8.005   9.062
 1003WAT     H2 3252   4.382   7.916   9.197
 1004WAT      O 3253   2.964   3.486   1.719
 1004WAT     H1 3254   2.988   3.579   1.745
 1004WAT     H2 3255   2.905   3.488   1.638
 1005WAT      O 3256   9.382   2.341   2.596
 1005WAT     H1 3257   9.465   2.287   2.608
 1005WAT     H2 3258   9.392   2.400   2.516
 1006WAT      O 3259   6.697   1.656   5.235
 1006WAT     H1 3260   6.733   1.740   5.274
 1006WAT     H2 3261   6.618   1.677   5.178
 1007WAT      O 3262   6.344   2.902   8.355
 1007WAT     H1 3263   6.390   2.932   8.438
 1007WAT     H2 3264   6.348   2.974   8.286
 1008WAT      O 3265   5.662   5.613   5.050
 1008WAT     H1 3266   5.563   5.625   5.048
 1008WAT     H2 3267   5.689   5.546   4.981
 1009WAT      O 3268   8.674   6.856   3.154
 1009WAT     H1 3269   8.729   6.779   3.122
 1009WAT     H2 3270   8.689   6.935   3.094
 1010WAT      O 3271   0.133   3.065   0.355
 1010WAT     H1 3272   0.203   2.998   0.331
 1010WAT     H2 3273   0.054   3.053   0.294
 1011WAT      O 3274   0.536   0.776   6.039
 1011WAT     H1 3275   0.572   0.761   6.131
 1011WAT     H2 3276   0.564   0.701   5.980
 1012WAT      O 3277   4.965   5.023   3.457
 1012WAT     H1 3278   4.873   5.055   3.436
 1012WAT     H2 3279   4.991   4.951   3.392
 1013WAT      O 3280   0.230   8.591   0.591
 1013WAT     H1 3281   0.213   8.689   0.584
 1013WAT     H2 3282   0.327   8.573   0.573
 1014WAT      O 3283   7.528   8.869   6.978
 1014WAT     H1 3284   7.578   8.783   6.966
 1014WAT     H2 3285   7.452   8.873   6.914
 1015WAT      O 3286   9.641   0.420   0.819
 1015WAT     H1 3287   9.623   0.518   0.821
 1015WAT     H2 3288   9.633   0.382   0.911
 1016WAT      O 3289   7.498   2.995   6.668
 1016WAT     H1 3290   7.546   2.909   6.680
 1016WAT     H2 3291   7.553   3.070   6.703
 1017WAT      O 3292   0.711   7.008   8.996
 1017WAT     H1 3293   0.688   6.917   9.030
 1017WAT     H2 3294   0.714   7.007   8.896
 1018WAT      O 3295   7.867   4.417   4.516
 1018WAT     H1 3296   7.868   4.365   4.430
 1018WAT     H2 3297   7.896   4.358   4.591
 1019WAT      O 3298   2.707   9.334   4.541
 1019WAT     H1 3299   2.732   9.248   4.585
 1019WAT     H2 3300   2.764   9.408   4.577
 1020WAT      O 3301   0.196   6.795   2.526
 1020WAT     H1 3302   0.170   6.723   2.590
 1020WAT     H2 3303   0.136   6.874   2.538
 1021WAT      O 3304   2.946   9.030   0.510
 1021WAT     H1 3305   3.030   9.077   0.538
 1021WAT     H2 3306   2.866   9.081   0.543
 1022WAT      O 3307   9.528   8.321   4.570
 1022WAT     H1 3308   9.506   8.252   4.500
 1022WAT     H2 3309   9.613   8.294   4.617
 1023WAT      O 3310   3.786   6.727   1.834
 1023WAT     H1 3311   3.799   6.630   1.814
 1023WAT     H2 3312   3.851   6.781   1.781
 1024WAT      O 3313   1.693   5.833   5.646
 1024WAT     H1 3314   1.606   5.816   5.693
 1024WAT     H2 3315   1.765   5.848   5.714
 1025WAT      O 3316   2.635   2.747   5.623
 1025WAT     H1 3317   2.657   2.653   5.595
 1025WAT     H2 3318   2.549   2.775   5.580
 1026WAT      O 3319   2.557   7.601   4.557
 1026WAT     H1 3320   2.656   7.586   4.560
 1026WAT     H2 3321   2.509   7.515   4.572
 1027WAT      O 3322   6.206   4.102   2.363
 1027WAT     H1 3323   6.149   4.054   2.297
 1027WAT     H2 3324   6.156   4.112   2.449
 1028WAT      O 3325   5.951   7.207   0.114
 1028WAT     H1 3326   5.853   7.184   0.108
 1028WAT     H2 3327   5.993   7.154   0.187
 1029WAT      O 3328   1.010   1.093   5.075
 1029WAT     H1 3329   0.963   1.027   5.016
 1029WAT     H2 3330   1.067   1.044   5.141
 1030WAT      O 3331   6.047   7.211   9.137
 1030WAT     H1 3332   6.041   7.115   9.166
 1030WAT     H2 3333   5.961   7.257   9.158
 1031WAT      O 3334   8.195   2.911   6.945
 1031WAT     H1 3335   8.255   2.926   7.024
 1031WAT     H2 3336   8.107   2.876   6.977
 1032WAT      O 3337   5.716   2.697   4.673
 1032WAT     H1 3338   5.789   2.628   4.680
 1032WAT     H2 3339   5.752   2.780   4.630
 1033WAT      O 3340   2.740   6.773   6.259
 1033WAT     H1 3341   2.689   6.841   6.206
 1033WAT     H2 3342   2.834   6.806   6.273
 1034WAT      O 3343   8.683   0.877   4.705
 1034WAT     H1 3344   8.730   0.965   4.701
 1034WAT     H2 3345   8.728   0.812   4.644
 1035WAT      O 3346   9.682   2.719   9.844
 1035WAT     H1 3347   9.744   2.698   9.919
 1035WAT     H2 3348   9.707   2.665   9.763
 1036WAT      O 3349   5.911   7.313   2.685
 1036WAT     H1 3350   5.994   7.322   2.629
 1036WAT     H2 3351   5.889   7.217   2.696
 1037WAT      O 3352   6.398   4.706   8.845
 1037WAT     H1 3353   6.326   4.771   8.820
 1037WAT     H2 3354   6.410   4.706   8.945
 1038WAT      O 3355   3.879   4.190   3.875
 1038WAT     H1 3356   3.793   4.175   3.924
 1038WAT     H2 3357   3.951   4.212   3.940
 1039WAT      O 3358   0.947   2.603   7.755
 1039WAT     H1 3359   0.960   2.660   7.674
 1039WAT     H2 3360   0.935   2.508   7.729
 1040WAT      O 3361   3.348   9.685   6.606
 1040WAT     H1 3362   3.333   9.748   6.682
 1040WAT     H2 3363   3.291   9.604   6.617
 1041WAT      O 3364   4.417   3.302   0.644
 1041WAT     H1 3365   4.457   3.230   0.587
 1041WAT     H2 3366   4.388   3.378   0.585
 1042WAT      O 3367   8.816   7.926   6.232
 1042WAT     H1 3368   8.814   7.886   6.140
 1042WAT     H2 3369   8.903   7.973   6.247
 1043WAT      O 3370   1.248   0.544   9.652
 1043WAT     H1 3371   1.288   0.632   9.679
 1043WAT     H2 3372   1.212   0.552   9.558
 1044WAT      O 3373   3.904   7.056   5.033
 1044WAT     H1 3374   3.942   7.148   5.017
 1044WAT     H2 3375   3.955   7.011   5.106
 1045WAT      O 3376   6.348   4.427   5.061
 1045WAT     H1 3377   6.356   4.524   5.039
 1045WAT     H2 3378   6.340   4.375   4.976
 1046WAT      O 3379   3.559   9.669   5.846
 1046WAT     H1 3380   3.643   9.705   5.804
 1046WAT     H2 3381   3.519   9.740   5.905
 1047WAT      O 3382   0.625   0.181   4.397
 1047WAT     H1 3383   0.609   0.089   4.432
 1047WAT     H2 3384   0.572   0.194   4.313
 1048WAT      O 3385   1.822   9.662   6.308
 1048WAT     H1 3386   1.889   9.636   6.378
 1048WAT     H2 3387   1.730   9.637   6.339
 1049WAT      O 3388   5.210   2.387   7.888
 1049WAT     H1 3389   5.175   2.418   7.976
 1049WAT     H2 3390   5.288   2.444   7.860
 1050WAT      O 3391   9.837   6.055   8.431
 1050WAT     H1 3392   9.866   6.075   8.525
 1050WAT     H2 3393   9.761   5.990   8.432
 1051WAT      O 3394   4.136   0.830   4.023
 1051WAT     H1 3395   4.108   0.797   4.113
 1051WAT     H2 3396   4.099   0.770   3.952
 1052WAT      O 3397   7.954   5.457   6.976
 1052WAT     H1 3398   8.026   5.426   7.039
 1052WAT     H2 3399   7.913   5.541   7.012
 1053WAT      O 3400   1.573   3.722   2.671
 1053WAT     H1 3401   1.609   3.678   2.588
 1053WAT     H2 3402   1.476   3.744   2.658
 1054WAT      O 3403   0.111   0.079   1.716
 1054WAT     H1 3404   0.133   0.078   1.618
 1054WAT     H2 3405   0.068  -0.007   1.741
 1055WAT      O 3406   3.984   2.397   0.463
 1055WAT     H1 3407   3.987   2.458   0.542
 1055WAT     H2 3408   3.898   2.412   0.414
 1056WAT      O 3409   8.349   7.623   3.520
 1056WAT     H1 3410   8.324   7.676   3.439
 1056WAT     H2 3411   8.415   7.552   3.494
 1057WAT      O 3412   9.001   7.203   6.892
 1057WAT     H1 3413   9.082   7.259   6.879
 1057WAT     H2 3414   8.977   7.200   6.989
 1058WAT      O 3415   3.984   7.622   9.017
 1058WAT     H1 3416   3.925   7.543   9.035
 1058WAT     H2 3417   4.074   7.607   9.058
 1059WAT      O 3418   7.036   6.739   9.342
 1059WAT     H1 3419   7.005   6.814   9.284
 1059WAT     H2 3420   6.987   6.655   9.316
 1060WAT      O 3421   5.493   6.258   2.814
 1060WAT     H1 3422   5.541   6.239   2.899
 1060WAT     H2 3423   5.560   6.281   2.743
 1061WAT      O 3424   1.581   3.431   8.391
 1061WAT     H1 3425   1.543   3.360   8.331
 1061WAT     H2 3426   1.667   3.398   8.431
 1062WAT      O 3427   7.806   1.980   9.661
 1062WAT     H1 3428   7.756   2.060   9.626
 1062WAT     H2 3429   7.866   1.945   9.589
 1063WAT      O 3430   7.758   4.441   9.102
 1063WAT     H1 3431   7.765   4.343   9.085
 1063WAT     H2 3432   7.662   4.467   9.106
 1064WAT      O 3433   3.805   3.671   0.648
 1064WAT     H1 3434   3.717   3.624   0.638
 1064WAT     H2 3435   3.864   3.648   0.571
 1065WAT      O 3436   9.637   4.193   9.413
 1065WAT     H1 3437   9.619   4.152   9.324
 1065WAT     H2 3438   9.551   4.217   9.457
 1066WAT      O 3439   5.629   5.711   9.284
 1066WAT     H1 3440   5.708   5.679   9.231
 1066WAT     H2 3441   5.545   5.682   9.238
 1067WAT      O 3442   4.016   5.788   1.799
 1067WAT     H1 3443   4.018   5.750   1.707
 1067WAT     H2 3444   3.989   5.716   1.864
 1068WAT      O 3445   4.464   4.635   5.810
 1068WAT     H1 3446   4.489   4.731   5.800
 1068WAT     H2 3447   4.460   4.612   5.907
 1069WAT      O 3448   7.359   2.379   6.793
 1069WAT     H1 3449   7.331   2.286   6.769
 1069WAT     H2 3450   7.291   2.444   6.759
 1070WAT      O 3451   0.629   0.391   2.351
 1070WAT     H1 3452   0.726   0.383   2.371
 1070WAT     H2 3453   0.614   0.460   2.281
 1071WAT      O 3454   5.989   8.942   5.525
 1071WAT     H1 3455   6.019   8.856   5.484
 1071WAT     H2 3456   6.012   9.018   5.464
 1072WAT      O 3457   5.529   0.112   9.129
 1072WAT     H1 3458   5.540   0.188   9.065
 1072WAT     H2 3459   5.482   0.036   9.084
 1073WAT      O 3460   9.418   0.042   5.006
 1073WAT     H1 3461   9.501  -0.013   5.010
 1073WAT     H2 3462   9.437   0.130   4.964
 1074WAT      O 3463   8.718   7.672   6.347
 1074WAT     H1 3464   8.738   7.769   6.336
 1074WAT     H2 3465   8.793   7.628   6.398
 1075WAT      O 3466   0.206   8.557   4.768
 1075WAT     H1 3467   0.290   8.597   4.731
 1075WAT     H2 3468   0.230   8.485   4.834
 1076WAT      O 3469   9.537   2.886   1.754
 1076WAT     H1 3470   9.616   2.946   1.749
 1076WAT     H2 3471   9.458   2.938   1.786
 1077WAT      O 3472   0.596   5.780   5.855
 1077WAT     H1 3473   0.561   5.727   5.932
 1077WAT     H2 3474   0.696   5.773   5.852
 1078WAT      O 3475   9.335   1.816   4.012
 1078WAT     H1 3476   9.420   1.834   4.061
 1078WAT     H2 3477   9.355   1.776   3.923
 1079WAT      O 3478   2.923   4.516   4.772
 1079WAT     H1 3479   3.016   4.506   4.736
 1079WAT     H2 3480   2.918   4.601   4.824
 1080WAT      O 3481   9.603   5.757   1.997
 1080WAT     H1 3482   9.672   5.770   1.925
 1080WAT     H2 3483   9.594   5.841   2.049
 1081WAT      O 3484   6.407   1.055   7.811
 1081WAT     H1 3485   6.365   1.139   7.778
 1081WAT     H2 3486   6.349   1.014   7.882
 1082WAT      O 3487   3.667   7.875   0.817
 1082WAT     H1 3488   3.600   7.805   0.843
 1082WAT     H2 3489   3.620   7.957   0.787
 1083WAT      O 3490   1.233   2.708   8.797
 1083WAT     H1 3491   1.195   2.729   8.707
 1083WAT     H2 3492   1.210   2.782   8.861
 1084WAT      O 3493   1.255   3.962   1.000
 1084WAT     H1 3494   1.308   3.961   1.085
 1084WAT     H2 3495   1.296   3.900   0.934
 1085WAT      O 3496   4.222   9.318   0.352
 1085WAT     H1 3497   4.158   9.242   0.337
 1085WAT     H2 3498   4.200   9.392   0.289
 1086WAT      O 3499   7.123   4.218   7.919
 1086WAT     H1 3500   7.108   4.120   7.914
 1086WAT     H2 3501   7.217   4.239   7.891
 1087WAT      O 3502   7.848   9.763   4.174
 1087WAT     H1 3503   7.782   9.809   4.115
 1087WAT     H2 3504   7.812   9.759   4.268
 1088WAT      O 3505   0.224   5.705   7.555
 1088WAT     H1 3506   0.228   5.605   7.559
 1088WAT     H2 3507   0.294   5.738   7.492
 1089WAT      O 3508   6.278   1.315   2.072
 1089WAT     H1 3509   6.292   1.380   2.146
 1089WAT     H2 3510   6.363   1.265   2.055
 1090WAT      O 3511   0.583   1.106   5.702
 1090WAT     H1 3512   0.487   1.124   5.724
 1090WAT     H2 3513   0.619   1.038   5.766
 1091WAT      O 3514   2.280   6.198   2.297
 1091WAT     H1 3515   2.244   6.198   2.204
 1091WAT     H2 3516   2.217   6.247   2.357
 1092WAT      O 3517   8.705   4.153   5.176
 1092WAT     H1 3518   8.633   4.213   5.211
 1092WAT     H2 3519   8.722   4.174   5.080
 1093WAT      O 3520   8.594   0.901   0.625
 1093WAT     H1 3521   8.618   0.887   0.721
 1093WAT     H2 3522   8.577   0.998   0.608
 1094WAT      O 3523   9.232   5.662   7.947
 1094WAT     H1 3524   9.163   5.735   7.950
 1094WAT     H2 3525   9.213   5.602   7.870
 1095WAT      O 3526   7.683   3.859   0.167
 1095WAT     H1 3527   7.696   3.873   0.068
 1095WAT     H2 3528   7.654   3.944   0.209
 1096WAT      O 3529   5.470   8.192   3.575
 1096WAT     H1 3530   5.377   8.229   3.575
 1096WAT     H2 3531   5.499   8.175   3.670
 1097WAT      O 3532   7.952   3.906   9.130
 1097WAT     H1 3533   8.018   3.924   9.057
 1097WAT     H2 3534   7.977   3.959   9.211
 1098WAT      O 3535   8.052   9.378   5.458
 1098WAT     H1 3536   8.117   9.304   5.440
 1098WAT     H2 3537   7.962   9.353   5.423
 1099WAT      O 3538   0.699   7.110   5.224
 1099WAT     H1 3539   0.698   7.193   5.169
 1099WAT     H2 3540   0.606   7.074   5.233
 1100WAT      O 3541   3.170   7.215   6.557
 1100WAT     H1 3542   3.118   7.298   6.575
 1100WAT     H2 3543   3.144   7.178   6.468
 1101WAT      O 3544   6.065   6.372   0.634
 1101WAT     H1 3545   5.967   6.374   0.615
 1101WAT     H2 3546   6.085   6.296   0.696
 1102WAT      O 3547   6.622   2.884   0.225
 1102WAT     H1 3548   6.553   2.956   0.220
 1102WAT     H2 3549   6.677   2.885   0.142
 1103WAT      O 3550   6.077   0.070   0.515
 1103WAT     H1 3551   6.075  -0.029   0.530
 1103WAT     H2 3552   5.991   0.111   0.545
 1104WAT      O 3553   1.589   9.549   4.542
 1104WAT     H1 3554   1.685   9.575   4.552
 1104WAT     H2 3555   1.561   9.561   4.447
 1105WAT      O 3556   0.223   1.322   3.338
 1105WAT     H1 3557   0.269   1.410   3.335
 1105WAT     H2 3558   0.288   1.251   3.368
 1106WAT      O 3559   8.234   6.346   8.991
 1106WAT     H1 3560   8.325   6.380   8.967
 1106WAT     H2 3561   8.231   6.247   8.977
 1107WAT      O 3562   6.817   3.213   9.487
 1107WAT     H1 3563   6.836   3.216   9.585
 1107WAT     H2 3564   6.789   3.120   9.461
 1108WAT      O 3565   3.539   9.747   0.996
 1108WAT     H1 3566   3.459   9.797   0.963
 1108WAT     H2 3567   3.546   9.660   0.946
 1109WAT      O 3568   6.857   9.776   5.867
 1109WAT     H1 3569   6.887   9.807   5.777
 1109WAT     H2 3570   6.852   9.854   5.930
 1110WAT      O 3571   2.371   5.646   1.661
 1110WAT     H1 3572   2.330   5.634   1.571
 1110WAT     H2 3573   2.461   5.687   1.651
 1111WAT      O 3574   9.583   2.649   3.174
 1111WAT     H1 3575   9.678   2.675   3.192
 1111WAT     H2 3576   9.544   2.608   3.256
 1112WAT      O 3577   7.335   8.467   5.293
 1112WAT     H1 3578   7.361   8.558   5.328
 1112WAT     H2 3579   7.410   8.403   5.309
 1113WAT      O 3580   3.699   2.096   8.613
 1113WAT     H1 3581   3.793   2.114   8.641
 1113WAT     H2 3582   3.661   2.178   8.569
 1114WAT      O 3583   6.303   0.051   8.949
 1114WAT     H1 3584   6.247   0.105   9.012
 1114WAT     H2 3585   6.379   0.108   8.916
 1115WAT      O 3586   4.560   2.647   2.191
 1115WAT     H1 3587   4.568   2.682   2.285
 1115WAT     H2 3588   4.463   2.631   2.170
 1116WAT      O 3589   2.702   3.884   9.817
 1116WAT     H1 3590   2.673   3.866   9.723
 1116WAT     H2 3591   2.727   3.798   9.862
 1117WAT      O 3592   9.508   8.834   4.322
 1117WAT     H1 3593   9.525   8.753   4.378
 1117WAT     H2 3594   9.425   8.879   4.353
 1118WAT      O 3595   9.088   8.688   0.494
 1118WAT     H1 3596   9.012   8.623   0.504
 1118WAT     H2 3597   9.094   8.718   0.399
 1119WAT      O 3598   6.143   6.846   5.483
 1119WAT     H1 3599   6.178   6.909   5.414
 1119WAT     H2 3600   6.059   6.884   5.524
 1120WAT      O 3601   3.320   6.941   7.370
 1120WAT     H1 3602   3.286   7.036   7.372
 1120WAT     H2 3603   3.383   6.927   7.446
 1121WAT      O 3604   2.074   7.018   3.605
 1121WAT     H1 3605   2.148   7.085   3.603
 1121WAT     H2 3606   2.064   6.978   3.514
 1122WAT      O 3607   7.273   6.569   7.471
 1122WAT     H1 3608   7.175   6.587   7.481
 1122WAT     H2 3609   7.318   6.582   7.559
 1123WAT      O 3610   8.728   7.496   3.310
 1123WAT     H1 3611   8.740   7.595   3.312
 1123WAT     H2 3612   8.644   7.472   3.359
 1124WAT      O 3613   8.498   7.237   0.649
 1124WAT     H1 3614   8.584   7.250   0.698
 1124WAT     H2 3615   8.422   7.239   0.714
 1125WAT      O 3616   4.672   4.768   2.802
 1125WAT     H1 3617   4.660   4.828   2.722
 1125WAT     H2 3618   4.588   4.768   2.856
 1126WAT      O 3619   3.036   3.946   1.916
 1126WAT     H1 3620   2.965   3.902   1.971
 1126WAT     H2 3621   3.023   4.045   1.917
 1127WAT      O 3622   8.885   8.477   6.669
 1127WAT     H1 3623   8.799   8.518   6.639
 1127WAT     H2 3624   8.929   8.538   6.735
 1128WAT      O 3625   4.813   6.715   3.552
 1128WAT     H1 3626   4.758   6.731   3.470
 1128WAT     H2 3627   4.872   6.635   3.537
 1129WAT      O 3628   2.259   2.606   7.595
 1129WAT     H1 3629   2.281   2.691   7.644
 1129WAT     H2 3630   2.240   2.534   7.662
 1130WAT      O 3631   9.456   3.898   3.993
 1130WAT     H1 3632   9.529   3.957   3.958
 1130WAT     H2 3633   9.475   3.875   4.089
 1131WAT      O 3634   6.983   3.059   2.057
 1131WAT     H1 3635   7.005   3.023   2.147
 1131WAT     H2 3636   7.054   3.033   1.992
 1132WAT      O 3637   6.621   6.115   8.967
 1132WAT     H1 3638   6.617   6.183   9.039
 1132WAT     H2 3639   6.687   6.044   8.992
 1133WAT      O 3640   9.839   8.501   0.099
 1133WAT     H1 3641   9.876   8.424   0.048
 1133WAT     H2 3642   9.769   8.468   0.163
 1134WAT      O 3643   0.662   8.896   4.704
 1134WAT     H1 3644   0.688   8.810   4.659
 1134WAT     H2 3645   0.733   8.965   4.689
 1135WAT      O 3646   1.249   8.774   8.782
 1135WAT     H1 3647   1.235   8.868   8.816
 1135WAT     H2 3648   1.165   8.721   8.795
 1136WAT      O 3649   6.180   4.324   3.987
 1136WAT     H1 3650   6.267   4.275   3.995
 1136WAT     H2 3651   6.132   4.321   4.075
 1137WAT      O 3652   4.903   2.607   0.270
 1137WAT     H1 3653   4.913   2.666   0.189
 1137WAT     H2 3654   4.971   2.534   0.267
 1138WAT      O 3655   1.820   1.516   7.081
 1138WAT     H1 3656   1.818   1.601   7.026
 1138WAT     H2 3657   1.726   1.488   7.101
 1139WAT      O 3658   3.045   3.624   7.287
 1139WAT     H1 3659   3.126   3.680   7.302
 1139WAT     H2 3660   2.971   3.656   7.347
 1140WAT      O 3661   2.095   7.024   1.882
 1140WAT     H1 3662   2.027   7.069   1.824
 1140WAT     H2 3663   2.055   6.942   1.924
 1141WAT      O 3664   8.943   9.441   8.558
 1141WAT     H1 3665   8.936   9.537   8.532
 1141WAT     H2 3666   9.039   9.413   8.556
 1142WAT      O 3667   2.286   4.619   0.398
 1142WAT     H1 3668   2.384   4.635   0.388
 1142WAT     H2 3669   2.268   4.583   0.489
 1143WAT      O 3670   0.522   0.086   2.699
 1143WAT     H1 3671   0.522   0.089   2.799
 1143WAT     H2 3672   0.508   0.178   2.662
 1144WAT      O 3673   4.162   7.397   2.991
 1144WAT     H1 3674   4.070   7.423   3.020
 1144WAT     H2 3675   4.169   7.404   2.892
 1145WAT      O 3676   6.318   4.981   6.699
 1145WAT     H1 3677   6.298   4.949   6.607
 1145WAT     H2 3678   6.361   4.907   6.752
 1146WAT      O 3679   8.212   8.655   2.670
 1146WAT     H1 3680   8.167   8.709   2.599
 1146WAT     H2 3681   8.310   8.648   2.649
 1147WAT      O 3682   8.375   8.615   5.749
 1147WAT     H1 3683   8.335   8.672   5.821
 1147WAT     H2 3684   8.460   8.656   5.717
 1148WAT      O 3685   5.852   0.952   7.863
 1148WAT     H1 3686   5.887   0.968   7.955
 1148WAT     H2 3687   5.896   1.015   7.799
 1149WAT      O 3688   8.074   0.354   1.714
 1149WAT     H1 3689   7.978   0.335   1.738
 1149WAT     H2 3690   8.110   0.277   1.661
 1150WAT      O 3691   6.066   2.304   0.966
 1150WAT     H1 3692   6.039   2.360   0.887
 1150WAT     H2 3693   6.126   2.357   1.025
 1151WAT      O 3694   0.133   9.287   0.549
 1151WAT     H1 3695   0.039   9.271   0.580
 1151WAT     H2 3696   0.164   9.377   0.581
 1152WAT      O 3697   1.218   2.713   5.296
 1152WAT     H1 3698   1.280   2.636   5.280
 1152WAT     H2 3699   1.133   2.680   5.337
 1153WAT      O 3700   5.551   4.260   1.729
 1153WAT     H1 3701   5.565   4.351   1.769
 1153WAT     H2 3702   5.633   4.205   1.743
 1154WAT      O 3703   4.899   2.865   4.382
 1154WAT     H1 3704   4.885   2.766   4.376
 1154WAT     H2 3705   4.981   2.885   4.435
 1155WAT      O 3706   9.017   7.085   2.963
 1155WAT     H1 3707   8.961   7.063   2.884
 1155WAT     H2 3708   9.114   7.091   2.936
 1156WAT      O 3709   9.718   7.735   2.094
 1156WAT     H1 3710   9.678   7.707   2.181
 1156WAT     H2 3711   9.811   7.699   2.087
 1157WAT      O 3712   0.917   9.200   2.449
 1157WAT     H1 3713   0.982   9.128   2.423
 1157WAT     H2 3714   0.890   9.188   2.544
 1158WAT      O 3715   0.492   0.368   3.817
 1158WAT     H1 3716   0.483   0.460   3.780
 1158WAT     H2 3717   0.435   0.305   3.765
 1159WAT      O 3718   5.957   9.797   1.071
 1159WAT     H1 3719   5.934   9.764   1.163
 1159WAT     H2 3720   5.960   9.897   1.071
 1160WAT      O 3721   3.730   3.996   7.151
 1160WAT     H1 3722   3.687   3.906   7.147
 1160WAT     H2 3723   3.711   4.038   7.240
 1161WAT      O 3724   1.959   7.572   1.581
 1161WAT     H1 3725   2.001   7.548   1.669
 1161WAT     H2 3726   2.027   7.564   1.508
 1162WAT      O 3727   7.591   9.551   5.883
 1162WAT     H1 3728   7.497   9.521   5.872
 1162WAT     H2 3729   7.653   9.473   5.872
 1163WAT      O 3730   5.494   2.110   5.096
 1163WAT     H1 3731   5.460   2.128   5.189
 1163WAT     H2 3732   5.516   2.196   5.051
 1164WAT      O 3733   9.557   0.438   0.356
 1164WAT     H1 3734   9.507   0.399   0.280
 1164WAT     H2 3735   9.655   0.423   0.344
 1165WAT      O 3736   4.617   3.499   0.678
 1165WAT     H1 3737   4.581   3.571   0.618
 1165WAT     H2 3738   4.544   3.437   0.703
 1166WAT      O 3739   1.550   1.835   1.651
 1166WAT     H1 3740   1.573   1.930   1.631
 1166WAT     H2 3741   1.576   1.777   1.574
 1167WAT      O 3742   5.974   4.669   6.887
 1167WAT     H1 3743   5.897   4.724   6.853
 1167WAT     H2 3744   5.948   4.625   6.973
 1168WAT      O 3745   2.653   7.171   6.808
 1168WAT     H1 3746   2.736   7.175   6.753
 1168WAT     H2 3747   2.584   7.115   6.760
 1169WAT      O 3748   3.207   9.246   2.217
 1169WAT     H1 3749   3.217   9.235   2.118
 1169WAT     H2 3750   3.116   9.281   2.238
 1170WAT      O 3751   5.898   1.663   3.485
 1170WAT     H1 3752   5.903   1.563   3.483
 1170WAT     H2 3753   5.902   1.698   3.391
 1171WAT      O 3754   3.899   5.998   1.905
 1171WAT     H1 3755   3.950   5.922   1.866
 1171WAT     H2 3756   3.890   5.986   2.004
 1172WAT      O 3757   9.562   7.617   6.897
 1172WAT     H1 3758   9.490   7.553   6.925
 1172WAT     H2 3759   9.616   7.643   6.976
 1173WAT      O 3760   4.432   0.075   5.107
 1173WAT     H1 3761   4.457  -0.021   5.098
 1173WAT     H2 3762   4.374   0.087   5.187
 1174WAT      O 3763   7.728   0.548   4.158
 1174WAT     H1 3764   7.689   0.633   4.195
 1174WAT     H2 3765   7.797   0.513   4.222
 1175WAT      O 3766   7.894   6.660   2.841
 1175WAT     H1 3767   7.950   6.723   2.893
 1175WAT     H2 3768   7.896   6.570   2.884
 1176WAT      O 3769   8.407   7.862   8.464
 1176WAT     H1 3770   8.314   7.875   8.499
 1176WAT     H2 3771   8.415   7.902   8.373
 1177WAT      O 3772   9.221   8.156   2.449
 1177WAT     H1 3773   9.203   8.238   2.395
 1177WAT     H2 3774   9.282   8.180   2.525
 1178WAT      O 3775   7.021   2.881   2.524
 1178WAT     H1 3776   7.115   2.897   2.555
 1178WAT     H2 3777   7.012   2.786   2.492
 1179WAT      O 3778   4.870   0.461   3.796
 1179WAT     H1 3779   4.801   0.516   3.842
 1179WAT     H2 3780   4.852   0.461   3.697
 1180WAT      O 3781   3.148   4.626   7.113
 1180WAT     H1 3782   3.120   4.722   7.114
 1180WAT     H2 3783   3.173   4.600   7.020
 1181WAT      O 3784   5.354   8.291   1.427
 1181WAT     H1 3785   5.303   8.306   1.342
 1181WAT     H2 3786   5.328   8.360   1.494
 1182WAT      O 3787   4.792   8.378   7.749
 1182WAT     H1 3788   4.760   8.301   7.805
 1182WAT     H2 3789   4.892   8.383   7.753
 1183WAT      O 3790   9.002   9.724   2.767
 1183WAT     H1 3791   8.962   9.803   2.722
 1183WAT     H2 3792   9.063   9.676   2.704
 1184WAT      O 3793   9.829   2.341   2.427
 1184WAT     H1 3794   9.826   2.287   2.343
 1184WAT     H2 3795   9.802   2.435   2.407
 1185WAT      O 3796   7.048   6.598   8.683
 1185WAT     H1 3797   7.103   6.611   8.766
 1185WAT     H2 3798   7.072   6.511   8.641
 1186WAT      O 3799   7.566   1.365   8.231
 1186WAT     H1 3800   7.489   1.348   8.293
 1186WAT     H2 3801   7.541   1.339   8.138
 1187WAT      O 3802   5.207   2.213   8.589
 1187WAT     H1 3803   5.159   2.298   8.568
 1187WAT     H2 3804   5.174   2.140   8.529
 1188WAT      O 3805   8.461   1.972   8.638
 1188WAT     H1 3806   8.371   1.931   8.622
 1188WAT     H2 3807   8.530   1.924   8.584
 1189WAT      O 3808   1.861   2.660   2.578
 1189WAT     H1 3809   1.843   2.716   2.659
 1189WAT     H2 3810   1.941   2.602   2.595
 1190WAT      O 3811   3.205   9.519   3.850
 1190WAT     H1 3812   3.242   9.502   3.942
 1190WAT     H2 3813   3.156   9.607   3.850
 1191WAT      O 3814   3.646   2.075   3.733
 1191WAT     H1 3815   3.660   2.040   3.640
 1191WAT     H2 3816   3.559   2.126   3.736
 1192WAT      O 3817   6.945   5.130   7.509
 1192WAT     H1 3818   6.977   5.205   7.452
 1192WAT     H2 3819   6.848   5.144   7.531
 1193WAT      O 3820   0.420   6.849   1.411
 1193WAT     H1 3821   0.503   6.801   1.384
 1193WAT     H2 3822   0.438   6.948   1.416
 1194WAT      O 3823   4.920   2.754   0.047
 1194WAT     H1 3824   4.926   2.687  -0.026
 1194WAT     H2 3825   4.962   2.840   0.018
 1195WAT      O 3826   2.165   4.060   7.871
 1195WAT     H1 3827   2.122   4.150   7.877
 1195WAT     H2 3828   2.225   4.058   7.790
 1196WAT      O 3829   8.746   7.360   8.478
 1196WAT     H1 3830   8.649   7.349   8.457
 1196WAT     H2 3831   8.799   7.355   8.393
 1197WAT      O 3832   5.963   7.954   1.987
 1197WAT     H1 3833   5.891   7.958   1.918
 1197WAT     H2 3834   5.996   7.860   1.996
 1198WAT      O 3835   2.254   8.026   2.282
 1198WAT     H1 3836   2.285   8.055   2.191
 1198WAT     H2 3837   2.201   8.100   2.323
 1199WAT      O 3838   3.540   4.489   7.390
 1199WAT     H1 3839   3.455   4.530   7.357
 1199WAT     H2 3840   3.617   4.527   7.338
 1200WAT      O 3841   9.094   8.418   1.341
 1200WAT     H1 3842   9.075   8.483   1.414
 1200WAT     H2 3843   9.168   8.453   1.283
 1201WAT      O 3844   2.673   1.890   8.312
 1201WAT     H1 3845   2.662   1.831   8.393
 1201WAT     H2 3846   2.583   1.908   8.272
 1202WAT      O 3847   3.865   0.553   1.222
 1202WAT     H1 3848   3.908   0.463   1.220
 1202WAT     H2 3849   3.765   0.543   1.219
 1203WAT      O 3850   2.623   0.162   2.686
 1203WAT     H1 3851   2.692   0.125   2.749
 1203WAT     H2 3852   2.660   0.163   2.593
 1204WAT      O 3853   5.197   0.264   9.772
 1204WAT     H1 3854   5.222   0.277   9.675
 1204WAT     H2 3855   5.124   0.328   9.795
 1205WAT      O 3856   3.289   7.376   8.338
 1205WAT     H1 3857   3.265   7.403   8.244
 1205WAT     H2 3858   3.255   7.445   8.402
 1206WAT      O 3859   1.038   7.082   5.431
 1206WAT     H1 3860   0.953   7.083   5.483
 1206WAT     H2 3861   1.079   6.990   5.437
 1207WAT      O 3862   7.166   9.629   3.292
 1207WAT     H1 3863   7.260   9.661   3.296
 1207WAT     H2 3864   7.129   9.644   3.201
 1208WAT      O 3865   6.571   0.196   8.199
 1208WAT     H1 3866   6.655   0.201   8.145
 1208WAT     H2 3867   6.507   0.133   8.156
 1209WAT      O 3868   6.171   5.662   6.635
 1209WAT     H1 3869   6.200   5.571   6.607
 1209WAT     H2 3870   6.071   5.668   6.630
 1210WAT      O 3871   3.081   1.758   0.815
 1210WAT     H1 3872   3.101   1.669   0.774
 1210WAT     H2 3873   3.162   1.817   0.808
 1211WAT      O 3874   0.672   9.730   8.888
 1211WAT     H1 3875   0.649   9.661   8.819
 1211WAT     H2 3876   0.596   9.794   8.896
 1212WAT      O 3877   4.156   4.647   3.365
 1212WAT     H1 3878   4.159   4.656   3.464
 1212WAT     H2 3879   4.183   4.554   3.338
 1213WAT      O 3880   6.188   9.443   3.791
 1213WAT     H1 3881   6.134   9.393   3.859
 1213WAT     H2 3882   6.174   9.542   3.804
 1214WAT      O 3883   1.837   8.659   3.581
 1214WAT     H1 3884   1.787   8.664   3.667
 1214WAT     H2 3885   1.836   8.565   3.547
 1215WAT      O 3886   4.548   1.548   2.770
 1215WAT     H1 3887   4.480   1.497   2.717
 1215WAT     H2 3888   4.630   1.561   2.713
 1216WAT      O 3889   0.834   4.975   6.548
 1216WAT     H1 3890   0.810   5.018   6.635
 1216WAT     H2 3891   0.871   4.884   6.565
 1217WAT      O 3892   7.859   2.722   9.721
 1217WAT     H1 3893   7.817   2.765   9.641
 1217WAT     H2 3894   7.843   2.779   9.801
 1218WAT      O 3895   8.651   9.566   2.452
 1218WAT     H1 3896   8.665   9.569   2.551
 1218WAT     H2 3897   8.579   9.630   2.427
 1219WAT      O 3898   0.815   2.329   6.607
 1219WAT     H1 3899   0.904   2.309   6.648
 1219WAT     H2 3900   0.827   2.369   6.516
 1220WAT      O 3901   0.769   0.339   6.932
 1220WAT     H1 3902   0.737   0.425   6.972
 1220WAT     H2 3903   0.850   0.357   6.876
 1221WAT      O 3904   5.602   9.799   7.526
 1221WAT     H1 3905   5.554   9.847   7.453
 1221WAT     H2 3906   5.695   9.779   7.497
 1222WAT      O 3907   7.735   5.731   3.909
 1222WAT     H1 3908   7.647   5.775   3.928
 1222WAT     H2 3909   7.779   5.706   3.996
 1223WAT      O 3910   2.919   1.728   0.451
 1223WAT     H1 3911   2.968   1.688   0.528
 1223WAT     H2 3912   2.934   1.827   0.451
 1224WAT      O 3913   4.098   5.997   0.129
 1224WAT     H1 3914   4.090   5.998   0.029
 1224WAT     H2 3915   4.104   5.902   0.160
 1225WAT      O 3916   6.534   1.475   6.900
 1225WAT     H1 3917   6.570   1.520   6.818
 1225WAT     H2 3918   6.524   1.377   6.883
 1226WAT      O 3919   9.387   1.673   1.647
 1226WAT     H1 3920   9.441   1.589   1.653
 1226WAT     H2 3921   9.374   1.710   1.739
 1227WAT      O 3922   9.599   6.832   5.212
 1227WAT     H1 3923   9.622   6.789   5.299
 1227WAT     H2 3924   9.682   6.850   5.160
 1228WAT      O 3925   9.492   5.833   4.333
 1228WAT     H1 3926   9.415   5.826   4.396
 1228WAT     H2 3927   9.575   5.858   4.383
 1229WAT      O 3928   9.109   3.222   1.544
 1229WAT     H1 3929   9.107   3.227   1.444
 1229WAT     H2 3930   9.198   3.187   1.573
 1230WAT      O 3931   0.722   4.272   6.818
 1230WAT     H1 3932   0.786   4.221   6.875
 1230WAT     H2 3933   0.628   4.246   6.842
 1231WAT      O 3934   4.395   0.265   7.904
 1231WAT     H1 3935   4.381   0.278   7.806
 1231WAT     H2 3936   4.328   0.321   7.954
 1232WAT      O 3937   2.470   2.422   8.769
 1232WAT     H1 3938   2.379   2.453   8.740
 1232WAT     H2 3939   2.492   2.463   8.858
 1233WAT      O 3940   1.247   1.824   9.733
 1233WAT     H1 3941   1.160   1.871   9.717
 1233WAT     H2 3942   1.272   1.833   9.830
 1234WAT      O 3943   9.038   1.023   0.684
 1234WAT     H1 3944   9.104   1.094   0.663
 1234WAT     H2 3945   9.076   0.933   0.662
 1235WAT      O 3946   0.836   4.891   9.370
 1235WAT     H1 3947   0.926   4.849   9.379
 1235WAT     H2 3948   0.838   4.981   9.414
 1236WAT      O 3949   3.701   6.817   0.015
 1236WAT     H1 3950   3.718   6.731  -0.034
 1236WAT     H2 3951   3.782   6.842   0.067
 1237WAT      O 3952   5.912   0.470   2.128
 1237WAT     H1 3953   5.860   0.516   2.056
 1237WAT     H2 3954   5.992   0.426   2.089
 1238WAT      O 3955   2.158   0.741   2.924
 1238WAT     H1 3956   2.220   0.724   3.000
 1238WAT     H2 3957   2.094   0.664   2.916
 1239WAT      O 3958   7.928   7.893   6.956
 1239WAT     H1 3959   7.928   7.830   7.033
 1239WAT     H2 3960   8.001   7.868   6.892
 1240WAT      O 3961   0.035   5.081   8.396
 1240WAT     H1 3962   0.126   5.119   8.379
 1240WAT     H2 3963  -0.033   5.136   8.347
 1241WAT      O 3964   9.421   3.382   4.087
 1241WAT     H1 3965   9.430   3.400   4.185
 1241WAT     H2 3966   9.324   3.371   4.064
 1242WAT      O 3967   6.338   4.738   7.249
 1242WAT     H1 3968   6.379   4.653   7.281
 1242WAT     H2 3969   6.313   4.730   7.153
 1243WAT      O 3970   0.342   3.447   3.913
 1243WAT     H1 3971   0.344   3.470   4.010
 1243WAT     H2 3972   0.282   3.512   3.865
 1244WAT      O 3973   7.153   7.944   3.767
 1244WAT     H1 3974   7.084   7.880   3.802
 1244WAT     H2 3975   7.108   8.027   3.734
 1245WAT      O 3976   4.033   2.567   8.483
 1245WAT     H1 3977   4.060   2.491   8.424
 1245WAT     H2 3978   3.933   2.568   8.493
 1246WAT      O 3979   8.115   0.829   7.422
 1246WAT     H1 3980   8.150   0.916   7.388
 1246WAT     H2 3981   8.018   0.820   7.396
 1247WAT      O 3982   4.465   1.425   3.600
 1247WAT     H1 3983   4.478   1.345   3.659
 1247WAT     H2 3984   4.508   1.505   3.642
 1248WAT      O 3985   4.736   0.422   2.169
 1248WAT     H1 3986   4.718   0.482   2.247
 1248WAT     H2 3987   4.695   0.333   2.186
 1249WAT      O 3988   6.591   7.236   7.969
 1249WAT     H1 3989   6.657   7.312   7.971
 1249WAT     H2 3990   6.627   7.159   8.022
 1250WAT      O 3991   4.993   9.372   3.453
 1250WAT     H1 3992   4.896   9.394   3.464
 1250WAT     H2 3993   5.007   9.275   3.475
 1251WAT      O 3994   7.470   0.778   7.439
 1251WAT     H1 3995   7.527   0.696   7.446
 1251WAT     H2 3996   7.517   0.855   7.484
 1252WAT      O 3997   5.903   7.334   7.333
 1252WAT     H1 3998   5.803   7.333   7.324
 1252WAT     H2 3999   5.937   7.240   7.326
 1253WAT      O 4000   4.485   0.541   3.211
 1253WAT     H1 4001   4.447   0.601   3.140
 1253WAT     H2 4002   4.542   0.471   3.167
 1254WAT      O 4003   2.710   5.710   9.845
 1254WAT     H1 4004   2.700   5.703   9.745
 1254WAT     H2 4005   2.625   5.745   9.884
 1255WAT      O 4006   0.571   3.456   6.119
 1255WAT     H1 4007   0.489   3.468   6.175
 1255WAT     H2 4008   0.564   3.371   6.066
 1256WAT      O 4009   7.322   0.677   2.325
 1256WAT     H1 4010   7.400   0.669   2.263
 1256WAT     H2 4011   7.282   0.768   2.317
 1257WAT      O 4012   6.284   8.373   8.682
 1257WAT     H1 4013   6.228   8.300   8.719
 1257WAT     H2 4014   6.381   8.346   8.684
 1258WAT      O 4015   7.300   5.862   0.045
 1258WAT     H1 4016   7.204   5.889   0.052
 1258WAT     H2 4017   7.327   5.812   0.127
 1259WAT      O 4018   8.457   5.797   8.765
 1259WAT     H1 4019   8.552   5.772   8.780
 1259WAT     H2 4020   8.399   5.717   8.775
 1260WAT      O 4021   9.149   2.822   5.198
 1260WAT     H1 4022   9.208   2.795   5.274
 1260WAT     H2 4023   9.076   2.882   5.231
 1261WAT      O 4024   3.080   9.651   1.488
 1261WAT     H1 4025   2.987   9.622   1.468
 1261WAT     H2 4026   3.123   9.584   1.549
 1262WAT      O 4027   3.813   0.227   8.218
 1262WAT     H1 4028   3.874   0.281   8.160
 1262WAT     H2 4029   3.819   0.259   8.312
 1263WAT      O 4030   6.765   9.374   6.725
 1263WAT     H1 4031   6.800   9.442   6.790
 1263WAT     H2 4032   6.675   9.403   6.692
 1264WAT      O 4033   4.446   2.715   7.200
 1264WAT     H1 4034   4.450   2.714   7.100
 1264WAT     H2 4035   4.475   2.627   7.236
 1265WAT      O 4036   2.617   4.409   5.387
 1265WAT     H1 4037   2.600   4.475   5.314
 1265WAT     H2 4038   2.530   4.373   5.420
 1266WAT      O 4039   9.850   1.695   8.376
 1266WAT     H1 4040   9.823   1.785   8.341
 1266WAT     H2 4041   9.891   1.706   8.467
 1267WAT      O 4042   0.854   3.656   7.853
 1267WAT     H1 4043   0.894   3.576   7.898
 1267WAT     H2 4044   0.772   3.685   7.902
 1268WAT      O 4045   2.141   2.441   6.636
 1268WAT     H1 4046   2.117   2.358   6.587
 1268WAT     H2 4047   2.132   2.520   6.575
 1269WAT      O 4048   1.405   4.879   9.518
 1269WAT     H1 4049   1.367   4.796   9.557
 1269WAT     H2 4050   1.395   4.877   9.418
 1270WAT      O 4051   5.208   2.693   8.705
 1270WAT     H1 4052   5.306   2.677   8.711
 1270WAT     H2 4053   5.161   2.640   8.776
 1271WAT      O 4054   7.053   7.545   1.409
 1271WAT     H1 4055   7.027   7.451   1.385
 1271WAT     H2 4056   7.082   7.548   1.504
 1272WAT      O 4057   0.609   4.261   1.140
 1272WAT     H1 4058   0.664   4.190   1.185
 1272WAT     H2 4059   0.571   4.322   1.209
 1273WAT      O 4060   2.190   6.986   0.897
 1273WAT     H1 4061   2.195   6.974   0.997
 1273WAT     H2 4062   2.281   6.970   0.858
 1274WAT      O 4063   3.451   8.088   3.559
 1274WAT     H1 4064   3.423   8.083   3.463
 1274WAT     H2 4065   3.536   8.141   3.566
 1275WAT      O 4066   4.209   7.012   0.699
 1275WAT     H1 4067   4.153   7.070   0.759
 1275WAT     H2 4068   4.257   6.944   0.753
 1276WAT      O 4069   2.316   4.887   1.772
 1276WAT     H1 4070   2.368   4.850   1.695
 1276WAT     H2 4071   2.240   4.942   1.738
 1277WAT      O 4072   8.713   6.532   0.293
 1277WAT     H1 4073   8.624   6.540   0.338
 1277WAT     H2 4074   8.703   6.474   0.212
 1278WAT      O 4075   7.935   1.581   8.765
 1278WAT     H1 4076   7.933   1.492   8.810
 1278WAT     H2 4077   8.006   1.638   8.807
 1279WAT      O 4078   7.459   6.635   3.704
 1279WAT     H1 4079   7.415   6.631   3.794
 1279WAT     H2 4080   7.494   6.728   3.689
 1280WAT      O 4081   5.895   1.166   4.711
 1280WAT     H1 4082   5.857   1.248   4.668
 1280WAT     H2 4083   5.831   1.131   4.779
 1281WAT      O 4084   9.286   4.435   3.668
 1281WAT     H1 4085   9.247   4.526   3.684
 1281WAT     H2 4086   9.277   4.380   3.751
 1282WAT      O 4087   8.057   9.512   0.539
 1282WAT     H1 4088   7.978   9.456   0.565
 1282WAT     H2 4089   8.046   9.604   0.577
 1283WAT      O 4090   6.506   3.546   0.890
 1283WAT     H1 4091   6.488   3.452   0.919
 1283WAT     H2 4092   6.512   3.605   0.970
 1284WAT      O 4093   6.513   0.321   1.573
 1284WAT     H1 4094   6.525   0.324   1.473
 1284WAT     H2 4095   6.601   0.341   1.617
 1285WAT      O 4096   4.133   6.222   6.895
 1285WAT     H1 4097   4.052   6.232   6.953
 1285WAT     H2 4098   4.126   6.136   6.844
 1286WAT      O 4099   6.246   4.707   6.977
 1286WAT     H1 4100   6.271   4.610   6.976
 1286WAT     H2 4101   6.164   4.722   6.921
 1287WAT      O 4102   3.326   9.503   7.284
 1287WAT     H1 4103   3.425   9.486   7.283
 1287WAT     H2 4104   3.285   9.457   7.362
 1288WAT      O 4105   1.538   1.953   8.982
 1288WAT     H1 4106   1.507   1.986   8.893
 1288WAT     H2 4107   1.461   1.916   9.034
 1289WAT      O 4108   8.385   3.207   9.874
 1289WAT     H1 4109   8.472   3.222   9.922
 1289WAT     H2 4110   8.310   3.215   9.939
 1290WAT      O 4111   4.750   0.543   1.117
 1290WAT     H1 4112   4.840   0.585   1.112
 1290WAT     H2 4113   4.760   0.444   1.131
 1291WAT      O 4114   5.997   9.354   4.294
 1291WAT     H1 4115   6.057   9.303   4.233
 1291WAT     H2 4116   5.903   9.325   4.281
 1292WAT      O 4117   7.894   2.426   8.953
 1292WAT     H1 4118   7.840   2.342   8.953
 1292WAT     H2 4119   7.991   2.403   8.940
 1293WAT      O 4120   4.979   6.206   5.132
 1293WAT     H1 4121   4.917   6.169   5.201
 1293WAT     H2 4122   5.004   6.134   5.067
 1294WAT      O 4123   2.508   5.047   9.462
 1294WAT     H1 4124   2.509   4.949   9.446
 1294WAT     H2 4125   2.597   5.086   9.439
 1295WAT      O 4126   6.976   0.760   5.998
 1295WAT     H1 4127   7.003   0.739   5.904
 1295WAT     H2 4128   7.057   0.776   6.054
 1296WAT      O 4129   3.940   9.117   6.254
 1296WAT     H1 4130   3.880   9.155   6.325
 1296WAT     H2 4131   4.016   9.179   6.238
 1297WAT      O 4132   8.004   0.712   0.313
 1297WAT     H1 4133   7.998   0.680   0.218
 1297WAT     H2 4134   8.101   0.720   0.338
 1298WAT      O 4135   1.736   0.058   5.618
 1298WAT     H1 4136   1.776   0.130   5.560
 1298WAT     H2 4137   1.679   0.100   5.688
 1299WAT      O 4138   3.912   8.474   0.474
 1299WAT     H1 4139   3.835   8.422   0.439
 1299WAT     H2 4140   3.879   8.552   0.527
 1300WAT      O 4141   4.158   6.515   7.696
 1300WAT     H1 4142   4.227   6.542   7.629
 1300WAT     H2 4143   4.067   6.524   7.656
 1301WAT      O 4144   9.677   3.263   4.802
 1301WAT     H1 4145   9.712   3.214   4.882
 1301WAT     H2 4146   9.580   3.240   4.788
 1302WAT      O 4147   8.575   9.377   1.758
 1302WAT     H1 4148   8.545   9.376   1.663
 1302WAT     H2 4149   8.527   9.450   1.807
 1303WAT      O 4150   5.991   8.198   4.814
 1303WAT     H1 4151   6.005   8.291   4.848
 1303WAT     H2 4152   5.917   8.154   4.865
 1304WAT      O 4153   5.132   0.288   3.378
 1304WAT     H1 4154   5.127   0.299   3.477
 1304WAT     H2 4155   5.193   0.212   3.356
 1305WAT      O 4156   5.945   2.548   5.924
 1305WAT     H1 4157   5.847   2.567   5.926
 1305WAT     H2 4158   5.961   2.455   5.892
 1306WAT      O 4159   6.482   6.781   1.337
 1306WAT     H1 4160   6.520   6.817   1.423
 1306WAT     H2 4161   6.383   6.786   1.341
 1307WAT      O 4162   2.829   8.151   4.354
 1307WAT     H1 4163   2.734   8.165   4.380
 1307WAT     H2 4164   2.838   8.162   4.255
 1308WAT      O 4165   5.564   8.186   4.914
 1308WAT     H1 4166   5.478   8.140   4.935
 1308WAT     H2 4167   5.639   8.138   4.959
 1309WAT      O 4168   8.457   5.575   8.375
 1309WAT     H1 4169   8.471   5.523   8.460
 1309WAT     H2 4170   8.480   5.671   8.390
 1310WAT      O 4171   5.259   3.222   9.569
 1310WAT     H1 4172   5.175   3.273   9.590
 1310WAT     H2 4173   5.240   3.153   9.499
 1311WAT      O 4174   6.305   3.898   7.170
 1311WAT     H1 4175   6.297   3.799   7.159
 1311WAT     H2 4176   6.310   3.921   7.267
 1312WAT      O 4177   8.905   7.041   1.925
 1312WAT     H1 4178   8.987   6.983   1.928
 1312WAT     H2 4179   8.830   6.991   1.881
 1313WAT      O 4180   1.890   4.137   2.452
 1313WAT     H1 4181   1.926   4.071   2.386
 1313WAT     H2 4182   1.850   4.088   2.530
 1314WAT      O 4183   7.423   0.409   1.953
 1314WAT     H1 4184   7.324   0.413   1.939
 1314WAT     H2 4185   7.469   0.440   1.870
 1315WAT      O 4186   3.759   0.116   4.922
 1315WAT     H1 4187   3.798   0.034   4.881
 1315WAT     H2 4188   3.808   0.196   4.890
 1316WAT      O 4189   0.860   0.792   1.121
 1316WAT     H1 4190   0.840   0.694   1.114
 1316WAT     H2 4191   0.952   0.809   1.087
 1317WAT      O 4192   1.464   9.224   3.534
 1317WAT     H1 4193   1.381   9.225   3.478
 1317WAT     H2 4194   1.540   9.188   3.481
 1318WAT      O 4195   7.523   8.874   4.880
 1318WAT     H1 4196   7.596   8.820   4.839
 1318WAT     H2 4197   7.436   8.826   4.869
 1319WAT      O 4198   6.704   3.130   9.126
 1319WAT     H1 4199   6.763   3.204   9.160
 1319WAT     H2 4200   6.628   3.116   9.189
 1320WAT      O 4201   8.381   7.349   5.097
 1320WAT     H1 4202   8.417   7.329   5.188
 1320WAT     H2 4203   8.330   7.436   5.100
 1321WAT      O 4204   4.034   0.126   6.064
 1321WAT     H1 4205   3.961   0.147   6.128
 1321WAT     H2 4206   3.995   0.094   5.978
 1322WAT      O 4207   5.440   7.408   5.847
 1322WAT     H1 4208   5.393   7.320   5.855
 1322WAT     H2 4209   5.500   7.421   5.926
 1323WAT      O 4210   9.591   6.609   8.828
 1323WAT     H1 4211   9.512   6.663   8.797
 1323WAT     H2 4212   9.563   6.515   8.844
 1324WAT      O 4213   1.711   8.289   4.114
 1324WAT     H1 4214   1.640   8.332   4.170
 1324WAT     H2 4215   1.770   8.360   4.076
 1325WAT      O 4216   2.984   7.615   0.829
 1325WAT     H1 4217   2.944   7.565   0.905
 1325WAT     H2 4218   2.997   7.711   0.856
 1326WAT      O 4219   5.417   3.173   2.842
 1326WAT     H1 4220   5.427   3.240   2.769
 1326WAT     H2 4221   5.429   3.218   2.930
 1327WAT      O 4222   7.285   2.742   1.555
 1327WAT     H1 4223   7.343   2.803   1.501
 1327WAT     H2 4224   7.189   2.768   1.543
 1328WAT      O 4225   6.649   2.411   5.057
 1328WAT     H1 4226   6.688   2.438   5.145
 1328WAT     H2 4227   6.670   2.315   5.039
 1329WAT      O 4228   8.075   2.308   4.377
 1329WAT     H1 4229   8.066   2.214   4.344
 1329WAT     H2 4230   8.009   2.323   4.450
 1330WAT      O 4231   0.264   6.245   8.499
 1330WAT     H1 4232   0.331   6.286   8.561
 1330WAT     H2 4233   0.210   6.318   8.456
 1331WAT      O 4234   7.043   8.941   2.281
 1331WAT     H1 4235   7.106   9.003   2.233
 1331WAT     H2 4236   6.952   8.981   2.283
 1332WAT      O 4237   4.321   1.414   7.150
 1332WAT     H1 4238   4.347   1.476   7.224
 1332WAT     H2 4239   4.331   1.460   7.062
 1333WAT      O 4240   1.555   6.078   4.147
 1333WAT     H1 4241   1.597   5.989   4.128
 1333WAT     H2 4242   1.459   6.076   4.120
 1334WAT      O 4243   6.722   0.540   1.838
 1334WAT     H1 4244   6.623   0.526   1.838
 1334WAT     H2 4245   6.765   0.475   1.901
 1335WAT      O 4246   8.609   4.559   8.755
 1335WAT     H1 4247   8.657   4.479   8.791
 1335WAT     H2 4248   8.674   4.617   8.705
 1336WAT      O 4249   3.594   2.485   7.619
 1336WAT     H1 4250   3.559   2.524   7.534
 1336WAT     H2 4251   3.625   2.391   7.603
 1337WAT      O 4252   8.664   5.775   9.520
 1337WAT     H1 4253   8.642   5.678   9.527
 1337WAT     H2 4254   8.660   5.804   9.425
 1338WAT      O 4255   2.230   0.508   9.144
 1338WAT     H1 4256   2.173   0.552   9.075
 1338WAT     H2 4257   2.304   0.459   9.100
 1339WAT      O 4258   7.396   0.339   5.044
 1339WAT     H1 4259   7.388   0.388   4.958
 1339WAT     H2 4260   7.484   0.360   5.087
 1340WAT      O 4261   4.508   9.798   3.963
 1340WAT     H1 4262   4.472   9.858   4.034
 1340WAT     H2 4263   4.437   9.780   3.895
 1341WAT      O 4264   9.450   4.767   3.264
 1341WAT     H1 4265   9.460   4.865   3.248
 1341WAT     H2 4266   9.354   4.746   3.283
 1342WAT      O 4267   1.793   5.360   5.204
 1342WAT     H1 4268   1.819   5.341   5.109
 1342WAT     H2 4269   1.710   5.309   5.227
 1343WAT      O 4270   0.931   8.847   7.727
 1343WAT     H1 4271   0.938   8.928   7.786
 1343WAT     H2 4272   1.007   8.848   7.662
 1344WAT      O 4273   6.904   6.727   7.248
 1344WAT     H1 4274   6.921   6.629   7.261
 1344WAT     H2 4275   6.892   6.745   7.150
 1345WAT      O 4276   4.696   8.632   9.470
 1345WAT     H1 4277   4.677   8.679   9.383
 1345WAT     H2 4278   4.703   8.700   9.543
 1346WAT      O 4279   8.910   9.594   4.438
 1346WAT     H1 4280   8.945   9.556   4.524
 1346WAT     H2 4281   8.942   9.689   4.429
 1347WAT      O 4282   5.317   9.288   9.606
 1347WAT     H1 4283   5.300   9.226   9.529
 1347WAT     H2 4284   5.335   9.235   9.689
 1348WAT      O 4285   8.112   7.107   2.859
 1348WAT     H1 4286   8.096   7.017   2.899
 1348WAT     H2 4287   8.095   7.177   2.928
 1349WAT      O 4288   9.555   4.946   3.005
 1349WAT     H1 4289   9.499   4.888   2.945
 1349WAT     H2 4290   9.644   4.903   3.019
 1350WAT      O 4291   6.964   6.836   5.741
 1350WAT     H1 4292   6.878   6.840   5.793
 1350WAT     H2 4293   6.972   6.748   5.696
 1351WAT      O 4294   5.541   1.988   2.392
 1351WAT     H1 4295   5.547   1.969   2.490
 1351WAT     H2 4296   5.446   1.979   2.362
 1352WAT      O 4297   1.219   7.504   2.711
 1352WAT     H1 4298   1.305   7.470   2.749
 1352WAT     H2 4299   1.143   7.447   2.743
 1353WAT      O 4300   6.395   4.367   0.179
 1353WAT     H1 4301   6.469   4.316   0.222
 1353WAT     H2 4302   6.385   4.456   0.224
 1354WAT      O 4303   6.986   6.738   4.107
 1354WAT     H1 4304   6.989   6.773   4.201
 1354WAT     H2 4305   7.019   6.808   4.044
 1355WAT      O 4306   7.209   6.729   9.864
 1355WAT     H1 4307   7.113   6.705   9.873
 1355WAT     H2 4308   7.249   6.744   9.954
 1356WAT      O 4309   7.312   2.639   9.060
 1356WAT     H1 4310   7.378   2.591   9.116
 1356WAT     H2 4311   7.359   2.687   8.986
 1357WAT      O 4312   7.483   8.648   5.448
 1357WAT     H1 4313   7.562   8.598   5.413
 1357WAT     H2 4314   7.503   8.745   5.452
 1358WAT      O 4315   6.932   4.324   4.717
 1358WAT     H1 4316   6.938   4.401   4.781
 1358WAT     H2 4317   7.024   4.290   4.696
 1359WAT      O 4318   6.600   3.649   6.389
 1359WAT     H1 4319   6.648   3.563   6.407
 1359WAT     H2 4320   6.600   3.667   6.290
 1360WAT      O 4321   8.639   0.673   5.768
 1360WAT     H1 4322   8.684   0.708   5.850
 1360WAT     H2 4323   8.652   0.574   5.763
 1361WAT      O 4324   7.529   5.320   8.532
 1361WAT     H1 4325   7.429   5.311   8.535
 1361WAT     H2 4326   7.561   5.305   8.438
 1362WAT      O 4327   0.309   4.854   9.686
 1362WAT     H1 4328   0.269   4.943   9.707
 1362WAT     H2 4329   0.306   4.838   9.588
 1363WAT      O 4330   2.631   0.074   7.145
 1363WAT     H1 4331   2.610   0.137   7.220
 1363WAT     H2 4332   2.728   0.050   7.146
 1364WAT      O 4333   3.363   5.419   6.839
 1364WAT     H1 4334   3.385   5.332   6.795
 1364WAT     H2 4335   3.270   5.447   6.814
 1365WAT      O 4336   6.749   1.028   0.270
 1365WAT     H1 4337   6.784   1.070   0.354
 1365WAT     H2 4338   6.757   0.928   0.278
 1366WAT      O 4339   4.845   4.810   6.235
 1366WAT     H1 4340   4.865   4.714   6.217
 1366WAT     H2 4341   4.917   4.867   6.197
 1367WAT      O 4342   5.649   6.275   9.636
 1367WAT     H1 4343   5.631   6.246   9.730
 1367WAT     H2 4344   5.746   6.264   9.615
 1368WAT      O 4345   4.675   3.328   9.338
 1368WAT     H1 4346   4.715   3.326   9.246
 1368WAT     H2 4347   4.605   3.257   9.345
 1369WAT      O 4348   9.206   7.925   3.482
 1369WAT     H1 4349   9.128   7.864   3.475
 1369WAT     H2 4350   9.285   7.885   3.434
 1370WAT      O 4351   4.081   9.088   0.298
 1370WAT     H1 4352   4.130   9.023   0.240
 1370WAT     H2 4353   4.040   9.039   0.375
 1371WAT      O 4354   7.372   7.575   4.271
 1371WAT     H1 4355   7.468   7.566   4.241
 1371WAT     H2 4356   7.367   7.637   4.349
 1372WAT      O 4357   3.466   2.285   6.384
 1372WAT     H1 4358   3.468   2.382   6.358
 1372WAT     H2 4359   3.402   2.236   6.324
 1373WAT      O 4360   1.884   7.246   9.874
 1373WAT     H1 4361   1.809   7.274   9.934
 1373WAT     H2 4362   1.947   7.187   9.924
 1374WAT      O 4363   4.441   9.293   2.525
 1374WAT     H1 4364   4.532   9.281   2.487
 1374WAT     H2 4365   4.372   9.269   2.456
 1375WAT      O 4366   4.903   1.045   5.413
 1375WAT     H1 4367   4.977   0.979   5.423
 1375WAT     H2 4368   4.861   1.062   5.502
 1376WAT      O 4369   3.655   8.522   9.715
 1376WAT     H1 4370   3.721   8.457   9.677
 1376WAT     H2 4371   3.563   8.495   9.688
 1377WAT      O 4372   2.243   1.455   0.531
 1377WAT     H1 4373   2.248   1.554   0.517
 1377WAT     H2 4374   2.322   1.425   0.584
 1378WAT      O 4375   6.855   9.603   7.920
 1378WAT     H1 4376   6.949   9.638   7.921
 1378WAT     H2 4377   6.855   9.510   7.884
 1379WAT      O 4378   2.182   1.796   6.616
 1379WAT     H1 4379   2.085   1.773   6.607
 1379WAT     H2 4380   2.237   1.715   6.597
 1380WAT      O 4381   4.837   1.743   4.519
 1380WAT     H1 4382   4.763   1.745   4.586
 1380WAT     H2 4383   4.798   1.743   4.427
 1381WAT      O 4384   3.821   8.998   1.919
 1381WAT     H1 4385   3.725   9.017   1.898
 1381WAT     H2 4386   3.869   8.972   1.835
 1382WAT      O 4387   3.586   1.503   6.866
 1382WAT     H1 4388   3.505   1.461   6.826
 1382WAT     H2 4389   3.611   1.585   6.815
 1383WAT      O 4390   0.161   1.821   8.143
 1383WAT     H1 4391   0.205   1.808   8.232
 1383WAT     H2 4392   0.228   1.806   8.071
 1384WAT      O 4393   8.759   2.572   9.758
 1384WAT     H1 4394   8.760   2.639   9.684
 1384WAT     H2 4395   8.746   2.480   9.720
 1385WAT      O 4396   9.600   3.928   6.572
 1385WAT     H1 4397   9.508   3.901   6.600
 1385WAT     H2 4398   9.667   3.884   6.631
 1386WAT      O 4399   6.902   2.662   6.311
 1386WAT     H1 4400   6.930   2.745   6.359
 1386WAT     H2 4401   6.946   2.659   6.221
 1387WAT      O 4402   7.244   7.892   8.879
 1387WAT     H1 4403   7.189   7.812   8.858
 1387WAT     H2 4404   7.339   7.864   8.892
 1388WAT      O 4405   9.456   7.079   1.438
 1388WAT     H1 4406   9.395   7.080   1.517
 1388WAT     H2 4407   9.549   7.101   1.467
 1389WAT      O 4408   1.797   9.251   1.536
 1389WAT     H1 4409   1.806   9.179   1.606
 1389WAT     H2 4410   1.712   9.237   1.486
 1390WAT      O 4411   6.814   2.630   3.483
 1390WAT     H1 4412   6.791   2.566   3.409
 1390WAT     H2 4413   6.741   2.698   3.491
 1391WAT      O 4414   2.278   0.388   7.530
 1391WAT     H1 4415   2.265   0.433   7.618
 1391WAT     H2 4416   2.363   0.420   7.488
 1392WAT      O 4417   5.574   3.595   7.229
 1392WAT     H1 4418   5.603   3.664   7.162
 1392WAT     H2 4419   5.649   3.531   7.246
 1393WAT      O 4420   5.447   9.243   3.600
 1393WAT     H1 4421   5.371   9.289   3.646
 1393WAT     H2 4422   5.436   9.251   3.501
 1394WAT      O 4423   2.635   2.729   8.563
 1394WAT     H1 4424   2.592   2.703   8.649
 1394WAT     H2 4425   2.671   2.822   8.570
 1395WAT      O 4426   6.454   4.337   5.286
 1395WAT     H1 4427   6.415   4.379   5.204
 1395WAT     H2 4428   6.483   4.243   5.265
 1396WAT      O 4429   7.291   0.536   7.929
 1396WAT     H1 4430   7.268   0.630   7.905
 1396WAT     H2 4431   7.207   0.484   7.947
 1397WAT      O 4432   4.217   4.278   9.320
 1397WAT     H1 4433   4.191   4.256   9.414
 1397WAT     H2 4434   4.158   4.351   9.286
 1398WAT      O 4435   6.579   9.409   9.272
 1398WAT     H1 4436   6.542   9.367   9.189
 1398WAT     H2 4437   6.571   9.508   9.266
 1399WAT      O 4438   7.345   7.270   9.037
 1399WAT     H1 4439   7.319   7.306   8.948
 1399WAT     H2 4440   7.263   7.239   9.086
 1400WAT      O 4441   7.681   6.558   8.920
 1400WAT     H1 4442   7.766   6.510   8.897
 1400WAT     H2 4443   7.698   6.656   8.924
 1401WAT      O 4444   6.899   2.998   7.602
 1401WAT     H1 4445   6.965   3.039   7.539
 1401WAT     H2 4446   6.916   2.900   7.610
 1402WAT      O 4447   2.972   6.998   0.919
 1402WAT     H1 4448   2.951   7.096   0.922
 1402WAT     H2 4449   3.036   6.980   0.844
 1403WAT      O 4450   4.911   3.385   3.668
 1403WAT     H1 4451   4.826   3.369   3.618
 1403WAT     H2 4452   4.924   3.483   3.681
 1404WAT      O 4453   8.654   3.148   5.102
 1404WAT     H1 4454   8.742   3.174   5.142
 1404WAT     H2 4455   8.669   3.105   5.013
 1405WAT      O 4456   7.742   1.171   1.730
 1405WAT     H1 4457   7.644   1.159   1.744
 1405WAT     H2 4458   7.788   1.173   1.819
 1406WAT      O 4459   7.336   1.140   5.097
 1406WAT     H1 4460   7.432   1.110   5.105
 1406WAT     H2 4461   7.329   1.210   5.026
 1407WAT      O 4462   5.606   0.303   6.428
 1407WAT     H1 4463   5.609   0.242   6.349
 1407WAT     H2 4464   5.573   0.393   6.399
 1408WAT      O 4465   9.277   7.748   9.629
 1408WAT     H1 4466   9.347   7.795   9.683
 1408WAT     H2 4467   9.308   7.656   9.607
 1409WAT      O 4468   5.646   3.009   8.742
 1409WAT     H1 4469   5.677   3.002   8.648
 1409WAT     H2 4470   5.617   2.919   8.775
 1410WAT      O 4471   6.547   3.152   5.231
 1410WAT     H1 4472   6.600   3.145   5.147
 1410WAT     H2 4473   6.558   3.243   5.270
 1411WAT      O 4474   6.675   7.320   1.198
 1411WAT     H1 4475   6.660   7.375   1.280
 1411WAT     H2 4476   6.616   7.240   1.201
 1412WAT      O 4477   5.488   8.808   4.142
 1412WAT     H1 4478   5.514   8.878   4.208
 1412WAT     H2 4479   5.408   8.758   4.176
 1413WAT      O 4480   5.299   9.527   4.642
 1413WAT     H1 4481   5.327   9.433   4.663
 1413WAT     H2 4482   5.283   9.577   4.727
 1414WAT      O 4483   1.860   3.334   4.137
 1414WAT     H1 4484   1.845   3.359   4.042
 1414WAT     H2 4485   1.774   3.301   4.177
 1415WAT      O 4486   5.388   0.391   7.468
 1415WAT     H1 4487   5.395   0.456   7.392
 1415WAT     H2 4488   5.294   0.357   7.474
 1416WAT      O 4489   7.182   8.502   1.213
 1416WAT     H1 4490   7.265   8.557   1.204
 1416WAT     H2 4491   7.107   8.560   1.244
 1417WAT      O 4492   7.657   3.781   0.463
 1417WAT     H1 4493   7.596   3.752   0.537
 1417WAT     H2 4494   7.618   3.756   0.375
 1418WAT      O 4495   5.929   7.565   6.576
 1418WAT     H1 4496   5.927   7.650   6.523
 1418WAT     H2 4497   5.945   7.487   6.515
 1419WAT      O 4498   0.768   9.474   6.683
 1419WAT     H1 4499   0.685   9.503   6.635
 1419WAT     H2 4500   0.747   9.462   6.780
 1420WAT      O 4501   5.909   6.683   4.407
 1420WAT     H1 4502   5.877   6.755   4.346
 1420WAT     H2 4503   5.992   6.640   4.368
 1421WAT      O 4504   0.677   2.278   6.952
 1421WAT     H1 4505   0.598   2.218   6.946
 1421WAT     H2 4506   0.659   2.363   6.901
 1422WAT      O 4507   3.691   1.368   6.475
 1422WAT     H1 4508   3.668   1.465   6.477
 1422WAT     H2 4509   3.791   1.358   6.473
 1423WAT      O 4510   1.723   5.546   9.777
 1423WAT     H1 4511   1.780   5.611   9.726
 1423WAT     H2 4512   1.775   5.512   9.856
 1424WAT      O 4513   8.837   1.236   3.923
 1424WAT     H1 4514   8.819   1.321   3.971
 1424WAT     H2 4515   8.857   1.164   3.990
 1425WAT      O 4516   5.420   9.840   4.585
 1425WAT     H1 4517   5.367   9.813   4.666
 1425WAT     H2 4518   5.418   9.767   4.517
 1426WAT      O 4519   0.120   8.703   1.614
 1426WAT     H1 4520   0.198   8.648   1.585
 1426WAT     H2 4521   0.153   8.783   1.664
 1427WAT      O 4522   3.852   7.650   0.853
 1427WAT     H1 4523   3.950   7.659   0.837
 1427WAT     H2 4524   3.811   7.742   0.856
 1428WAT      O 4525   4.187   8.922   8.157
 1428WAT     H1 4526   4.151   8.837   8.194
 1428WAT     H2 4527   4.217   8.908   8.063
 1429WAT      O 4528   3.750   2.984   5.390
 1429WAT     H1 4529   3.819   2.978   5.318
 1429WAT     H2 4530   3.673   3.039   5.357
 1430WAT      O 4531   6.564   9.836   4.585
 1430WAT     H1 4532   6.504   9.863   4.509
 1430WAT     H2 4533   6.659   9.857   4.562
 1431WAT      O 4534   1.815   1.377   4.872
 1431WAT     H1 4535   1.852   1.389   4.780
 1431WAT     H2 4536   1.880   1.325   4.928
 1432WAT      O 4537   0.020   0.233   8.448
 1432WAT     H1 4538   0.013   0.247   8.547
 1432WAT     H2 4539  -0.017   0.313   8.401
 1433WAT      O 4540   8.302   0.106   1.615
 1433WAT     H1 4541   8.319   0.033   1.549
 1433WAT     H2 4542   8.378   0.110   1.680
 1434WAT      O 4543   6.412   5.561   4.589
 1434WAT     H1 4544   6.495   5.577   4.642
 1434WAT     H2 4545   6.342   5.628   4.615
 1435WAT      O 4546   3.498   8.754   7.804
 1435WAT     H1 4547   3.398   8.753   7.802
 1435WAT     H2 4548   3.533   8.663   7.781
 1436WAT      O 4549   2.164   3.210   8.003
 1436WAT     H1 4550   2.213   3.161   7.931
 1436WAT     H2 4551   2.094   3.151   8.043
 1437WAT      O 4552   5.127   6.387   9.095
 1437WAT     H1 4553   5.223   6.374   9.119
 1437WAT     H2 4554   5.120   6.451   9.018
 1438WAT      O 4555   7.992   7.349   2.438
 1438WAT     H1 4556   7.997   7.318   2.533
 1438WAT     H2 4557   7.897   7.349   2.407
 1439WAT      O 4558   1.975   4.814   9.357
 1439WAT     H1 4559   1.893   4.845   9.404
 1439WAT     H2 4560   2.039   4.891   9.346
 1440WAT      O 4561   8.874   2.907   8.426
 1440WAT     H1 4562   8.890   2.961   8.344
 1440WAT     H2 4563   8.953   2.848   8.444
 1441WAT      O 4564   4.196   0.749   6.894
 1441WAT     H1 4565   4.226   0.807   6.969
 1441WAT     H2 4566   4.195   0.654   6.924
 1442WAT      O 4567   5.615   7.705   1.779
 1442WAT     H1 4568   5.568   7.787   1.814
 1442WAT     H2 4569   5.574   7.678   1.692
 1443WAT      O 4570   0.543   9.636   1.301
 1443WAT     H1 4571   0.542   9.639   1.201
 1443WAT     H2 4572   0.615   9.575   1.332
 1444WAT      O 4573   2.520   0.455   7.193
 1444WAT     H1 4574   2.423   0.472   7.174
 1444WAT     H2 4575   2.528   0.385   7.264
 1445WAT      O 4576   7.060   5.979   3.845
 1445WAT     H1 4577   7.014   5.964   3.758
 1445WAT     H2 4578   7.006   6.043   3.901
 1446WAT      O 4579   5.179   1.502   6.072
 1446WAT     H1 4580   5.176   1.478   5.975
 1446WAT     H2 4581   5.087   1.493   6.111
 1447WAT      O 4582   6.841   3.171   0.250
 1447WAT     H1 4583   6.787   3.089   0.232
 1447WAT     H2 4584   6.795   3.251   0.210
 1448WAT      O 4585   8.462   8.529   7.480
 1448WAT     H1 4586   8.422   8.452   7.430
 1448WAT     H2 4587   8.522   8.495   7.552
 1449WAT      O 4588   0.860   0.404   8.958
 1449WAT     H1 4589   0.821   0.407   8.866
 1449WAT     H2 4590   0.791   0.373   9.022
 1450WAT      O 4591   4.314   2.696   3.524
 1450WAT     H1 4592   4.223   2.737   3.518
 1450WAT     H2 4593   4.379   2.753   3.475
 1451WAT      O 4594   1.924   1.298   9.390
 1451WAT     H1 4595   1.913   1.203   9.362
 1451WAT     H2 4596   2.007   1.307   9.444
 1452WAT      O 4597   1.283   1.659   7.953
 1452WAT     H1 4598   1.267   1.710   8.038
 1452WAT     H2 4599   1.302   1.724   7.879
 1453WAT      O 4600   7.513   4.385   3.255
 1453WAT     H1 4601   7.544   4.443   3.329
 1453WAT     H2 4602   7.446   4.435   3.199
 1454WAT      O 4603   0.764   8.525   2.648
 1454WAT     H1 4604   0.736   8.520   2.744
 1454WAT     H2 4605   0.684   8.514   2.589
 1455WAT      O 4606   1.924   2.279   1.809
 1455WAT     H1 4607   1.966   2.303   1.896
 1455WAT     H2 4608   1.987   2.221   1.756
 1456WAT      O 4609   3.844   7.233   3.196
 1456WAT     H1 4610   3.886   7.212   3.284
 1456WAT     H2 4611   3.747   7.213   3.199
 1457WAT      O 4612   5.314   2.013   1.805
 1457WAT     H1 4613   5.333   2.083   1.874
 1457WAT     H2 4614   5.351   2.041   1.717
 1458WAT      O 4615   9.623   2.069   4.361
 1458WAT     H1 4616   9.619   2.169   4.351
 1458WAT     H2 4617   9.554   2.027   4.303
 1459WAT      O 4618   2.356   7.916   5.324
 1459WAT     H1 4619   2.264   7.951   5.302
 1459WAT     H2 4620   2.379   7.843   5.260
 1460WAT      O 4621   5.072   4.298   1.467
 1460WAT     H1 4622   5.131   4.289   1.547
 1460WAT     H2 4623   5.114   4.253   1.389
 1461WAT      O 4624   2.575   8.542   0.766
 1461WAT     H1 4625   2.621   8.559   0.853
 1461WAT     H2 4626   2.580   8.623   0.709
 1462WAT      O 4627   8.936   2.214   3.483
 1462WAT     H1 4628   8.935   2.115   3.497
 1462WAT     H2 4629   9.001   2.236   3.409
 1463WAT      O 4630   2.652   4.528   6.809
 1463WAT     H1 4631   2.575   4.489   6.858
 1463WAT     H2 4632   2.703   4.590   6.870
 1464WAT      O 4633   1.344   0.179   7.645
 1464WAT     H1 4634   1.283   0.112   7.601
 1464WAT     H2 4635   1.309   0.271   7.629
 1465WAT      O 4636   7.952   9.585   1.438
 1465WAT     H1 4637   7.892   9.558   1.513
 1465WAT     H2 4638   7.913   9.664   1.390
 1466WAT      O 4639   7.699   0.927   8.870
 1466WAT     H1 4640   7.673   0.888   8.781
 1466WAT     H2 4641   7.661   1.018   8.879
 1467WAT      O 4642   1.053   4.457   0.646
 1467WAT     H1 4643   1.005   4.381   0.691
 1467WAT     H2 4644   1.140   4.425   0.610
 1468WAT      O 4645   4.815   8.834   6.525
 1468WAT     H1 4646   4.786   8.929   6.512
 1468WAT     H2 4647   4.853   8.823   6.616
 1469WAT      O 4648   5.105   3.455   2.071
 1469WAT     H1 4649   5.043   3.392   2.024
 1469WAT     H2 4650   5.090   3.449   2.170
 1470WAT      O 4651   1.785   2.597   8.173
 1470WAT     H1 4652   1.750   2.506   8.150
 1470WAT     H2 4653   1.734   2.632   8.252
 1471WAT      O 4654   6.408   3.057   8.878
 1471WAT     H1 4655   6.336   2.989   8.891
 1471WAT     H2 4656   6.381   3.144   8.918
 1472WAT      O 4657   4.976   2.504   6.317
 1472WAT     H1 4658   4.965   2.587   6.371
 1472WAT     H2 4659   4.995   2.529   6.222
 1473WAT      O 4660   4.013   5.885   3.665
 1473WAT     H1 4661   4.015   5.785   3.674
 1473WAT     H2 4662   3.967   5.909   3.580
 1474WAT      O 4663   0.738   6.679   6.066
 1474WAT     H1 4664   0.676   6.656   5.991
 1474WAT     H2 4665   0.688   6.731   6.135
 1475WAT      O 4666   6.678   3.960   5.788
 1475WAT     H1 4667   6.629   3.877   5.764
 1475WAT     H2 4668   6.634   4.039   5.744
 1476WAT      O 4669   7.546   9.488   7.601
 1476WAT     H1 4670   7.486   9.521   7.528
 1476WAT     H2 4671   7.639   9.482   7.567
 1477WAT      O 4672   0.391   1.341   7.856
 1477WAT     H1 4673   0.428   1.419   7.808
 1477WAT     H2 4674   0.310   1.307   7.808
 1478WAT      O 4675   3.521   2.286   0.330
 1478WAT     H1 4676   3.427   2.273   0.299
 1478WAT     H2 4677   3.528   2.262   0.427
 1479WAT      O 4678   7.362   5.751   0.281
 1479WAT     H1 4679   7.345   5.653   0.288
 1479WAT     H2 4680   7.367   5.791   0.373
 1480WAT      O 4681   1.370   9.329   2.288
 1480WAT     H1 4682   1.355   9.428   2.288
 1480WAT     H2 4683   1.418   9.301   2.205
 1481WAT      O 4684   7.644   9.711   1.671
 1481WAT     H1 4685   7.602   9.790   1.626
 1481WAT     H2 4686   7.694   9.742   1.752
 1482WAT      O 4687   7.716   4.434   5.629
 1482WAT     H1 4688   7.688   4.381   5.708
 1482WAT     H2 4689   7.780   4.505   5.657
 1483WAT      O 4690   1.294   7.869   7.460
 1483WAT     H1 4691   1.255   7.779   7.440
 1483WAT     H2 4692   1.238   7.913   7.531
 1484WAT      O 4693   1.500   6.101   4.836
 1484WAT     H1 4694   1.519   6.056   4.923
 1484WAT     H2 4695   1.434   6.175   4.850
 1485WAT      O 4696   6.243   7.115   3.479
 1485WAT     H1 4697   6.263   7.057   3.401
 1485WAT     H2 4698   6.250   7.062   3.564
 1486WAT      O 4699   7.604   9.203   9.872
 1486WAT     H1 4700   7.578   9.268   9.943
 1486WAT     H2 4701   7.528   9.189   9.809
 1487WAT      O 4702   2.330   1.089   8.477
 1487WAT     H1 4703   2.274   1.099   8.559
 1487WAT     H2 4704   2.353   0.993   8.464
 1488WAT      O 4705   5.760   2.858   2.701
 1488WAT     H1 4706   5.810   2.883   2.619
 1488WAT     H2 4707   5.824   2.838   2.775
 1489WAT      O 4708   2.063   4.712   0.657
 1489WAT     H1 4709   2.153   4.668   0.660
 1489WAT     H2 4710   2.073   4.810   0.675
 1490WAT      O 4711   9.481   2.316   8.287
 1490WAT     H1 4712   9.530   2.400   8.309
 1490WAT     H2 4713   9.386   2.324   8.316
 1491WAT      O 4714   0.612   8.300   2.204
 1491WAT     H1 4715   0.517   8.314   2.231
 1491WAT     H2 4716   0.616   8.261   2.112
 1492WAT      O 4717   3.575   9.138   0.107
 1492WAT     H1 4718   3.494   9.126   0.164
 1492WAT     H2 4719   3.552   9.192   0.027
 1493WAT      O 4720   5.990   7.071   0.906
 1493WAT     H1 4721   5.907   7.118   0.938
 1493WAT     H2 4722   5.993   7.073   0.806
 1494WAT      O 4723   2.923   5.548   0.032
 1494WAT     H1 4724   2.859   5.621   0.010
 1494WAT     H2 4725   2.874   5.473   0.077
 1495WAT      O 4726   3.573   8.532   0.700
 1495WAT     H1 4727   3.485   8.521   0.747
 1495WAT     H2 4728   3.557   8.548   0.603
 1496WAT      O 4729   7.428   2.462   2.774
 1496WAT     H1 4730   7.510   2.490   2.824
 1496WAT     H2 4731   7.375   2.543   2.749
 1497WAT      O 4732   6.659   2.740   3.148
 1497WAT     H1 4733   6.633   2.651   3.185
 1497WAT     H2 4734   6.670   2.733   3.049
 1498WAT      O 4735   7.619   9.814   3.994
 1498WAT     H1 4736   7.637   9.744   3.925
 1498WAT     H2 4737   7.624   9.905   3.953
 1499WAT      O 4738   8.065   6.039   8.607
 1499WAT     H1 4739   8.079   6.133   8.639
 1499WAT     H2 4740   8.014   6.041   8.521
 1500WAT      O 4741   3.165   5.833   6.905
 1500WAT     H1 4742   3.255   5.832   6.862
 1500WAT     H2 4743   3.101   5.883   6.847
 1501WAT      O 4744   3.835   6.549   2.047
 1501WAT     H1 4745   3.920   6.592   2.016
 1501WAT     H2 4746   3.820   6.465   1.993
 1502WAT      O 4747   1.198   4.166   4.539
 1502WAT     H1 4748   1.215   4.170   4.441
 1502WAT     H2 4749   1.233   4.079   4.576
 1503WAT      O 4750   2.994   1.486   3.376
 1503WAT     H1 4751   3.089   1.469   3.403
 1503WAT     H2 4752   2.971   1.582   3.392
 1504WAT      O 4753   4.409   7.360   9.403
 1504WAT     H1 4754   4.496   7.313   9.388
 1504WAT     H2 4755   4.355   7.357   9.319
 1505WAT      O 4756   5.802   1.652   9.876
 1505WAT     H1 4757   5.846   1.692   9.956
 1505WAT     H2 4758   5.844   1.564   9.855
 1506WAT      O 4759   8.183   0.728   9.503
 1506WAT     H1 4760   8.213   0.662   9.435
 1506WAT     H2 4761   8.225   0.817   9.484
 1507WAT      O 4762   5.729   7.806   4.957
 1507WAT     H1 4763   5.778   7.754   5.027
 1507WAT     H2 4764   5.645   7.756   4.932
 1508WAT      O 4765   2.953   0.832   7.139
 1508WAT     H1 4766   2.861   0.844   7.102
 1508WAT     H2 4767   2.958   0.748   7.193
 1509WAT      O 4768   3.774   9.354   5.163
 1509WAT     H1 4769   3.862   9.388   5.130
 1509WAT     H2 4770   3.714   9.431   5.185
 1510WAT      O 4771   2.386   1.274   2.013
 1510WAT     H1 4772   2.378   1.330   2.095
 1510WAT     H2 4773   2.349   1.183   2.031
 1511WAT      O 4774   8.186   7.204   8.116
 1511WAT     H1 4775   8.212   7.298   8.138
 1511WAT     H2 4776   8.259   7.160   8.064
 1512WAT      O 4777   8.486   1.839   2.527
 1512WAT     H1 4778   8.449   1.767   2.468
 1512WAT     H2 4779   8.538   1.797   2.602
 1513WAT      O 4780   8.223   1.134   4.130
 1513WAT     H1 4781   8.124   1.121   4.128
 1513WAT     H2 4782   8.247   1.201   4.200
 1514WAT      O 4783   4.698   2.088   3.702
 1514WAT     H1 4784   4.790   2.059   3.676
 1514WAT     H2 4785   4.683   2.068   3.798
 1515WAT      O 4786   2.291   2.811   3.062
 1515WAT     H1 4787   2.252   2.837   2.974
 1515WAT     H2 4788   2.233   2.742   3.106
 1516WAT      O 4789   8.264   6.476   0.165
 1516WAT     H1 4790   8.308   6.406   0.222
 1516WAT     H2 4791   8.219   6.543   0.224
 1517WAT      O 4792   0.942   7.859   9.635
 1517WAT     H1 4793   0.907   7.952   9.646
 1517WAT     H2 4794   1.042   7.861   9.633
 1518WAT      O 4795   2.560   0.304   3.032
 1518WAT     H1 4796   2.569   0.360   2.950
 1518WAT     H2 4797   2.505   0.223   3.011
 1519WAT      O 4798   8.888   8.914   4.765
 1519WAT     H1 4799   8.956   8.893   4.836
 1519WAT     H2 4800   8.921   8.990   4.710
 1520WAT      O 4801   2.985   8.781   3.421
 1520WAT     H1 4802   2.940   8.801   3.508
 1520WAT     H2 4803   2.952   8.844   3.351
 1521WAT      O 4804   5.271   7.313   2.240
 1521WAT     H1 4805   5.184   7.362   2.251
 1521WAT     H2 4806   5.346   7.378   2.241
 1522WAT      O 4807   7.599   0.997   7.545
 1522WAT     H1 4808   7.616   0.987   7.643
 1522WAT     H2 4809   7.685   0.987   7.494
 1523WAT      O 4810   5.257   2.791   2.319
 1523WAT     H1 4811   5.271   2.814   2.223
 1523WAT     H2 4812   5.273   2.693   2.333
 1524WAT      O 4813   1.028   3.433   7.246
 1524WAT     H1 4814   1.030   3.346   7.295
 1524WAT     H2 4815   0.943   3.481   7.266
 1525WAT      O 4816   4.291   3.064   3.373
 1525WAT     H1 4817   4.253   3.153   3.346
 1525WAT     H2 4818   4.235   2.991   3.332
 1526WAT      O 4819   2.162   1.324   9.536
 1526WAT     H1 4820   2.134   1.417   9.558
 1526WAT     H2 4821   2.260   1.323   9.514
 1527WAT      O 4822   8.471   0.599   2.398
 1527WAT     H1 4823   8.518   0.589   2.310
 1527WAT     H2 4824   8.495   0.687   2.439
 1528WAT      O 4825   2.112   1.645   5.279
 1528WAT     H1 4826   2.183   1.676   5.343
 1528WAT     H2 4827   2.127   1.686   5.189
 1529WAT      O 4828   8.580   0.797   0.110
 1529WAT     H1 4829   8.674   0.787   0.076
 1529WAT     H2 4830   8.567   0.888   0.147
 1530WAT      O 4831   2.059   2.877   6.371
 1530WAT     H1 4832   2.150   2.913   6.394
 1530WAT     H2 4833   2.027   2.920   6.287
 1531WAT      O 4834   3.584   8.516   7.693
 1531WAT     H1 4835   3.668   8.515   7.748
 1531WAT     H2 4836   3.527   8.438   7.717
 1532WAT      O 4837   8.966   4.761   3.188
 1532WAT     H1 4838   9.052   4.739   3.234
 1532WAT     H2 4839   8.968   4.856   3.157
 1533WAT      O 4840   8.397   1.483   1.157
 1533WAT     H1 4841   8.445   1.533   1.085
 1533WAT     H2 4842   8.432   1.389   1.162
 1534WAT      O 4843   3.694   2.236   6.516
 1534WAT     H1 4844   3.613   2.250   6.460
 1534WAT     H2 4845   3.755   2.171   6.470
 1535WAT      O 4846   2.833   4.523   9.237
 1535WAT     H1 4847   2.858   4.573   9.154
 1535WAT     H2 4848   2.831   4.425   9.218
 1536WAT      O 4849   3.662   1.100   9.622
 1536WAT     H1 4850   3.720   1.175   9.655
 1536WAT     H2 4851   3.594   1.136   9.558
 1537WAT      O 4852   5.355   8.403   8.298
 1537WAT     H1 4853   5.447   8.437   8.318
 1537WAT     H2 4854   5.361   8.321   8.242
 1538WAT      O 4855   5.500   3.951   9.221
 1538WAT     H1 4856   5.516   4.035   9.273
 1538WAT     H2 4857   5.505   3.872   9.283
 1539WAT      O 4858   5.063   7.746   7.692
 1539WAT     H1 4859   5.156   7.711   7.707
 1539WAT     H2 4860   5.049   7.761   7.594
 1540WAT      O 4861   5.752   3.382   7.315
 1540WAT     H1 4862   5.813   3.321   7.264
 1540WAT     H2 4863   5.805   3.458   7.352
 1541WAT      O 4864   1.654   5.847   0.947
 1541WAT     H1 4865   1.648   5.759   0.994
 1541WAT     H2 4866   1.565   5.868   0.905
 1542WAT      O 4867   1.422   6.893   5.024
 1542WAT     H1 4868   1.495   6.881   4.957
 1542WAT     H2 4869   1.462   6.918   5.112
 1543WAT      O 4870   7.973   9.039   4.266
 1543WAT     H1 4871   7.887   8.999   4.297
 1543WAT     H2 4872   7.997   9.002   4.176
 1544WAT      O 4873   0.211   4.900   4.547
 1544WAT     H1 4874   0.255   4.818   4.583
 1544WAT     H2 4875   0.275   4.949   4.488
 1545WAT      O 4876   6.403   3.104   8.111
 1545WAT     H1 4877   6.361   3.140   8.028
 1545WAT     H2 4878   6.489   3.057   8.089
 1546WAT      O 4879   3.897   1.296   9.087
 1546WAT     H1 4880   3.926   1.246   9.169
 1546WAT     H2 4881   3.948   1.263   9.008
 1547WAT      O 4882   4.308   6.580   3.182
 1547WAT     H1 4883   4.338   6.641   3.254
 1547WAT     H2 4884   4.229   6.619   3.135
 1548WAT      O 4885   8.016   5.519   4.909
 1548WAT     H1 4886   8.008   5.554   5.002
 1548WAT     H2 4887   7.967   5.432   4.902
 1549WAT      O 4888   0.649   8.391   4.758
 1549WAT     H1 4889   0.713   8.410   4.684
 1549WAT     H2 4890   0.563   8.358   4.720
 1550WAT      O 4891   1.149   8.730   6.596
 1550WAT     H1 4892   1.139   8.631   6.599
 1550WAT     H2 4893   1.059   8.773   6.593
 1551WAT      O 4894   0.139   0.624   5.426
 1551WAT     H1 4895   0.131   0.616   5.526
 1551WAT     H2 4896   0.083   0.700   5.394
 1552WAT      O 4897   9.726   7.128   6.730
 1552WAT     H1 4898   9.798   7.094   6.670
 1552WAT     H2 4899   9.697   7.056   6.793
 1553WAT      O 4900   5.854   3.195   4.489
 1553WAT     H1 4901   5.802   3.182   4.404
 1553WAT     H2 4902   5.883   3.290   4.496
 1554WAT      O 4903   0.269   1.453   3.674
 1554WAT     H1 4904   0.239   1.532   3.620
 1554WAT     H2 4905   0.212   1.373   3.650
 1555WAT      O 4906   9.349   1.272   5.842
 1555WAT     H1 4907   9.320   1.315   5.757
 1555WAT     H2 4908   9.333   1.335   5.919
 1556WAT      O 4909   4.208   9.626   4.648
 1556WAT     H1 4910   4.243   9.714   4.681
 1556WAT     H2 4911   4.248   9.552   4.702
 1557WAT      O 4912   9.480   4.794   2.626
 1557WAT     H1 4913   9.504   4.834   2.538
 1557WAT     H2 4914   9.524   4.704   2.635
 1558WAT      O 4915   2.404   8.669   3.989
 1558WAT     H1 4916   2.467   8.592   3.998
 1558WAT     H2 4917   2.454   8.754   4.002
 1559WAT      O 4918   7.382   8.359   7.504
 1559WAT     H1 4919   7.390   8.318   7.413
 1559WAT     H2 4920   7.331   8.445   7.497
 1560WAT      O 4921   8.904   0.592   6.287
 1560WAT     H1 4922   8.967   0.659   6.327
 1560WAT     H2 4923   8.811   0.627   6.292
 1561WAT      O 4924   8.387   5.207   7.393
 1561WAT     H1 4925   8.290   5.198   7.414
 1561WAT     H2 4926   8.441   5.157   7.461
 1562WAT      O 4927   1.142   7.826   4.091
 1562WAT     H1 4928   1.119   7.902   4.153
 1562WAT     H2 4929   1.199   7.760   4.140
 1563WAT      O 4930   5.550   6.031   4.506
 1563WAT     H1 4931   5.490   5.962   4.465
 1563WAT     H2 4932   5.529   6.040   4.604
 1564WAT      O 4933   6.302   6.476   6.185
 1564WAT     H1 4934   6.368   6.537   6.228
 1564WAT     H2 4935   6.347   6.393   6.154
 1565WAT      O 4936   1.309   1.979   0.976
 1565WAT     H1 4937   1.308   1.896   0.919
 1565WAT     H2 4938   1.225   2.030   0.961
 1566WAT      O 4939   4.059   6.820   1.759
 1566WAT     H1 4940   4.034   6.877   1.681
 1566WAT     H2 4941   4.135   6.861   1.808
 1567WAT      O 4942   5.639   4.259   3.306
 1567WAT     H1 4943   5.694   4.328   3.258
 1567WAT     H2 4944   5.572   4.305   3.364
 1568WAT      O 4945   6.297   9.686   9.684
 1568WAT     H1 4946   6.255   9.602   9.650
 1568WAT     H2 4947   6.258   9.709   9.773
 1569WAT      O 4948   5.080   5.685   5.488
 1569WAT     H1 4949   5.016   5.732   5.550
 1569WAT     H2 4950   5.031   5.658   5.405
 1570WAT      O 4951   9.665   8.670   4.696
 1570WAT     H1 4952   9.759   8.693   4.670
 1570WAT     H2 4953   9.611   8.652   4.613
 1571WAT      O 4954   6.097   0.722   2.241
 1571WAT     H1 4955   6.032   0.658   2.281
 1571WAT     H2 4956   6.168   0.743   2.308
 1572WAT      O 4957   9.125   9.460   8.833
 1572WAT     H1 4958   9.206   9.477   8.889
 1572WAT     H2 4959   9.084   9.547   8.805
 1573WAT      O 4960   9.076   7.099   4.805
 1573WAT     H1 4961   9.073   7.195   4.779
 1573WAT     H2 4962   8.982   7.065   4.817
 1574WAT      O 4963   5.386   8.265   1.935
 1574WAT     H1 4964   5.366   8.213   1.852
 1574WAT     H2 4965   5.318   8.242   2.005
 1575WAT      O 4966   6.766   7.985   8.894
 1575WAT     H1 4967   6.810   7.895   8.896
 1575WAT     H2 4968   6.795   8.038   8.973
 1576WAT      O 4969   7.790   5.058   8.237
 1576WAT     H1 4970   7.734   5.140   8.249
 1576WAT     H2 4971   7.785   5.028   8.142
 1577WAT      O 4972   5.551   5.497   3.075
 1577WAT     H1 4973   5.463   5.497   3.027
 1577WAT     H2 4974   5.574   5.404   3.104
 1578WAT      O 4975   5.737   4.306   0.331
 1578WAT     H1 4976   5.778   4.396   0.317
 1578WAT     H2 4977   5.638   4.312   0.320
 1579WAT      O 4978   8.630   4.033   2.101
 1579WAT     H1 4979   8.705   3.992   2.152
 1579WAT     H2 4980   8.638   4.133   2.103
 1580WAT      O 4981   7.097   8.782   9.799
 1580WAT     H1 4982   7.165   8.835   9.849
 1580WAT     H2 4983   7.057   8.712   9.859
 1581WAT      O 4984   8.572   5.153   6.536
 1581WAT     H1 4985   8.660   5.200   6.530
 1581WAT     H2 4986   8.571   5.094   6.617
 1582WAT      O 4987   7.416   0.652   2.579
 1582WAT     H1 4988   7.363   0.678   2.499
 1582WAT     H2 4989   7.462   0.734   2.616
 1583WAT      O 4990   3.214   3.900   6.236
 1583WAT     H1 4991   3.182   3.864   6.148
 1583WAT     H2 4992   3.193   3.834   6.308
 1584WAT      O 4993   2.776   5.890   1.543
 1584WAT     H1 4994   2.874   5.883   1.526
 1584WAT     H2 4995   2.754   5.984   1.569
 1585WAT      O 4996   9.050   0.400   8.981
 1585WAT     H1 4997   9.046   0.500   8.985
 1585WAT     H2 4998   9.064   0.370   8.887
 1586WAT      O 4999   9.718   1.735   8.831
 1586WAT     H1 5000   9.645   1.668   8.843
 1586WAT     H2 5001   9.682   1.816   8.785
 1587WAT      O 5002   7.860   3.896   4.318
 1587WAT     H1 5003   7.873   3.832   4.242
 1587WAT     H2 5004   7.790   3.862   4.380
 1588WAT      O 5005   2.261   1.070   4.873
 1588WAT     H1 5006   2.286   0.979   4.842
 1588WAT     H2 5007   2.324   1.138   4.835
 1589WAT      O 5008   3.823   5.087   9.841
 1589WAT     H1 5009   3.737   5.043   9.867
 1589WAT     H2 5010   3.803   5.171   9.790
 1590WAT      O 5011   4.632   0.394   9.146
 1590WAT     H1 5012   4.569   0.408   9.069
 1590WAT     H2 5013   4.632   0.475   9.204
 1591WAT      O 5014   3.375   5.069   1.343
 1591WAT     H1 5015   3.413   5.093   1.432
 1591WAT     H2 5016   3.276   5.059   1.350
 1592WAT      O 5017   4.036   4.238   8.084
 1592WAT     H1 5018   4.133   4.262   8.089
 1592WAT     H2 5019   3.988   4.274   8.163
 1593WAT      O 5020   9.489   4.902   3.914
 1593WAT     H1 5021   9.535   4.822   3.876
 1593WAT     H2 5022   9.395   4.877   3.938
 1594WAT      O 5023   1.621   8.235   6.171
 1594WAT     H1 5024   1.569   8.196   6.095
 1594WAT     H2 5025   1.559   8.254   6.247
 1595WAT      O 5026   4.611   6.139   0.527
 1595WAT     H1 5027   4.709   6.116   0.527
 1595WAT     H2 5028   4.572   6.121   0.437
 1596WAT      O 5029   9.382   0.476   0.961
 1596WAT     H1 5030   9.470   0.436   0.987
 1596WAT     H2 5031   9.344   0.527   1.038
 1597WAT      O 5032   1.015   7.535   3.065
 1597WAT     H1 5033   1.095   7.580   3.105
 1597WAT     H2 5034   0.946   7.522   3.136
 1598WAT      O 5035   3.491   0.875   4.881
 1598WAT     H1 5036   3.576   0.825   4.900
 1598WAT     H2 5037   3.480   0.888   4.783
 1599WAT      O 5038   2.992   6.222   6.200
 1599WAT     H1 5039   2.964   6.231   6.105
 1599WAT     H2 5040   2.926   6.269   6.259
 1600WAT      O 5041   1.064   6.507   8.890
 1600WAT     H1 5042   1.142   6.482   8.833
 1600WAT     H2 5043   1.068   6.605   8.911
 1601WAT      O 5044   3.182   3.106   5.815
 1601WAT     H1 5045   3.234   3.046   5.876
 1601WAT     H2 5046   3.219   3.100   5.722
 1602WAT      O 5047   3.458   0.249   4.462
 1602WAT     H1 5048   3.441   0.309   4.384
 1602WAT     H2 5049   3.380   0.251   4.524
 1603WAT      O 5050   9.272   1.813   1.313
 1603WAT     H1 5051   9.347   1.853   1.367
 1603WAT     H2 5052   9.225   1.744   1.368
 1604WAT      O 5053   8.561   7.531   6.988
 1604WAT     H1 5054   8.603   7.503   7.075
 1604WAT     H2 5055   8.609   7.487   6.912
 1605WAT      O 5056   8.251   2.471   4.027
 1605WAT     H1 5057   8.267   2.372   4.018
 1605WAT     H2 5058   8.223   2.491   4.121
 1606WAT      O 5059   4.467   6.023   7.341
 1606WAT     H1 5060   4.472   5.985   7.433
 1606WAT     H2 5061   4.521   5.968   7.278
 1607WAT      O 5062   4.338   3.945   4.129
 1607WAT     H1 5063   4.330   3.857   4.176
 1607WAT     H2 5064   4.246   3.980   4.109
 1608WAT      O 5065   8.242   3.731   5.680
 1608WAT     H1 5066   8.194   3.742   5.768
 1608WAT     H2 5067   8.213   3.803   5.617
 1609WAT      O 5068   4.087   1.552   5.662
 1609WAT     H1 5069   4.134   1.483   5.716
 1609WAT     H2 5070   4.039   1.508   5.586
 1610WAT      O 5071   1.512   2.468   1.891
 1610WAT     H1 5072   1.465   2.556   1.889
 1610WAT     H2 5073   1.546   2.451   1.984
 1611WAT      O 5074   5.139   4.627   5.783
 1611WAT     H1 5075   5.131   4.527   5.785
 1611WAT     H2 5076   5.236   4.653   5.783
 1612WAT      O 5077   1.845   0.292   5.495
 1612WAT     H1 5078   1.883   0.339   5.415
 1612WAT     H2 5079   1.853   0.352   5.575
 1613WAT      O 5080   1.772   6.980   4.188
 1613WAT     H1 5081   1.728   6.908   4.134
 1613WAT     H2 5082   1.830   6.937   4.258
 1614WAT      O 5083   5.819   9.714   1.663
 1614WAT     H1 5084   5.754   9.754   1.728
 1614WAT     H2 5085   5.886   9.784   1.636
 1615WAT      O 5086   3.456   4.931   1.894
 1615WAT     H1 5087   3.369   4.886   1.916
 1615WAT     H2 5088   3.531   4.881   1.937
 1616WAT      O 5089   1.548   2.829   2.882
 1616WAT     H1 5090   1.524   2.907   2.940
 1616WAT     H2 5091   1.472   2.810   2.820
 1617WAT      O 5092   7.243   1.507   3.612
 1617WAT     H1 5093   7.148   1.513   3.643
 1617WAT     H2 5094   7.247   1.445   3.533
 1618WAT      O 5095   4.938   1.817   7.984
 1618WAT     H1 5096   4.914   1.908   7.950
 1618WAT     H2 5097   5.022   1.786   7.942
 1619WAT      O 5098   2.320   7.340   1.884
 1619WAT     H1 5099   2.310   7.242   1.902
 1619WAT     H2 5100   2.405   7.355   1.832
 1620WAT      O 5101   5.777   4.807   3.729
 1620WAT     H1 5102   5.680   4.781   3.725
 1620WAT     H2 5103   5.786   4.896   3.774
 1621WAT      O 5104   6.623   0.341   8.420
 1621WAT     H1 5105   6.595   0.275   8.350
 1621WAT     H2 5106   6.716   0.319   8.451
 1622WAT      O 5107   1.645   4.960   3.257
 1622WAT     H1 5108   1.593   4.891   3.207
 1622WAT     H2 5109   1.656   5.041   3.200
 1623WAT      O 5110   4.948   5.826   3.128
 1623WAT     H1 5111   4.884   5.761   3.087
 1623WAT     H2 5112   4.934   5.916   3.089
 1624WAT      O 5113   0.222   0.482   7.288
 1624WAT     H1 5114   0.136   0.525   7.260
 1624WAT     H2 5115   0.284   0.551   7.326
 1625WAT      O 5116   1.110   4.806   7.491
 1625WAT     H1 5117   1.171   4.826   7.568
 1625WAT     H2 5118   1.134   4.718   7.451
 1626WAT      O 5119   2.774   0.574   1.973
 1626WAT     H1 5120   2.825   0.650   2.013
 1626WAT     H2 5121   2.689   0.607   1.934
 1627WAT      O 5122   1.194   1.443   7.706
 1627WAT     H1 5123   1.204   1.469   7.802
 1627WAT     H2 5124   1.097   1.435   7.683
 1628WAT      O 5125   5.001   1.305   1.855
 1628WAT     H1 5126   5.078   1.358   1.891
 1628WAT     H2 5127   4.951   1.361   1.788
 1629WAT      O 5128   0.255   2.264   8.707
 1629WAT     H1 5129   0.157   2.284   8.703
 1629WAT     H2 5130   0.301   2.338   8.757
 1630WAT      O 5131   0.350   3.312   6.515
 1630WAT     H1 5132   0.434   3.263   6.492
 1630WAT     H2 5133   0.273   3.248   6.519
 1631WAT      O 5134   4.818   9.183   9.278
 1631WAT     H1 5135   4.829   9.100   9.332
 1631WAT     H2 5136   4.727   9.222   9.294
 1632WAT      O 5137   3.100   3.421   8.279
 1632WAT     H1 5138   3.170   3.488   8.305
 1632WAT     H2 5139   3.047   3.456   8.202
 1633WAT      O 5140   1.748   4.868   9.506
 1633WAT     H1 5141   1.705   4.777   9.499
 1633WAT     H2 5142   1.730   4.906   9.596
 1634WAT      O 5143   8.926   3.335   2.209
 1634WAT     H1 5144   8.900   3.390   2.130
 1634WAT     H2 5145   8.861   3.352   2.284
 1635WAT      O 5146   0.436   0.546   3.041
 1635WAT     H1 5147   0.468   0.513   2.952
 1635WAT     H2 5148   0.501   0.613   3.077
 1636WAT      O 5149   0.716   6.357   5.151
 1636WAT     H1 5150   0.674   6.274   5.187
 1636WAT     H2 5151   0.644   6.422   5.125
 1637WAT      O 5152   9.393   5.524   6.639
 1637WAT     H1 5153   9.372   5.458   6.712
 1637WAT     H2 5154   9.460   5.590   6.671
 1638WAT      O 5155   4.218   6.879   4.432
 1638WAT     H1 5156   4.201   6.825   4.515
 1638WAT     H2 5157   4.275   6.958   4.454
 1639WAT      O 5158   1.051   4.743   9.439
 1639WAT     H1 5159   1.025   4.698   9.524
 1639WAT     H2 5160   1.108   4.681   9.385
 1640WAT      O 5161   0.349   2.899   4.065
 1640WAT     H1 5162   0.323   2.872   4.158
 1640WAT     H2 5163   0.404   2.982   4.068
 1641WAT      O 5164   1.703   7.518   7.178
 1641WAT     H1 5165   1.730   7.508   7.274
 1641WAT     H2 5166   1.603   7.524   7.173
 1642WAT      O 5167   9.167   6.933   8.359
 1642WAT     H1 5168   9.135   6.860   8.299
 1642WAT     H2 5169   9.258   6.963   8.329
 1643WAT      O 5170   0.707   5.524   0.329
 1643WAT     H1 5171   0.628   5.463   0.323
 1643WAT     H2 5172   0.757   5.522   0.243
 1644WAT      O 5173   3.171   2.698   0.908
 1644WAT     H1 5174   3.127   2.675   0.821
 1644WAT     H2 5175   3.102   2.728   0.974
 1645WAT      O 5176   8.790   9.631   1.999
 1645WAT     H1 5177   8.728   9.700   2.038
 1645WAT     H2 5178   8.781   9.546   2.050
 1646WAT      O 5179   9.100   1.145   9.407
 1646WAT     H1 5180   9.032   1.195   9.353
 1646WAT     H2 5181   9.174   1.115   9.347
 1647WAT      O 5182   4.530   2.676   4.208
 1647WAT     H1 5183   4.558   2.672   4.304
 1647WAT     H2 5184   4.438   2.714   4.202
 1648WAT      O 5185   3.494   9.149   3.025
 1648WAT     H1 5186   3.458   9.196   2.945
 1648WAT     H2 5187   3.422   9.137   3.092
 1649WAT      O 5188   4.674   7.331   4.793
 1649WAT     H1 5189   4.614   7.329   4.714
 1649WAT     H2 5190   4.769   7.321   4.764
 1650WAT      O 5191   2.172   4.757   4.615
 1650WAT     H1 5192   2.087   4.772   4.667
 1650WAT     H2 5193   2.192   4.659   4.612
 1651WAT      O 5194   7.718   7.733   0.441
 1651WAT     H1 5195   7.779   7.659   0.472
 1651WAT     H2 5196   7.738   7.816   0.493
 1652WAT      O 5197   9.581   8.194   7.091
 1652WAT     H1 5198   9.481   8.193   7.080
 1652WAT     H2 5199   9.613   8.289   7.096
 1653WAT      O 5200   8.430   7.466   3.024
 1653WAT     H1 5201   8.395   7.483   2.932
 1653WAT     H2 5202   8.355   7.437   3.083
 1654WAT      O 5203   7.639   0.351   6.048
 1654WAT     H1 5204   7.673   0.295   6.124
 1654WAT     H2 5205   7.662   0.447   6.063
 1655WAT      O 5206   3.254   8.383   3.434
 1655WAT     H1 5207   3.317   8.407   3.508
 1655WAT     H2 5208   3.245   8.283   3.429
 1656WAT      O 5209   6.909   5.613   4.568
 1656WAT     H1 5210   6.837   5.552   4.534
 1656WAT     H2 5211   6.993   5.598   4.517
 1657WAT      O 5212   0.582   0.007   7.970
 1657WAT     H1 5213   0.572   0.064   7.889
 1657WAT     H2 5214   0.621  -0.082   7.944
 1658WAT      O 5215   7.288   0.424   5.362
 1658WAT     H1 5216   7.291   0.325   5.348
 1658WAT     H2 5217   7.200   0.450   5.402
 1659WAT      O 5218   3.238   6.299   7.901
 1659WAT     H1 5219   3.294   6.383   7.903
 1659WAT     H2 5220   3.203   6.286   7.808
 1660WAT      O 5221   7.896   8.173   1.085
 1660WAT     H1 5222   7.825   8.114   1.123
 1660WAT     H2 5223   7.982   8.156   1.133
 1661WAT      O 5224   0.092   2.630   5.515
 1661WAT     H1 5225   0.074   2.589   5.425
 1661WAT     H2 5226   0.009   2.676   5.547
 1662WAT      O 5227   8.178   1.068   3.725
 1662WAT     H1 5228   8.140   0.998   3.664
 1662WAT     H2 5229   8.269   1.038   3.756
 1663WAT      O 5230   5.881   6.151   0.100
 1663WAT     H1 5231   5.962   6.195   0.060
 1663WAT     H2 5232   5.899   6.054   0.114
 1664WAT      O 5233   2.174   1.739   8.830
 1664WAT     H1 5234   2.148   1.777   8.919
 1664WAT     H2 5235   2.107   1.671   8.802
 1665WAT      O 5236   3.602   9.105   3.822
 1665WAT     H1 5237   3.532   9.169   3.792
 1665WAT     H2 5238   3.568   9.052   3.900
 1666WAT      O 5239   0.763   1.050   1.135
 1666WAT     H1 5240   0.697   1.053   1.210
 1666WAT     H2 5241   0.801   0.958   1.127
 1667WAT      O 5242   8.517   6.092   6.364
 1667WAT     H1 5243   8.512   6.093   6.264
 1667WAT     H2 5244   8.431   6.057   6.401
 1668WAT      O 5245   4.330   3.221   8.348
 1668WAT     H1 5246   4.397   3.247   8.417
 1668WAT     H2 5247   4.343   3.278   8.266
 1669WAT      O 5248   3.861   0.659   6.389
 1669WAT     H1 5249   3.903   0.633   6.476
 1669WAT     H2 5250   3.919   0.627   6.314
 1670WAT      O 5251   4.394   2.333   5.118
 1670WAT     H1 5252   4.308   2.355   5.164
 1670WAT     H2 5253   4.433   2.249   5.156
 1671WAT      O 5254   0.320   7.554   3.991
 1671WAT     H1 5255   0.384   7.508   4.052
 1671WAT     H2 5256   0.245   7.593   4.044
 1672WAT      O 5257   9.091   6.427   9.441
 1672WAT     H1 5258   8.993   6.448   9.429
 1672WAT     H2 5259   9.101   6.352   9.506
 1673WAT      O 5260   0.239   7.695   7.771
 1673WAT     H1 5261   0.231   7.727   7.866
 1673WAT     H2 5262   0.333   7.667   7.753
 1674WAT      O 5263   8.348   7.310   2.161
 1674WAT     H1 5264   8.281   7.274   2.096
 1674WAT     H2 5265   8.303   7.329   2.248
 1675WAT      O 5266   6.266   7.207   5.556
 1675WAT     H1 5267   6.210   7.137   5.512
 1675WAT     H2 5268   6.356   7.211   5.513
 1676WAT      O 5269   6.421   6.227   6.152
 1676WAT     H1 5270   6.365   6.144   6.147
 1676WAT     H2 5271   6.512   6.204   6.185
 1677WAT      O 5272   2.943   1.517   7.379
 1677WAT     H1 5273   2.966   1.591   7.443
 1677WAT     H2 5274   2.862   1.543   7.326
 1678WAT      O 5275   2.432   3.387   6.443
 1678WAT     H1 5276   2.417   3.359   6.538
 1678WAT     H2 5277   2.351   3.363   6.389
 1679WAT      O 5278   0.054   3.530   5.143
 1679WAT     H1 5279   0.133   3.469   5.149
 1679WAT     H2 5280  -0.006   3.513   5.221
 1680WAT      O 5281   6.522   5.783   2.261
 1680WAT     H1 5282   6.452   5.769   2.191
 1680WAT     H2 5283   6.490   5.851   2.327
 1681WAT      O 5284   1.400   4.490   6.226
 1681WAT     H1 5285   1.377   4.500   6.323
 1681WAT     H2 5286   1.378   4.397   6.196
 1682WAT      O 5287   9.476   5.923   6.003
 1682WAT     H1 5288   9.441   5.903   5.912
 1682WAT     H2 5289   9.519   5.840   6.041
 1683WAT      O 5290   9.744   9.048   7.322
 1683WAT     H1 5291   9.761   8.957   7.360
 1683WAT     H2 5292   9.784   9.118   7.381
 1684WAT      O 5293   1.448   0.742   2.275
 1684WAT     H1 5294   1.424   0.697   2.189
 1684WAT     H2 5295   1.374   0.803   2.303
 1685WAT      O 5296   6.235   9.219   4.932
 1685WAT     H1 5297   6.232   9.121   4.951
 1685WAT     H2 5298   6.209   9.269   5.015
 1686WAT      O 5299   1.335   8.416   9.890
 1686WAT     H1 5300   1.316   8.437   9.793
 1686WAT     H2 5301   1.326   8.500   9.944
 1687WAT      O 5302   6.431   6.270   2.967
 1687WAT     H1 5303   6.345   6.303   3.006
 1687WAT     H2 5304   6.467   6.196   3.024
 1688WAT      O 5305   7.072   7.065   7.786
 1688WAT     H1 5306   7.031   7.143   7.738
 1688WAT     H2 5307   7.171   7.069   7.777
 1689WAT      O 5308   6.381   3.680   0.650
 1689WAT     H1 5309   6.442   3.623   0.706
 1689WAT     H2 5310   6.398   3.662   0.553
 1690WAT      O 5311   5.678   9.391   3.401
 1690WAT     H1 5312   5.714   9.319   3.461
 1690WAT     H2 5313   5.753   9.450   3.371
 1691WAT      O 5314   9.430   7.334   0.761
 1691WAT     H1 5315   9.428   7.397   0.684
 1691WAT     H2 5316   9.429   7.386   0.847
 1692WAT      O 5317   3.748   9.714   1.802
 1692WAT     H1 5318   3.694   9.710   1.886
 1692WAT     H2 5319   3.811   9.791   1.807
 1693WAT      O 5320   4.807   6.057   4.022
 1693WAT     H1 5321   4.748   5.997   4.077
 1693WAT     H2 5322   4.824   6.141   4.072
 1694WAT      O 5323   0.134   8.709   5.794
 1694WAT     H1 5324   0.104   8.742   5.884
 1694WAT     H2 5325   0.148   8.610   5.797
 1695WAT      O 5326   1.661   9.542   0.397
 1695WAT     H1 5327   1.739   9.512   0.452
 1695WAT     H2 5328   1.694   9.579   0.310
 1696WAT      O 5329   6.214   6.920   9.004
 1696WAT     H1 5330   6.128   6.927   8.953
 1696WAT     H2 5331   6.283   6.980   8.961
 1697WAT      O 5332   5.024   6.004   2.331
 1697WAT     H1 5333   5.067   5.931   2.383
 1697WAT     H2 5334   5.090   6.078   2.315
 1698WAT      O 5335   8.166   2.040   1.039
 1698WAT     H1 5336   8.262   2.017   1.029
 1698WAT     H2 5337   8.151   2.084   1.128
 1699WAT      O 5338   6.194   8.402   7.379
 1699WAT     H1 5339   6.241   8.314   7.382
 1699WAT     H2 5340   6.145   8.417   7.465
 1700WAT      O 5341   8.114   9.082   1.494
 1700WAT     H1 5342   8.209   9.055   1.510
 1700WAT     H2 5343   8.067   9.009   1.443
 1701WAT      O 5344   7.153   9.388   8.030
 1701WAT     H1 5345   7.215   9.360   7.956
 1701WAT     H2 5346   7.180   9.478   8.064
 1702WAT      O 5347   1.034   6.612   8.032
 1702WAT     H1 5348   1.051   6.597   7.935
 1702WAT     H2 5349   0.935   6.604   8.050
 1703WAT      O 5350   8.214   2.270   9.737
 1703WAT     H1 5351   8.265   2.356   9.734
 1703WAT     H2 5352   8.199   2.237   9.643
 1704WAT      O 5353   6.932   1.976   0.895
 1704WAT     H1 5354   6.925   1.946   0.800
 1704WAT     H2 5355   6.860   1.933   0.949
 1705WAT      O 5356   9.583   0.143   0.451
 1705WAT     H1 5357   9.679   0.133   0.424
 1705WAT     H2 5358   9.539   0.211   0.393
 1706WAT      O 5359   3.484   9.360   2.338
 1706WAT     H1 5360   3.393   9.357   2.299
 1706WAT     H2 5361   3.544   9.297   2.289
 1707WAT      O 5362   7.936   2.236   1.540
 1707WAT     H1 5363   8.024   2.188   1.544
 1707WAT     H2 5364   7.926   2.279   1.450
 1708WAT      O 5365   1.252   7.241   3.191
 1708WAT     H1 5366   1.301   7.165   3.234
 1708WAT     H2 5367   1.261   7.323   3.247
 1709WAT      O 5368   5.010   8.952   0.539
 1709WAT     H1 5369   4.968   8.881   0.597
 1709WAT     H2 5370   5.072   9.007   0.594
 1710WAT      O 5371   0.519   5.760   1.744
 1710WAT     H1 5372   0.502   5.763   1.645
 1710WAT     H2 5373   0.527   5.854   1.778
 1711WAT      O 5374   7.671   5.936   8.943
 1711WAT     H1 5375   7.761   5.933   8.985
 1711WAT     H2 5376   7.611   5.869   8.988
 1712WAT      O 5377   9.532   6.318   7.867
 1712WAT     H1 5378   9.632   6.318   7.870
 1712WAT     H2 5379   9.501   6.354   7.779
 1713WAT      O 5380   1.827   5.910   8.899
 1713WAT     H1 5381   1.731   5.930   8.916
 1713WAT     H2 5382   1.875   5.894   8.986
 1714WAT      O 5383   8.185   8.620   1.418
 1714WAT     H1 5384   8.256   8.635   1.487
 1714WAT     H2 5385   8.225   8.571   1.340
 1715WAT      O 5386   3.414   9.617   0.119
 1715WAT     H1 5387   3.408   9.540   0.055
 1715WAT     H2 5388   3.447   9.698   0.070
 1716WAT      O 5389   2.950   4.394   6.822
 1716WAT     H1 5390   2.923   4.361   6.731
 1716WAT     H2 5391   2.996   4.321   6.872
 1717WAT      O 5392   4.903   2.295   4.844
 1717WAT     H1 5393   4.814   2.274   4.803
 1717WAT     H2 5394   4.949   2.366   4.790
 1718WAT      O 5395   0.463   0.240   5.171
 1718WAT     H1 5396   0.446   0.319   5.230
 1718WAT     H2 5397   0.518   0.173   5.221
 1719WAT      O 5398   6.806   5.893   9.806
 1719WAT     H1 5399   6.780   5.967   9.745
 1719WAT     H2 5400   6.822   5.930   9.898
 1720WAT      O 5401   0.579   2.570   1.770
 1720WAT     H1 5402   0.563   2.663   1.738
 1720WAT     H2 5403   0.515   2.548   1.844
 1721WAT      O 5404   4.332   1.559   3.147
 1721WAT     H1 5405   4.318   1.655   3.127
 1721WAT     H2 5406   4.391   1.549   3.227
 1722WAT      O 5407   9.758   9.732   2.589
 1722WAT     H1 5408   9.726   9.656   2.646
 1722WAT     H2 5409   9.736   9.819   2.633
 1723WAT      O 5410   3.833   0.131   0.828
 1723WAT     H1 5411   3.913   0.071   0.826
 1723WAT     H2 5412   3.790   0.125   0.918
 1724WAT      O 5413   5.765   6.843   3.765
 1724WAT     H1 5414   5.828   6.877   3.835
 1724WAT     H2 5415   5.744   6.747   3.783
 1725WAT      O 5416   0.241   6.576   8.337
 1725WAT     H1 5417   0.153   6.572   8.383
 1725WAT     H2 5418   0.269   6.672   8.326
 1726WAT      O 5419   8.926   4.749   4.809
 1726WAT     H1 5420   8.846   4.689   4.814
 1726WAT     H2 5421   9.001   4.700   4.764
 1727WAT      O 5422   5.731   7.265   3.776
 1727WAT     H1 5423   5.762   7.185   3.725
 1727WAT     H2 5424   5.767   7.348   3.732
 1728WAT      O 5425   9.602   6.005   8.876
 1728WAT     H1 5426   9.549   5.934   8.831
 1728WAT     H2 5427   9.689   5.967   8.908
 1729WAT      O 5428   8.760   2.148   4.955
 1729WAT     H1 5429   8.825   2.073   4.964
 1729WAT     H2 5430   8.754   2.198   5.042
 1730WAT      O 5431   9.870   7.674   8.960
 1730WAT     H1 5432   9.814   7.680   8.877
 1730WAT     H2 5433   9.852   7.753   9.018
 1731WAT      O 5434   8.111   8.374   5.240
 1731WAT     H1 5435   8.086   8.416   5.153
 1731WAT     H2 5436   8.033   8.377   5.302
 1732WAT      O 5437   4.813   3.262   7.401
 1732WAT     H1 5438   4.898   3.317   7.400
 1732WAT     H2 5439   4.826   3.180   7.345
 1733WAT      O 5440   3.717   8.077   7.389
 1733WAT     H1 5441   3.632   8.072   7.336
 1733WAT     H2 5442   3.718   8.161   7.442
 1734WAT      O 5443   8.756   0.413   1.643
 1734WAT     H1 5444   8.689   0.426   1.716
 1734WAT     H2 5445   8.844   0.386   1.682
 1735WAT      O 5446   7.805   9.292   5.366
 1735WAT     H1 5447   7.818   9.338   5.279
 1735WAT     H2 5448   7.812   9.193   5.353
 1736WAT      O 5449   7.677   9.597   3.084
 1736WAT     H1 5450   7.759   9.644   3.116
 1736WAT     H2 5451   7.674   9.505   3.121
 1737WAT      O 5452   1.918   6.148   9.264
 1737WAT     H1 5453   1.836   6.201   9.284
 1737WAT     H2 5454   1.909   6.056   9.303
 1738WAT      O 5455   1.771   0.858   6.158
 1738WAT     H1 5456   1.733   0.826   6.244
 1738WAT     H2 5457   1.723   0.815   6.082
 1739WAT      O 5458   0.357   0.123   3.264
 1739WAT     H1 5459   0.333   0.172   3.348
 1739WAT     H2 5460   0.451   0.091   3.269
 1740WAT      O 5461   5.865   9.190   3.253
 1740WAT     H1 5462   5.828   9.161   3.341
 1740WAT     H2 5463   5.963   9.172   3.250
 1741WAT      O 5464   2.352   5.284   8.218
 1741WAT     H1 5465   2.274   5.263   8.276
 1741WAT     H2 5466   2.406   5.357   8.260
 1742WAT      O 5467   3.946   8.248   3.843
 1742WAT     H1 5468   3.961   8.338   3.802
 1742WAT     H2 5469   3.926   8.181   3.771
 1743WAT      O 5470   4.571   5.233   8.128
 1743WAT     H1 5471   4.484   5.185   8.125
 1743WAT     H2 5472   4.646   5.169   8.110
 1744WAT      O 5473   7.936   4.344   0.223
 1744WAT     H1 5474   7.847   4.305   0.198
 1744WAT     H2 5475   8.001   4.271   0.242
 1745WAT      O 5476   4.793   3.109   4.976
 1745WAT     H1 5477   4.749   3.195   4.951
 1745WAT     H2 5478   4.819   3.059   4.893
 1746WAT      O 5479   1.349   9.630   3.663
 1746WAT     H1 5480   1.300   9.580   3.735
 1746WAT     H2 5481   1.313   9.603   3.574
 1747WAT      O 5482   7.723   0.078   7.670
 1747WAT     H1 5483   7.647   0.106   7.729
 1747WAT     H2 5484   7.687   0.026   7.593
 1748WAT      O 5485   5.609   9.063   6.727
 1748WAT     H1 5486   5.685   9.001   6.707
 1748WAT     H2 5487   5.627   9.112   6.812
 1749WAT      O 5488   7.851   2.545   9.202
 1749WAT     H1 5489   7.940   2.569   9.243
 1749WAT     H2 5490   7.863   2.527   9.105
 1750WAT      O 5491   4.579   2.296   7.086
 1750WAT     H1 5492   4.507   2.268   7.023
 1750WAT     H2 5493   4.539   2.320   7.174
 1751WAT      O 5494   9.597   2.511   7.607
 1751WAT     H1 5495   9.645   2.441   7.660
 1751WAT     H2 5496   9.598   2.487   7.510
 1752WAT      O 5497   1.102   2.107   6.936
 1752WAT     H1 5498   1.091   2.098   7.036
 1752WAT     H2 5499   1.077   2.200   6.909
 1753WAT      O 5500   1.623   4.800   9.179
 1753WAT     H1 5501   1.540   4.826   9.227
 1753WAT     H2 5502   1.700   4.853   9.215
 1754WAT      O 5503   4.038   6.418   5.881
 1754WAT     H1 5504   4.084   6.466   5.806
 1754WAT     H2 5505   4.032   6.478   5.961
 1755WAT      O 5506   8.877   1.352   0.321
 1755WAT     H1 5507   8.885   1.259   0.356
 1755WAT     H2 5508   8.959   1.375   0.269
 1756WAT      O 5509   0.998   4.936   3.637
 1756WAT     H1 5510   0.966   4.847   3.605
 1756WAT     H2 5511   0.938   4.969   3.710
 1757WAT      O 5512   1.962   4.651   5.340
 1757WAT     H1 5513   2.038   4.592   5.368
 1757WAT     H2 5514   1.890   4.594   5.299
 1758WAT      O 5515   7.600   2.586   1.143
 1758WAT     H1 5516   7.507   2.549   1.147
 1758WAT     H2 5517   7.601   2.678   1.180
 1759WAT      O 5518   1.840   9.060   4.250
 1759WAT     H1 5519   1.773   9.135   4.252
 1759WAT     H2 5520   1.823   9.000   4.328
 1760WAT      O 5521   5.760   8.071   7.282
 1760WAT     H1 5522   5.759   8.170   7.278
 1760WAT     H2 5523   5.718   8.033   7.200
 1761WAT      O 5524   3.285   8.688   1.897
 1761WAT     H1 5525   3.280   8.623   1.821
 1761WAT     H2 5526   3.358   8.754   1.878
 1762WAT      O 5527   2.623   8.486   7.181
 1762WAT     H1 5528   2.691   8.419   7.208
 1762WAT     H2 5529   2.648   8.576   7.217
 1763WAT      O 5530   1.620   9.515   1.284
 1763WAT     H1 5531   1.525   9.508   1.256
 1763WAT     H2 5532   1.662   9.424   1.284
 1764WAT      O 5533   0.737   9.272   0.653
 1764WAT     H1 5534   0.801   9.336   0.611
 1764WAT     H2 5535   0.662   9.322   0.695
 1765WAT      O 5536   1.703   0.700   5.939
 1765WAT     H1 5537   1.790   0.726   5.896
 1765WAT     H2 5538   1.704   0.602   5.959
 1766WAT      O 5539   6.968   7.384   8.286
 1766WAT     H1 5540   7.027   7.318   8.240
 1766WAT     H2 5541   7.023   7.443   8.345
 1767WAT      O 5542   8.246   1.798   0.696
 1767WAT     H1 5543   8.192   1.855   0.634
 1767WAT     H2 5544   8.304   1.857   0.753
 1768WAT      O 5545   8.534   9.117   1.992
 1768WAT     H1 5546   8.523   9.171   2.075
 1768WAT     H2 5547   8.631   9.114   1.968
 1769WAT      O 5548   4.062   8.524   3.331
 1769WAT     H1 5549   4.080   8.595   3.399
 1769WAT     H2 5550   4.110   8.440   3.357
 1770WAT      O 5551   6.566   0.748   6.075
 1770WAT     H1 5552   6.633   0.675   6.074
 1770WAT     H2 5553   6.474   0.710   6.063
 1771WAT      O 5554   6.882   4.717   8.793
 1771WAT     H1 5555   6.939   4.635   8.802
 1771WAT     H2 5556   6.936   4.790   8.751
 1772WAT      O 5557   8.372   1.129   6.793
 1772WAT     H1 5558   8.283   1.095   6.824
 1772WAT     H2 5559   8.420   1.172   6.870
 1773WAT      O 5560   7.745   3.886   9.774
 1773WAT     H1 5561   7.749   3.924   9.682
 1773WAT     H2 5562   7.838   3.873   9.809
 1774WAT      O 5563   1.868   2.414   3.406
 1774WAT     H1 5564   1.958   2.385   3.374
 1774WAT     H2 5565   1.856   2.512   3.389
 1775WAT      O 5566   6.522   4.969   0.552
 1775WAT     H1 5567   6.561   5.040   0.495
 1775WAT     H2 5568   6.423   4.984   0.561
 1776WAT      O 5569   6.086   8.033   5.701
 1776WAT     H1 5570   6.076   8.119   5.751
 1776WAT     H2 5571   6.088   8.052   5.603
 1777WAT      O 5572   0.255   7.736   5.977
 1777WAT     H1 5573   0.214   7.652   5.940
 1777WAT     H2 5574   0.327   7.768   5.915
 1778WAT      O 5575   1.544   8.337   4.650
 1778WAT     H1 5576   1.616   8.329   4.719
 1778WAT     H2 5577   1.496   8.424   4.662
 1779WAT      O 5578   5.686   6.300   8.492
 1779WAT     H1 5579   5.670   6.247   8.576
 1779WAT     H2 5580   5.608   6.359   8.474
 1780WAT      O 5581   7.328   8.097   3.252
 1780WAT     H1 5582   7.232   8.111   3.226
 1780WAT     H2 5583   7.374   8.185   3.259
 1781WAT      O 5584   2.984   3.747   0.527
 1781WAT     H1 5585   3.027   3.679   0.584
 1781WAT     H2 5586   3.052   3.813   0.495
 1782WAT      O 5587   2.270   5.134   2.892
 1782WAT     H1 5588   2.337   5.206   2.871
 1782WAT     H2 5589   2.224   5.106   2.809
 1783WAT      O 5590   6.279   1.571   7.221
 1783WAT     H1 5591   6.232   1.482   7.215
 1783WAT     H2 5592   6.339   1.571   7.301
 1784WAT      O 5593   5.741   8.760   5.331
 1784WAT     H1 5594   5.659   8.730   5.380
 1784WAT     H2 5595   5.752   8.859   5.340
 1785WAT      O 5596   9.723   5.376   4.798
 1785WAT     H1 5597   9.690   5.345   4.887
 1785WAT     H2 5598   9.821   5.395   4.803
 1786WAT      O 5599   6.020   2.401   3.888
 1786WAT     H1 5600   5.982   2.485   3.928
 1786WAT     H2 5601   6.046   2.338   3.961
 1787WAT      O 5602   5.011   1.343   3.466
 1787WAT     H1 5603   5.096   1.302   3.501
 1787WAT     H2 5604   4.958   1.273   3.418
 1788WAT      O 5605   3.120   0.464   4.016
 1788WAT     H1 5606   3.024   0.457   3.987
 1788WAT     H2 5607   3.177   0.408   3.957
 1789WAT      O 5608   3.350   3.156   3.678
 1789WAT     H1 5609   3.279   3.125   3.614
 1789WAT     H2 5610   3.440   3.145   3.636
 1790WAT      O 5611   4.838   9.365   8.468
 1790WAT     H1 5612   4.927   9.336   8.431
 1790WAT     H2 5613   4.768   9.356   8.397
 1791WAT      O 5614   2.334   1.551   0.059
 1791WAT     H1 5615   2.375   1.628   0.011
 1791WAT     H2 5616   2.404   1.482   0.078
 1792WAT      O 5617   3.004   7.772   8.497
 1792WAT     H1 5618   2.948   7.742   8.574
 1792WAT     H2 5619   3.015   7.871   8.501
 1793WAT      O 5620   5.000   4.794   2.562
 1793WAT     H1 5621   5.069   4.856   2.525
 1793WAT     H2 5622   4.917   4.799   2.506
 1794WAT      O 5623   8.986   5.962   8.500
 1794WAT     H1 5624   9.044   6.031   8.457
 1794WAT     H2 5625   9.041   5.882   8.522
 1795WAT      O 5626   9.292   7.623   6.212
 1795WAT     H1 5627   9.283   7.654   6.118
 1795WAT     H2 5628   9.362   7.552   6.218
 1796WAT      O 5629   8.413   2.095   4.190
 1796WAT     H1 5630   8.496   2.070   4.140
 1796WAT     H2 5631   8.357   2.154   4.132
 1797WAT      O 5632   3.922   7.448   4.301
 1797WAT     H1 5633   3.936   7.417   4.395
 1797WAT     H2 5634   4.010   7.454   4.254
 1798WAT      O 5635   3.507   4.956   8.738
 1798WAT     H1 5636   3.570   4.879   8.723
 1798WAT     H2 5637   3.447   4.966   8.660
 1799WAT      O 5638   7.323   5.624   1.064
 1799WAT     H1 5639   7.281   5.576   0.987
 1799WAT     H2 5640   7.334   5.560   1.141
 1800WAT      O 5641   5.042   0.199   5.762
 1800WAT     H1 5642   5.064   0.114   5.714
 1800WAT     H2 5643   5.026   0.272   5.696
 1801WAT      O 5644   0.076   7.568   2.062
 1801WAT     H1 5645   0.070   7.469   2.076
 1801WAT     H2 5646   0.109   7.611   2.145
 1802WAT      O 5647   1.993   1.062   6.272
 1802WAT     H1 5648   1.930   1.089   6.199
 1802WAT     H2 5649   2.087   1.064   6.237
 1803WAT      O 5650   2.179   6.132   6.541
 1803WAT     H1 5651   2.101   6.087   6.585
 1803WAT     H2 5652   2.255   6.138   6.607
 1804WAT      O 5653   6.527   0.887   3.954
 1804WAT     H1 5654   6.535   0.799   3.907
 1804WAT     H2 5655   6.568   0.880   4.045
 1805WAT      O 5656   4.904   8.782   7.084
 1805WAT     H1 5657   4.924   8.798   7.181
 1805WAT     H2 5658   4.819   8.731   7.075
 1806WAT      O 5659   3.161   8.709   0.296
 1806WAT     H1 5660   3.174   8.612   0.319
 1806WAT     H2 5661   3.229   8.764   0.345
 1807WAT      O 5662   1.527   2.545   0.158
 1807WAT     H1 5663   1.459   2.617   0.146
 1807WAT     H2 5664   1.540   2.496   0.071
 1808WAT      O 5665   7.055   2.604   9.018
 1808WAT     H1 5666   7.012   2.629   9.105
 1808WAT     H2 5667   7.154   2.620   9.024
 1809WAT      O 5668   5.794   4.782   2.584
 1809WAT     H1 5669   5.857   4.835   2.528
 1809WAT     H2 5670   5.788   4.823   2.675
 1810WAT      O 5671   3.343   4.707   9.768
 1810WAT     H1 5672   3.359   4.653   9.851
 1810WAT     H2 5673   3.430   4.724   9.722
 1811WAT      O 5674   5.384   7.393   9.767
 1811WAT     H1 5675   5.484   7.391   9.767
 1811WAT     H2 5676   5.353   7.488   9.771
 1812WAT      O 5677   1.192   6.962   1.023
 1812WAT     H1 5678   1.278   6.918   1.048
 1812WAT     H2 5679   1.164   7.023   1.097
 1813WAT      O 5680   1.153   7.608   5.689
 1813WAT     H1 5681   1.133   7.593   5.786
 1813WAT     H2 5682   1.083   7.565   5.633
 1814WAT      O 5683   4.431   9.838   6.720
 1814WAT     H1 5684   4.393   9.778   6.790
 1814WAT     H2 5685   4.445   9.786   6.636
 1815WAT      O 5686   3.607   2.231   7.511
 1815WAT     H1 5687   3.535   2.258   7.448
 1815WAT     H2 5688   3.652   2.149   7.477
 1816WAT      O 5689   8.337   0.178   6.861
 1816WAT     H1 5690   8.302   0.085   6.863
 1816WAT     H2 5691   8.384   0.198   6.948
 1817WAT      O 5692   1.685   4.800   1.761
 1817WAT     H1 5693   1.593   4.810   1.799
 1817WAT     H2 5694   1.723   4.890   1.741
 1818WAT      O 5695   5.870   4.552   0.426
 1818WAT     H1 5696   5.898   4.537   0.521
 1818WAT     H2 5697   5.854   4.649   0.410
 1819WAT      O 5698   0.178   7.288   7.388
 1819WAT     H1 5699   0.151   7.278   7.483
 1819WAT     H2 5700   0.168   7.201   7.341
 1820WAT      O 5701   1.907   1.383   1.937
 1820WAT     H1 5702   1.891   1.296   1.983
 1820WAT     H2 5703   1.975   1.436   1.987
 1821WAT      O 5704   8.503   1.412   0.050
 1821WAT     H1 5705   8.454   1.325   0.052
 1821WAT     H2 5706   8.519   1.442   0.144
 1822WAT      O 5707   8.558   3.197   7.279
 1822WAT     H1 5708   8.627   3.255   7.323
 1822WAT     H2 5709   8.521   3.244   7.199
 1823WAT      O 5710   9.425   6.748   2.652
 1823WAT     H1 5711   9.342   6.799   2.630
 1823WAT     H2 5712   9.418   6.654   2.618
 1824WAT      O 5713   9.565   9.245   0.720
 1824WAT     H1 5714   9.653   9.196   0.719
 1824WAT     H2 5715   9.572   9.327   0.664
 1825WAT      O 5716   6.837   4.990   8.300
 1825WAT     H1 5717   6.841   4.907   8.243
 1825WAT     H2 5718   6.749   4.995   8.345
 1826WAT      O 5719   3.698   4.562   1.779
 1826WAT     H1 5720   3.599   4.548   1.783
 1826WAT     H2 5721   3.744   4.490   1.830
 1827WAT      O 5722   6.962   9.172   7.435
 1827WAT     H1 5723   6.883   9.117   7.461
 1827WAT     H2 5724   7.018   9.120   7.370
 1828WAT      O 5725   3.727   5.010   1.401
 1828WAT     H1 5726   3.767   4.920   1.384
 1828WAT     H2 5727   3.641   5.000   1.452
 1829WAT      O 5728   4.202   2.173   3.040
 1829WAT     H1 5729   4.281   2.192   2.982
 1829WAT     H2 5730   4.233   2.148   3.132
 1830WAT      O 5731   6.132   7.187   9.568
 1830WAT     H1 5732   6.105   7.282   9.553
 1830WAT     H2 5733   6.072   7.127   9.514
 1831WAT      O 5734   0.743   7.147   6.123
 1831WAT     H1 5735   0.725   7.061   6.171
 1831WAT     H2 5736   0.656   7.192   6.101
 1832WAT      O 5737   9.692   2.656   4.692
 1832WAT     H1 5738   9.684   2.730   4.625
 1832WAT     H2 5739   9.757   2.682   4.764
 1833WAT      O 5740   1.598   4.954   6.645
 1833WAT     H1 5741   1.642   4.907   6.722
 1833WAT     H2 5742   1.646   4.932   6.560
 1834WAT      O 5743   4.424   1.426   2.580
 1834WAT     H1 5744   4.445   1.330   2.560
 1834WAT     H2 5745   4.453   1.483   2.504
 1835WAT      O 5746   8.256   2.135   4.606
 1835WAT     H1 5747   8.241   2.178   4.696
 1835WAT     H2 5748   8.174   2.146   4.550
 1836WAT      O 5749   3.442   9.838   4.274
 1836WAT     H1 5750   3.458   9.932   4.302
 1836WAT     H2 5751   3.492   9.776   4.335
 1837WAT      O 5752   2.422   1.996   7.028
 1837WAT     H1 5753   2.392   1.905   6.998
 1837WAT     H2 5754   2.501   1.986   7.088
 1838WAT      O 5755   3.609   5.458   5.585
 1838WAT     H1 5756   3.654   5.544   5.608
 1838WAT     H2 5757   3.554   5.470   5.503
 1839WAT      O 5758   7.741   5.313   5.863
 1839WAT     H1 5759   7.720   5.220   5.894
 1839WAT     H2 5760   7.676   5.340   5.792
 1840WAT      O 5761   1.641   2.090   7.841
 1840WAT     H1 5762   1.574   2.130   7.903
 1840WAT     H2 5763   1.655   2.150   7.763
 1841WAT      O 5764   3.211   9.379   7.491
 1841WAT     H1 5765   3.225   9.281   7.508
 1841WAT     H2 5766   3.113   9.400   7.498
 1842WAT      O 5767   0.907   3.540   3.593
 1842WAT     H1 5768   0.934   3.445   3.610
 1842WAT     H2 5769   0.826   3.561   3.648
 1843WAT      O 5770   3.452   3.620   5.282
 1843WAT     H1 5771   3.360   3.657   5.275
 1843WAT     H2 5772   3.453   3.543   5.346
 1844WAT      O 5773   2.345   5.114   1.958
 1844WAT     H1 5774   2.332   5.026   1.911
 1844WAT     H2 5775   2.293   5.185   1.910
 1845WAT      O 5776   8.164   4.831   4.704
 1845WAT     H1 5777   8.121   4.742   4.692
 1845WAT     H2 5778   8.095   4.903   4.697
 1846WAT      O 5779   0.582   0.124   2.408
 1846WAT     H1 5780   0.593   0.216   2.372
 1846WAT     H2 5781   0.559   0.129   2.506
 1847WAT      O 5782   4.727   2.720   1.193
 1847WAT     H1 5783   4.790   2.798   1.193
 1847WAT     H2 5784   4.773   2.640   1.233
 1848WAT      O 5785   7.853   9.354   7.706
 1848WAT     H1 5786   7.787   9.281   7.692
 1848WAT     H2 5787   7.929   9.321   7.761
 1849WAT      O 5788   5.769   4.487   3.773
 1849WAT     H1 5789   5.752   4.535   3.859
 1849WAT     H2 5790   5.866   4.463   3.767
 1850WAT      O 5791   1.111   1.318   7.081
 1850WAT     H1 5792   1.089   1.373   7.162
 1850WAT     H2 5793   1.183   1.253   7.103
 1851WAT      O 5794   5.300   7.625   8.624
 1851WAT     H1 5795   5.242   7.543   8.624
 1851WAT     H2 5796   5.243   7.705   8.606
 1852WAT      O 5797   1.241   1.568   9.623
 1852WAT     H1 5798   1.145   1.540   9.624
 1852WAT     H2 5799   1.250   1.660   9.661
 1853WAT      O 5800   9.638   7.483   4.820
 1853WAT     H1 5801   9.590   7.469   4.906
 1853WAT     H2 5802   9.698   7.563   4.828
 1854WAT      O 5803   7.326   9.208   3.012
 1854WAT     H1 5804   7.377   9.280   2.966
 1854WAT     H2 5805   7.388   9.136   3.043
 1855WAT      O 5806   6.310   6.089   5.443
 1855WAT     H1 5807   6.228   6.137   5.474
 1855WAT     H2 5808   6.287   5.993   5.425
 1856WAT      O 5809   1.105   0.826   1.020
 1856WAT     H1 5810   1.157   0.744   0.995
 1856WAT     H2 5811   1.166   0.905   1.021
 1857WAT      O 5812   4.442   9.414   0.510
 1857WAT     H1 5813   4.378   9.378   0.442
 1857WAT     H2 5814   4.499   9.485   0.468
 1858WAT      O 5815   1.532   0.444   9.615
 1858WAT     H1 5816   1.613   0.487   9.656
 1858WAT     H2 5817   1.451   0.466   9.670
 1859WAT      O 5818   5.202   5.977   4.584
 1859WAT     H1 5819   5.283   5.935   4.543
 1859WAT     H2 5820   5.124   5.966   4.523
 1860WAT      O 5821   0.055   4.800   2.454
 1860WAT     H1 5822   0.072   4.747   2.537
 1860WAT     H2 5823   0.136   4.856   2.434
 1861WAT      O 5824   9.348   5.585   1.376
 1861WAT     H1 5825   9.334   5.517   1.303
 1861WAT     H2 5826   9.351   5.538   1.464
 1862WAT      O 5827   2.123   2.481   4.911
 1862WAT     H1 5828   2.038   2.514   4.869
 1862WAT     H2 5829   2.109   2.389   4.947
 1863WAT      O 5830   0.781   3.003   6.879
 1863WAT     H1 5831   0.683   3.013   6.894
 1863WAT     H2 5832   0.797   2.973   6.785
 1864WAT      O 5833   7.524   3.534   4.958
 1864WAT     H1 5834   7.539   3.618   5.011
 1864WAT     H2 5835   7.480   3.556   4.871
 1865WAT      O 5836   3.936   0.706   0.772
 1865WAT     H1 5837   3.884   0.749   0.698
 1865WAT     H2 5838   3.927   0.607   0.766
 1866WAT      O 5839   4.318   7.211   2.740
 1866WAT     H1 5840   4.408   7.254   2.737
 1866WAT     H2 5841   4.248   7.282   2.741
 1867WAT      O 5842   7.757   9.526   6.440
 1867WAT     H1 5843   7.686   9.597   6.445
 1867WAT     H2 5844   7.759   9.487   6.348
 1868WAT      O 5845   5.680   4.364   6.940
 1868WAT     H1 5846   5.650   4.455   6.910
 1868WAT     H2 5847   5.605   4.299   6.929
 1869WAT      O 5848   5.705   5.466   4.295
 1869WAT     H1 5849   5.737   5.557   4.320
 1869WAT     H2 5850   5.608   5.470   4.269
 1870WAT      O 5851   6.567   0.660   3.823
 1870WAT     H1 5852   6.632   0.649   3.747
 1870WAT     H2 5853   6.555   0.572   3.870
 1871WAT      O 5854   4.341   6.062   3.155
 1871WAT     H1 5855   4.430   6.082   3.195
 1871WAT     H2 5856   4.283   6.020   3.225
 1872WAT      O 5857   6.733   4.002   8.462
 1872WAT     H1 5858   6.655   3.943   8.486
 1872WAT     H2 5859   6.788   3.957   8.392
 1873WAT      O 5860   9.462   1.059   4.390
 1873WAT     H1 5861   9.521   1.098   4.319
 1873WAT     H2 5862   9.457   0.960   4.378
 1874WAT      O 5863   9.543   4.926   5.373
 1874WAT     H1 5864   9.455   4.918   5.327
 1874WAT     H2 5865   9.532   4.981   5.456
 1875WAT      O 5866   4.708   1.705   9.208
 1875WAT     H1 5867   4.766   1.627   9.234
 1875WAT     H2 5868   4.727   1.731   9.114
 1876WAT      O 5869   1.344   8.426   3.610
 1876WAT     H1 5870   1.308   8.340   3.646
 1876WAT     H2 5871   1.411   8.406   3.538
 1877WAT      O 5872   8.681   5.905   8.172
 1877WAT     H1 5873   8.620   5.850   8.115
 1877WAT     H2 5874   8.774   5.902   8.134
 1878WAT      O 5875   7.654   7.945   8.642
 1878WAT     H1 5876   7.587   7.973   8.711
 1878WAT     H2 5877   7.609   7.890   8.572
 1879WAT      O 5878   4.124   7.918   3.456
 1879WAT     H1 5879   4.067   7.920   3.374
 1879WAT     H2 5880   4.085   7.980   3.525
 1880WAT      O 5881   9.148   9.393   5.887
 1880WAT     H1 5882   9.185   9.304   5.914
 1880WAT     H2 5883   9.063   9.378   5.835
 1881WAT      O 5884   2.027   0.448   1.483
 1881WAT     H1 5885   1.928   0.440   1.469
 1881WAT     H2 5886   2.056   0.542   1.466
 1882WAT      O 5887   5.335   7.122   5.875
 1882WAT     H1 5888   5.306   7.104   5.969
 1882WAT     H2 5889   5.257   7.112   5.813
 1883WAT      O 5890   0.406   2.092   4.427
 1883WAT     H1 5891   0.423   2.183   4.463
 1883WAT     H2 5892   0.353   2.099   4.342
 1884WAT      O 5893   3.072   5.578   7.950
 1884WAT     H1 5894   2.985   5.530   7.961
 1884WAT     H2 5895   3.138   5.517   7.906
 1885WAT      O 5896   4.046   7.094   3.016
 1885WAT     H1 5897   4.127   7.095   3.074
 1885WAT     H2 5898   3.964   7.102   3.073
 1886WAT      O 5899   9.677   5.803   4.925
 1886WAT     H1 5900   9.714   5.757   5.006
 1886WAT     H2 5901   9.582   5.828   4.941
 1887WAT      O 5902   6.820   6.086   2.270
 1887WAT     H1 5903   6.794   5.996   2.236
 1887WAT     H2 5904   6.842   6.146   2.193
 1888WAT      O 5905   1.411   8.597   4.362
 1888WAT     H1 5906   1.485   8.653   4.325
 1888WAT     H2 5907   1.323   8.635   4.332
 1889WAT      O 5908   4.398   4.028   1.318
 1889WAT     H1 5909   4.420   3.935   1.347
 1889WAT     H2 5910   4.443   4.047   1.230
 1890WAT      O 5911   1.617   4.620   9.459
 1890WAT     H1 5912   1.619   4.547   9.528
 1890WAT     H2 5913   1.539   4.605   9.397
 1891WAT      O 5914   7.571   0.822   1.573
 1891WAT     H1 5915   7.479   0.796   1.605
 1891WAT     H2 5916   7.563   0.897   1.507
 1892WAT      O 5917   3.215   7.495   5.091
 1892WAT     H1 5918   3.141   7.483   5.157
 1892WAT     H2 5919   3.298   7.524   5.139
 1893WAT      O 5920   6.751   0.699   6.472
 1893WAT     H1 5921   6.662   0.745   6.472
 1893WAT     H2 5922   6.823   0.768   6.466
 1894WAT      O 5923   9.076   8.380   9.824
 1894WAT     H1 5924   8.981   8.348   9.815
 1894WAT     H2 5925   9.126   8.361   9.740
 1895WAT      O 5926   4.097   4.464   8.815
 1895WAT     H1 5927   4.181   4.443   8.865
 1895WAT     H2 5928   4.116   4.469   8.718
 1896WAT      O 5929   9.358   3.095   1.781
 1896WAT     H1 5930   9.420   3.174   1.782
 1896WAT     H2 5931   9.314   3.086   1.870
 1897WAT      O 5932   7.482   5.975   4.656
 1897WAT     H1 5933   7.417   6.043   4.691
 1897WAT     H2 5934   7.551   5.956   4.727
 1898WAT      O 5935   4.384   3.340   1.089
 1898WAT     H1 5936   4.381   3.434   1.055
 1898WAT     H2 5937   4.322   3.283   1.037
 1899WAT      O 5938   2.972   1.853   8.594
 1899WAT     H1 5939   3.071   1.867   8.588
 1899WAT     H2 5940   2.926   1.942   8.591
 1900WAT      O 5941   8.698   7.623   3.813
 1900WAT     H1 5942   8.634   7.693   3.782
 1900WAT     H2 5943   8.745   7.655   3.895
 1901WAT      O 5944   2.443   5.254   9.649
 1901WAT     H1 5945   2.523   5.310   9.669
 1901WAT     H2 5946   2.468   5.181   9.585
 1902WAT      O 5947   2.691   1.826   2.109
 1902WAT     H1 5948   2.659   1.762   2.039
 1902WAT     H2 5949   2.791   1.826   2.110
 1903WAT      O 5950   1.983   7.094   2.693
 1903WAT     H1 5951   2.056   7.160   2.675
 1903WAT     H2 5952   1.998   7.051   2.782
 1904WAT      O 5953   1.121   3.304   6.599
 1904WAT     H1 5954   1.115   3.223   6.657
 1904WAT     H2 5955   1.216   3.318   6.570
 1905WAT      O 5956   1.145   9.426   0.574
 1905WAT     H1 5957   1.243   9.445   0.562
 1905WAT     H2 5958   1.132   9.328   0.587
 1906WAT      O 5959   2.180   9.395   5.810
 1906WAT     H1 5960   2.240   9.409   5.888
 1906WAT     H2 5961   2.229   9.346   5.738
 1907WAT      O 5962   6.624   4.780   8.684
 1907WAT     H1 5963   6.711   4.784   8.733
 1907WAT     H2 5964   6.549   4.765   8.749
 1908WAT      O 5965   5.825   4.340   6.282
 1908WAT     H1 5966   5.795   4.402   6.354
 1908WAT     H2 5967   5.781   4.251   6.294
 1909WAT      O 5968   0.780   9.026   5.133
 1909WAT     H1 5969   0.713   8.961   5.096
 1909WAT     H2 5970   0.732   9.093   5.190
 1910WAT      O 5971   0.389   1.704   4.916
 1910WAT     H1 5972   0.400   1.636   4.844
 1910WAT     H2 5973   0.470   1.763   4.919
 1911WAT      O 5974   1.521   1.009   9.273
 1911WAT     H1 5975   1.463   1.089   9.264
 1911WAT     H2 5976   1.465   0.926   9.268
 1912WAT      O 5977   5.543   2.134   4.631
 1912WAT     H1 5978   5.445   2.153   4.634
 1912WAT     H2 5979   5.564   2.058   4.693
 1913WAT      O 5980   5.478   2.385   6.208
 1913WAT     H1 5981   5.406   2.387   6.278
 1913WAT     H2 5982   5.567   2.385   6.253
 1914WAT      O 5983   4.426   7.571   0.459
 1914WAT     H1 5984   4.392   7.480   0.435
 1914WAT     H2 5985   4.366   7.640   0.419
 1915WAT      O 5986   9.205   2.388   8.290
 1915WAT     H1 5987   9.167   2.324   8.223
 1915WAT     H2 5988   9.180   2.481   8.264
 1916WAT      O 5989   5.110   9.399   1.558
 1916WAT     H1 5990   5.029   9.342   1.546
 1916WAT     H2 5991   5.192   9.342   1.555
 1917WAT      O 5992   8.619   1.503   5.656
 1917WAT     H1 5993   8.608   1.486   5.558
 1917WAT     H2 5994   8.567   1.435   5.708
 1918WAT      O 5995   5.590   7.297   1.563
 1918WAT     H1 5996   5.577   7.245   1.478
 1918WAT     H2 5997   5.619   7.235   1.636
 1919WAT      O 5998   7.564   3.992   3.775
 1919WAT     H1 5999   7.477   4.032   3.805
 1919WAT     H2 6000   7.618   4.061   3.728
 1920WAT      O 6001   8.185   6.024   9.461
 1920WAT     H1 6002   8.198   6.109   9.511
 1920WAT     H2 6003   8.234   6.028   9.374
 1921WAT      O 6004   1.033   1.488   3.839
 1921WAT     H1 6005   1.124   1.450   3.852
 1921WAT     H2 6006   1.009   1.546   3.918
 1922WAT      O 6007   9.018   1.284   3.623
 1922WAT     H1 6008   9.052   1.199   3.664
 1922WAT     H2 6009   8.919   1.288   3.633
 1923WAT      O 6010   1.013   3.828   0.953
 1923WAT     H1 6011   1.094   3.870   0.995
 1923WAT     H2 6012   0.978   3.756   1.012
 1924WAT      O 6013   0.035   5.053   6.099
 1924WAT     H1 6014   0.068   5.101   6.018
 1924WAT     H2 6015  -0.057   5.019   6.082
 1925WAT      O 6016   2.215   9.266   8.526
 1925WAT     H1 6017   2.119   9.294   8.524
 1925WAT     H2 6018   2.220   9.169   8.548
 1926WAT      O 6019   3.326   7.097   7.782
 1926WAT     H1 6020   3.236   7.087   7.823
 1926WAT     H2 6021   3.362   7.007   7.758
 1927WAT      O 6022   5.546   0.828   5.444
 1927WAT     H1 6023   5.617   0.766   5.478
 1927WAT     H2 6024   5.522   0.804   5.350
 1928WAT      O 6025   5.584   5.823   7.706
 1928WAT     H1 6026   5.484   5.817   7.704
 1928WAT     H2 6027   5.622   5.736   7.673
 1929WAT      O 6028   5.582   0.025   1.216
 1929WAT     H1 6029   5.611   0.069   1.131
 1929WAT     H2 6030   5.661  -0.021   1.258
 1930WAT      O 6031   4.554   4.863   0.386
 1930WAT     H1 6032   4.602   4.792   0.436
 1930WAT     H2 6033   4.528   4.829   0.296
 1931WAT      O 6034   1.541   7.993   5.556
 1931WAT     H1 6035   1.607   8.069   5.562
 1931WAT     H2 6036   1.588   7.912   5.520
 1932WAT      O 6037   4.269   4.450   3.019
 1932WAT     H1 6038   4.199   4.479   2.955
 1932WAT     H2 6039   4.343   4.404   2.970
 1933WAT      O 6040   7.141   2.452   6.599
 1933WAT     H1 6041   7.163   2.416   6.508
 1933WAT     H2 6042   7.046   2.432   6.622
 1934WAT      O 6043   6.850   0.178   4.838
 1934WAT     H1 6044   6.850   0.094   4.783
 1934WAT     H2 6045   6.805   0.160   4.926
 1935WAT      O 6046   5.474   9.522   7.690
 1935WAT     H1 6047   5.530   9.462   7.748
 1935WAT     H2 6048   5.534   9.572   7.628
 1936WAT      O 6049   5.931   4.844   7.236
 1936WAT     H1 6050   5.889   4.754   7.224
 1936WAT     H2 6051   6.006   4.836   7.302
 1937WAT      O 6052   7.204   7.486   6.049
 1937WAT     H1 6053   7.259   7.405   6.028
 1937WAT     H2 6054   7.256   7.568   6.027
 1938WAT      O 6055   6.376   4.385   9.049
 1938WAT     H1 6056   6.362   4.433   9.136
 1938WAT     H2 6057   6.304   4.317   9.038
 1939WAT      O 6058   3.010   7.311   9.758
 1939WAT     H1 6059   3.106   7.327   9.737
 1939WAT     H2 6060   2.954   7.386   9.723
 1940WAT      O 6061   6.431   2.735   6.633
 1940WAT     H1 6062   6.362   2.664   6.624
 1940WAT     H2 6063   6.513   2.709   6.582
 1941WAT      O 6064   8.241   6.374   6.094
 1941WAT     H1 6065   8.269   6.287   6.053
 1941WAT     H2 6066   8.318   6.412   6.146
 1942WAT      O 6067   4.843   3.010   2.539
 1942WAT     H1 6068   4.860   2.935   2.603
 1942WAT     H2 6069   4.893   2.994   2.454
 1943WAT      O 6070   3.998   9.135   9.706
 1943WAT     H1 6071   4.028   9.200   9.776
 1943WAT     H2 6072   3.925   9.078   9.744
 1944WAT      O 6073   6.777   4.836   3.470
 1944WAT     H1 6074   6.723   4.759   3.436
 1944WAT     H2 6075   6.717   4.916   3.481
 1945WAT      O 6076   6.949   6.734   4.910
 1945WAT     H1 6077   6.851   6.754   4.909
 1945WAT     H2 6078   6.973   6.685   4.993
 1946WAT      O 6079   8.686   6.817   0.953
 1946WAT     H1 6080   8.653   6.777   1.039
 1946WAT     H2 6081   8.628   6.786   0.878
 1947WAT      O 6082   1.371   4.574   8.311
 1947WAT     H1 6083   1.315   4.491   8.313
 1947WAT     H2 6084   1.399   4.596   8.405
 1948WAT      O 6085   1.960   6.538   0.445
 1948WAT     H1 6086   1.984   6.563   0.351
 1948WAT     H2 6087   1.980   6.614   0.507
 1949WAT      O 6088   6.331   5.863   3.665
 1949WAT     H1 6089   6.240   5.883   3.701
 1949WAT     H2 6090   6.369   5.784   3.713
 1950WAT      O 6091   9.128   5.358   4.023
 1950WAT     H1 6092   9.042   5.311   4.002
 1950WAT     H2 6093   9.190   5.295   4.068
 1951WAT      O 6094   9.251   5.951   1.910
 1951WAT     H1 6095   9.164   5.902   1.904
 1951WAT     H2 6096   9.320   5.904   1.855
 1952WAT      O 6097   0.934   4.158   6.944
 1952WAT     H1 6098   0.884   4.087   6.994
 1952WAT     H2 6099   1.033   4.143   6.956
 1953WAT      O 6100   9.787   0.503   8.340
 1953WAT     H1 6101   9.799   0.507   8.241
 1953WAT     H2 6102   9.693   0.527   8.364
 1954WAT      O 6103   9.154   0.030   7.331
 1954WAT     H1 6104   9.141   0.128   7.313
 1954WAT     H2 6105   9.068  -0.018   7.318
 1955WAT      O 6106   7.549   2.096   3.098
 1955WAT     H1 6107   7.479   2.024   3.100
 1955WAT     H2 6108   7.604   2.087   3.015
 1956WAT      O 6109   9.281   8.719   4.156
 1956WAT     H1 6110   9.267   8.772   4.239
 1956WAT     H2 6111   9.311   8.626   4.180
 1957WAT      O 6112   6.497   7.149   5.828
 1957WAT     H1 6113   6.459   7.151   5.735
 1957WAT     H2 6114   6.597   7.145   5.822
 1958WAT      O 6115   8.471   1.855   7.633
 1958WAT     H1 6116   8.451   1.776   7.691
 1958WAT     H2 6117   8.561   1.892   7.659
 1959WAT      O 6118   4.626   4.902   8.171
 1959WAT     H1 6119   4.677   4.821   8.142
 1959WAT     H2 6120   4.612   4.897   8.270
 1960WAT      O 6121   5.074   6.106   6.216
 1960WAT     H1 6122   4.974   6.102   6.217
 1960WAT     H2 6123   5.104   6.167   6.143
 1961WAT      O 6124   7.989   2.798   3.696
 1961WAT     H1 6125   8.041   2.862   3.753
 1961WAT     H2 6126   8.009   2.704   3.726
 1962WAT      O 6127   2.813   1.259   9.340
 1962WAT     H1 6128   2.863   1.239   9.256
 1962WAT     H2 6129   2.719   1.227   9.331
 1963WAT      O 6130   6.440   3.968   0.370
 1963WAT     H1 6131   6.376   3.940   0.442
 1963WAT     H2 6132   6.481   3.887   0.329
 1964WAT      O 6133   8.987   3.102   9.343
 1964WAT     H1 6134   8.996   3.201   9.346
 1964WAT     H2 6135   9.069   3.060   9.383
 1965WAT      O 6136   5.503   4.657   2.109
 1965WAT     H1 6137   5.430   4.686   2.170
 1965WAT     H2 6138   5.591   4.670   2.154
 1966WAT      O 6139   1.883   5.918   5.835
 1966WAT     H1 6140   1.971   5.873   5.820
 1966WAT     H2 6141   1.871   5.938   5.932
 1967WAT      O 6142   7.411   5.885   9.488
 1967WAT     H1 6143   7.428   5.857   9.582
 1967WAT     H2 6144   7.435   5.982   9.478
 1968WAT      O 6145   6.641   7.122   1.879
 1968WAT     H1 6146   6.588   7.038   1.891
 1968WAT     H2 6147   6.670   7.130   1.784
 1969WAT      O 6148   1.656   5.853   6.180
 1969WAT     H1 6149   1.631   5.781   6.245
 1969WAT     H2 6150   1.615   5.833   6.091
 1970WAT      O 6151   0.165   6.363   6.569
 1970WAT     H1 6152   0.142   6.396   6.661
 1970WAT     H2 6153   0.100   6.294   6.541
 1971WAT      O 6154   8.475   0.535   8.187
 1971WAT     H1 6155   8.381   0.528   8.220
 1971WAT     H2 6156   8.474   0.557   8.089
 1972WAT      O 6157   8.787   4.090   9.122
 1972WAT     H1 6158   8.880   4.091   9.159
 1972WAT     H2 6159   8.785   4.037   9.037
 1973WAT      O 6160   1.368   6.496   2.502
 1973WAT     H1 6161   1.296   6.564   2.515
 1973WAT     H2 6162   1.403   6.501   2.408
 1974WAT      O 6163   4.814   4.928   4.159
 1974WAT     H1 6164   4.826   5.010   4.103
 1974WAT     H2 6165   4.823   4.952   4.256
 1975WAT      O 6166   6.526   3.161   2.629
 1975WAT     H1 6167   6.601   3.215   2.667
 1975WAT     H2 6168   6.560   3.071   2.603
 1976WAT      O 6169   5.514   0.432   1.125
 1976WAT     H1 6170   5.483   0.371   1.052
 1976WAT     H2 6171   5.450   0.427   1.201
 1977WAT      O 6172   8.454   8.807   8.770
 1977WAT     H1 6173   8.494   8.769   8.687
 1977WAT     H2 6174   8.431   8.733   8.833
 1978WAT      O 6175   0.092   8.177   2.647
 1978WAT     H1 6176   0.013   8.143   2.700
 1978WAT     H2 6177   0.135   8.100   2.599
 1979WAT      O 6178   5.393   6.925   9.310
 1979WAT     H1 6179   5.410   7.014   9.351
 1979WAT     H2 6180   5.478   6.875   9.301
 1980WAT      O 6181   6.698   7.509   4.526
 1980WAT     H1 6182   6.747   7.568   4.592
 1980WAT     H2 6183   6.752   7.426   4.511
 1981WAT      O 6184   7.478   8.285   4.860
 1981WAT     H1 6185   7.424   8.369   4.864
 1981WAT     H2 6186   7.509   8.270   4.766
 1982WAT      O 6187   0.264   6.960   3.463
 1982WAT     H1 6188   0.227   7.043   3.421
 1982WAT     H2 6189   0.320   6.986   3.542
 1983WAT      O 6190   1.443   4.666   8.576
 1983WAT     H1 6191   1.531   4.684   8.619
 1983WAT     H2 6192   1.392   4.752   8.568
 1984WAT      O 6193   2.349   5.392   1.070
 1984WAT     H1 6194   2.258   5.366   1.039
 1984WAT     H2 6195   2.356   5.492   1.072
 1985WAT      O 6196   1.929   9.276   5.884
 1985WAT     H1 6197   1.949   9.179   5.875
 1985WAT     H2 6198   2.011   9.329   5.863
 1986WAT      O 6199   4.848   6.177   4.737
 1986WAT     H1 6200   4.771   6.121   4.766
 1986WAT     H2 6201   4.848   6.263   4.787
 1987WAT      O 6202   8.319   7.283   3.864
 1987WAT     H1 6203   8.418   7.269   3.851
 1987WAT     H2 6204   8.269   7.232   3.794
 1988WAT      O 6205   3.158   2.300   8.239
 1988WAT     H1 6206   3.212   2.268   8.317
 1988WAT     H2 6207   3.185   2.394   8.217
 1989WAT      O 6208   4.907   6.434   5.503
 1989WAT     H1 6209   4.859   6.348   5.486
 1989WAT     H2 6210   4.979   6.446   5.433
 1990WAT      O 6211   1.645   2.000   3.647
 1990WAT     H1 6212   1.559   2.044   3.670
 1990WAT     H2 6213   1.652   1.913   3.696
 1991WAT      O 6214   5.459   3.143   5.302
 1991WAT     H1 6215   5.410   3.056   5.306
 1991WAT     H2 6216   5.548   3.129   5.259
 1992WAT      O 6217   1.236   5.455   3.275
 1992WAT     H1 6218   1.274   5.544   3.301
 1992WAT     H2 6219   1.207   5.457   3.180
 1993WAT      O 6220   4.842   1.799   9.855
 1993WAT     H1 6221   4.816   1.705   9.831
 1993WAT     H2 6222   4.877   1.801   9.948
 1994WAT      O 6223   9.525   7.469   5.748
 1994WAT     H1 6224   9.497   7.523   5.827
 1994WAT     H2 6225   9.445   7.446   5.693
 1995WAT      O 6226   3.781   0.261   1.573
 1995WAT     H1 6227   3.814   0.355   1.563
 1995WAT     H2 6228   3.686   0.262   1.606
 1996WAT      O 6229   0.858   2.340   3.190
 1996WAT     H1 6230   0.769   2.333   3.145
 1996WAT     H2 6231   0.903   2.251   3.189
 1997WAT      O 6232   9.780   6.434   0.724
 1997WAT     H1 6233   9.824   6.416   0.812
 1997WAT     H2 6234   9.801   6.360   0.660
 1998WAT      O 6235   4.670   3.578   0.371
 1998WAT     H1 6236   4.718   3.503   0.415
 1998WAT     H2 6237   4.672   3.566   0.272
 1999WAT      O 6238   3.921   4.300   5.485
 1999WAT     H1 6239   3.964   4.226   5.433
 1999WAT     H2 6240   3.991   4.351   5.536
 2000WAT      O 6241   3.222   1.908   8.564
 2000WAT     H1 6242   3.222   1.823   8.512
 2000WAT     H2 6243   3.305   1.960   8.545
 2001WAT      O 6244   2.206   5.343   0.290
 2001WAT     H1 6245   2.111   5.313   0.283
 2001WAT     H2 6246   2.254   5.288   0.359
 2002WAT      O 6247   4.768   1.788   0.859
 2002WAT     H1 6248   4.729   1.839   0.936
 2002WAT     H2 6249   4.741   1.831   0.773
 2003WAT      O 6250   5.050   2.947   8.156
 2003WAT     H1 6251   5.083   2.984   8.069
 2003WAT     H2 6252   4.973   2.885   8.138
 2004WAT      O 6253   6.305   3.620   3.256
 2004WAT     H1 6254   6.334   3.537   3.209
 2004WAT     H2 6255   6.383   3.681   3.268
 2005WAT      O 6256   7.089   3.169   4.408
 2005WAT     H1 6257   7.044   3.081   4.421
 2005WAT     H2 6258   7.154   3.185   4.482
 2006WAT      O 6259   4.346   3.675   1.257
 2006WAT     H1 6260   4.271   3.739   1.274
 2006WAT     H2 6261   4.362   3.670   1.158
 2007WAT      O 6262   3.638   6.516   1.241
 2007WAT     H1 6263   3.605   6.597   1.193
 2007WAT     H2 6264   3.728   6.490   1.207
 2008WAT      O 6265   8.154   6.019   7.303
 2008WAT     H1 6266   8.173   5.985   7.211
 2008WAT     H2 6267   8.070   6.073   7.301
 2009WAT      O 6268   7.749   1.654   0.150
 2009WAT     H1 6269   7.787   1.701   0.070
 2009WAT     H2 6270   7.652   1.677   0.160
 2010WAT      O 6271   8.907   9.136   2.562
 2010WAT     H1 6272   8.935   9.227   2.531
 2010WAT     H2 6273   8.823   9.144   2.617
 2011WAT      O 6274   6.220   8.574   6.204
 2011WAT     H1 6275   6.143   8.638   6.211
 2011WAT     H2 6276   6.186   8.486   6.171
 2012WAT      O 6277   1.597   9.428   5.811
 2012WAT     H1 6278   1.620   9.343   5.764
 2012WAT     H2 6279   1.651   9.503   5.772
 2013WAT      O 6280   3.385   7.394   3.890
 2013WAT     H1 6281   3.476   7.420   3.923
 2013WAT     H2 6282   3.326   7.475   3.891
 2014WAT      O 6283   1.076   5.299   0.206
 2014WAT     H1 6284   1.112   5.350   0.284
 2014WAT     H2 6285   0.989   5.339   0.177
 2015WAT      O 6286   6.503   1.145   0.619
 2015WAT     H1 6287   6.515   1.170   0.523
 2015WAT     H2 6288   6.544   1.056   0.636
 2016WAT      O 6289   7.230   0.305   8.942
 2016WAT     H1 6290   7.273   0.370   9.005
 2016WAT     H2 6291   7.132   0.300   8.960
 2017WAT      O 6292   3.275   7.617   1.696
 2017WAT     H1 6293   3.201   7.622   1.629
 2017WAT     H2 6294   3.237   7.606   1.788
 2018WAT      O 6295   3.696   4.766   8.944
 2018WAT     H1 6296   3.638   4.777   9.024
 2018WAT     H2 6297   3.768   4.701   8.964
 2019WAT      O 6298   5.400   6.464   7.144
 2019WAT     H1 6299   5.394   6.504   7.235
 2019WAT     H2 6300   5.477   6.506   7.095
 2020WAT      O 6301   2.688   5.726   0.346
 2020WAT     H1 6302   2.749   5.790   0.299
 2020WAT     H2 6303   2.667   5.762   0.437
 2021WAT      O 6304   0.279   4.900   2.213
 2021WAT     H1 6305   0.279   4.931   2.309
 2021WAT     H2 6306   0.253   4.804   2.209
 2022WAT      O 6307   2.726   6.612   0.421
 2022WAT     H1 6308   2.692   6.547   0.490
 2022WAT     H2 6309   2.781   6.683   0.466
 2023WAT      O 6310   5.267   5.002   0.580
 2023WAT     H1 6311   5.186   5.057   0.561
 2023WAT     H2 6312   5.345   5.061   0.601
 2024WAT      O 6313   4.775   5.712   7.374
 2024WAT     H1 6314   4.728   5.649   7.313
 2024WAT     H2 6315   4.874   5.697   7.369
 2025WAT      O 6316   4.754   0.705   1.989
 2025WAT     H1 6317   4.679   0.760   1.954
 2025WAT     H2 6318   4.730   0.608   1.984
 2026WAT      O 6319   5.020   6.131   8.783
 2026WAT     H1 6320   4.974   6.218   8.797
 2026WAT     H2 6321   4.953   6.058   8.775
 2027WAT      O 6322   9.210   7.960   9.879
 2027WAT     H1 6323   9.215   7.978   9.977
 2027WAT     H2 6324   9.301   7.938   9.844
 2028WAT      O 6325   3.734   0.916   8.500
 2028WAT     H1 6326   3.811   0.923   8.436
 2028WAT     H2 6327   3.703   1.008   8.524
 2029WAT      O 6328   0.996   3.154   5.312
 2029WAT     H1 6329   1.059   3.143   5.389
 2029WAT     H2 6330   1.047   3.145   5.226
 2030WAT      O 6331   3.797   6.578   5.707
 2030WAT     H1 6332   3.865   6.600   5.777
 2030WAT     H2 6333   3.785   6.657   5.646
 2031WAT      O 6334   9.415   5.863   3.894
 2031WAT     H1 6335   9.492   5.857   3.830
 2031WAT     H2 6336   9.437   5.812   3.977
 2032WAT      O 6337   6.120   7.453   9.046
 2032WAT     H1 6338   6.155   7.530   9.098
 2032WAT     H2 6339   6.092   7.380   9.109
 2033WAT      O 6340   2.093   2.604   5.226
 2033WAT     H1 6341   2.003   2.563   5.220
 2033WAT     H2 6342   2.163   2.535   5.208
 2034WAT      O 6343   7.348   9.228   8.454
 2034WAT     H1 6344   7.320   9.134   8.434
 2034WAT     H2 6345   7.444   9.239   8.430
 2035WAT      O 6346   8.574   2.190   9.433
 2035WAT     H1 6347   8.475   2.187   9.444
 2035WAT     H2 6348   8.598   2.255   9.361
 2036WAT      O 6349   0.570   2.640   2.370
 2036WAT     H1 6350   0.648   2.578   2.362
 2036WAT     H2 6351   0.593   2.715   2.432
 2037WAT      O 6352   5.270   3.095   3.428
 2037WAT     H1 6353   5.199   3.129   3.490
 2037WAT     H2 6354   5.252   3.130   3.335
 2038WAT      O 6355   5.530   6.836   9.642
 2038WAT     H1 6356   5.617   6.859   9.599
 2038WAT     H2 6357   5.462   6.816   9.571
 2039WAT      O 6358   1.931   4.622   6.699
 2039WAT     H1 6359   1.916   4.527   6.672
 2039WAT     H2 6360   1.934   4.629   6.798
 2040WAT      O 6361   3.519   0.005   0.019
 2040WAT     H1 6362   3.539   0.067   0.095
 2040WAT     H2 6363   3.435   0.034  -0.027
 2041WAT      O 6364   3.160   5.337   1.778
 2041WAT     H1 6365   3.199   5.408   1.720
 2041WAT     H2 6366   3.234   5.282   1.817
 2042WAT      O 6367   9.274   1.993   3.720
 2042WAT     H1 6368   9.177   1.968   3.720
 2042WAT     H2 6369   9.327   1.920   3.678
 2043WAT      O 6370   1.563   3.797   5.520
 2043WAT     H1 6371   1.478   3.820   5.566
 2043WAT     H2 6372   1.586   3.700   5.536
 2044WAT      O 6373   5.334   0.082   2.414
 2044WAT     H1 6374   5.396   0.155   2.386
 2044WAT     H2 6375   5.294   0.039   2.333
 2045WAT      O 6376   0.730   5.706   6.883
 2045WAT     H1 6377   0.710   5.801   6.908
 2045WAT     H2 6378   0.828   5.689   6.895
 2046WAT      O 6379   8.911   2.066   6.396
 2046WAT     H1 6380   8.977   2.039   6.325
 2046WAT     H2 6381   8.861   2.147   6.365
 2047WAT      O 6382   7.590   0.182   8.546
 2047WAT     H1 6383   7.567   0.245   8.472
 2047WAT     H2 6384   7.578   0.088   8.514
 2048WAT      O 6385   2.133   1.182   1.687
 2048WAT     H1 6386   2.184   1.260   1.724
 2048WAT     H2 6387   2.092   1.130   1.762
 2049WAT      O 6388   9.757   1.133   5.994
 2049WAT     H1 6389   9.801   1.123   5.905
 2049WAT     H2 6390   9.822   1.174   6.058
 2050WAT      O 6391   7.035   8.160   6.800
 2050WAT     H1 6392   7.097   8.220   6.850
 2050WAT     H2 6393   7.085   8.117   6.724
 2051WAT      O 6394   2.838   3.832   3.651
 2051WAT     H1 6395   2.772   3.844   3.725
 2051WAT     H2 6396   2.927   3.807   3.690
 2052WAT      O 6397   0.052   3.251   0.587
 2052WAT     H1 6398  -0.038   3.209   0.572
 2052WAT     H2 6399   0.112   3.186   0.634
 2053WAT      O 6400   2.306   9.182   6.347
 2053WAT     H1 6401   2.220   9.207   6.304
 2053WAT     H2 6402   2.376   9.168   6.277
 2054WAT      O 6403   4.772   6.331   6.440
 2054WAT     H1 6404   4.851   6.280   6.474
 2054WAT     H2 6405   4.689   6.279   6.458
 2055WAT      O 6406   1.173   3.445   4.395
 2055WAT     H1 6407   1.181   3.507   4.318
 2055WAT     H2 6408   1.157   3.497   4.479
 2056WAT      O 6409   4.585   8.377   4.644
 2056WAT     H1 6410   4.684   8.390   4.655
 2056WAT     H2 6411   4.549   8.447   4.582
 2057WAT      O 6412   9.479   5.381   6.288
 2057WAT     H1 6413   9.477   5.480   6.302
 2057WAT     H2 6414   9.388   5.343   6.306
 2058WAT      O 6415   3.281   8.954   4.333
 2058WAT     H1 6416   3.198   8.973   4.282
 2058WAT     H2 6417   3.353   8.923   4.271
 2059WAT      O 6418   9.025   4.159   3.729
 2059WAT     H1 6419   9.041   4.088   3.660
 2059WAT     H2 6420   9.109   4.175   3.781
 2060WAT      O 6421   7.704   2.641   0.385
 2060WAT     H1 6422   7.784   2.581   0.378
 2060WAT     H2 6423   7.719   2.707   0.458
 2061WAT      O 6424   5.300   2.661   1.083
 2061WAT     H1 6425   5.343   2.572   1.095
 2061WAT     H2 6426   5.285   2.703   1.173
 2062WAT      O 6427   8.371   7.570   1.890
 2062WAT     H1 6428   8.433   7.500   1.855
 2062WAT     H2 6429   8.344   7.631   1.816
 2063WAT      O 6430   9.141   3.917   2.990
 2063WAT     H1 6431   9.212   3.984   3.013
 2063WAT     H2 6432   9.182   3.826   2.983
 2064WAT      O 6433   5.655   2.128   1.702
 2064WAT     H1 6434   5.621   2.219   1.677
 2064WAT     H2 6435   5.604   2.058   1.651
 2065WAT      O 6436   9.061   6.662   2.599
 2065WAT     H1 6437   9.102   6.573   2.619
 2065WAT     H2 6438   9.104   6.732   2.656
 2066WAT      O 6439   3.174   7.812   3.788
 2066WAT     H1 6440   3.103   7.818   3.718
 2066WAT     H2 6441   3.263   7.795   3.744
 2067WAT      O 6442   7.563   8.122   1.993
 2067WAT     H1 6443   7.648   8.170   2.017
 2067WAT     H2 6444   7.545   8.051   2.061
 2068WAT      O 6445   0.093   1.938   6.449
 2068WAT     H1 6446   0.164   1.868   6.443
 2068WAT     H2 6447   0.076   1.976   6.358
 2069WAT      O 6448   7.345   1.925   2.812
 2069WAT     H1 6449   7.338   1.844   2.754
 2069WAT     H2 6450   7.290   1.998   2.773
 2070WAT      O 6451   7.946   1.162   4.118
 2070WAT     H1 6452   7.877   1.110   4.068
 2070WAT     H2 6453   7.961   1.250   4.073
 2071WAT      O 6454   7.930   4.854   3.003
 2071WAT     H1 6455   8.010   4.906   3.031
 2071WAT     H2 6456   7.860   4.916   2.969
 2072WAT      O 6457   1.204   3.142   5.486
 2072WAT     H1 6458   1.276   3.078   5.512
 2072WAT     H2 6459   1.183   3.202   5.563
 2073WAT      O 6460   7.083   6.617   2.928
 2073WAT     H1 6461   7.078   6.537   2.988
 2073WAT     H2 6462   6.991   6.654   2.914
 2074WAT      O 6463   4.842   6.364   8.264
 2074WAT     H1 6464   4.754   6.372   8.312
 2074WAT     H2 6465   4.911   6.328   8.327
 2075WAT      O 6466   3.342   4.156   4.748
 2075WAT     H1 6467   3.265   4.220   4.755
 2075WAT     H2 6468   3.388   4.170   4.660
 2076WAT      O 6469   7.055   9.077   8.509
 2076WAT     H1 6470   7.047   9.043   8.415
 2076WAT     H2 6471   7.004   9.163   8.517
 2077WAT      O 6472   0.324   5.968   1.246
 2077WAT     H1 6473   0.422   5.967   1.225
 2077WAT     H2 6474   0.293   6.063   1.254
 2078WAT      O 6475   7.519   5.376   6.270
 2078WAT     H1 6476   7.466   5.455   6.303
 2078WAT     H2 6477   7.582   5.406   6.199
 2079WAT      O 6478   8.506   7.368   9.541
 2079WAT     H1 6479   8.576   7.375   9.612
 2079WAT     H2 6480   8.543   7.321   9.461
 2080WAT      O 6481   8.992   3.145   1.776
 2080WAT     H1 6482   8.978   3.047   1.764
 2080WAT     H2 6483   9.028   3.184   1.691
 2081WAT      O 6484   4.868   1.349   8.207
 2081WAT     H1 6485   4.807   1.349   8.129
 2081WAT     H2 6486   4.838   1.417   8.274
 2082WAT      O 6487   2.973   2.030   2.377
 2082WAT     H1 6488   3.052   2.088   2.360
 2082WAT     H2 6489   3.003   1.940   2.410
 2083WAT      O 6490   0.794   8.083   7.268
 2083WAT     H1 6491   0.870   8.021   7.249
 2083WAT     H2 6492   0.769   8.133   7.185
 2084WAT      O 6493   7.610   6.439   5.081
 2084WAT     H1 6494   7.529   6.435   5.140
 2084WAT     H2 6495   7.645   6.533   5.077
 2085WAT      O 6496   3.482   2.406   0.028
 2085WAT     H1 6497   3.513   2.477   0.091
 2085WAT     H2 6498   3.554   2.337   0.018
 2086WAT      O 6499   8.130   8.115   4.482
 2086WAT     H1 6500   8.134   8.066   4.396
 2086WAT     H2 6501   8.209   8.090   4.539
 2087WAT      O 6502   4.061   5.326   1.526
 2087WAT     H1 6503   4.096   5.339   1.618
 2087WAT     H2 6504   3.995   5.250   1.525
 2088WAT      O 6505   5.603   7.466   6.033
 2088WAT     H1 6506   5.618   7.503   6.125
 2088WAT     H2 6507   5.687   7.425   5.999
 2089WAT      O 6508   8.354   3.495   7.426
 2089WAT     H1 6509   8.313   3.560   7.489
 2089WAT     H2 6510   8.453   3.511   7.420
 2090WAT      O 6511   1.093   8.779   2.886
 2090WAT     H1 6512   1.000   8.756   2.858
 2090WAT     H2 6513   1.126   8.857   2.834
 2091WAT      O 6514   5.894   3.875   1.644
 2091WAT     H1 6515   5.897   3.782   1.682
 2091WAT     H2 6516   5.870   3.869   1.547
 2092WAT      O 6517   3.757   8.330   6.320
 2092WAT     H1 6518   3.756   8.422   6.361
 2092WAT     H2 6519   3.681   8.276   6.357
 2093WAT      O 6520   2.203   6.673   0.535
 2093WAT     H1 6521   2.262   6.742   0.493
 2093WAT     H2 6522   2.115   6.714   0.557
 2094WAT      O 6523   6.260   7.976   4.663
 2094WAT     H1 6524   6.195   8.028   4.607
 2094WAT     H2 6525   6.234   7.880   4.664
 2095WAT      O 6526   2.978   1.006   1.355
 2095WAT     H1 6527   3.077   0.990   1.351
 2095WAT     H2 6528   2.960   1.094   1.398
 2096WAT      O 6529   4.083   1.503   3.277
 2096WAT     H1 6530   4.172   1.523   3.237
 2096WAT     H2 6531   4.031   1.444   3.214
 2097WAT      O 6532   7.112   2.972   0.415
 2097WAT     H1 6533   7.131   3.059   0.461
 2097WAT     H2 6534   7.119   2.985   0.316
 2098WAT      O 6535   7.782   7.087   9.424
 2098WAT     H1 6536   7.835   7.093   9.508
 2098WAT     H2 6537   7.716   7.163   9.421
 2099WAT      O 6538   0.787   3.376   8.075
 2099WAT     H1 6539   0.797   3.283   8.110
 2099WAT     H2 6540   0.695   3.388   8.039
 2100WAT      O 6541   8.571   0.427   0.289
 2100WAT     H1 6542   8.522   0.416   0.376
 2100WAT     H2 6543   8.606   0.338   0.260
 2101WAT      O 6544   0.247   3.337   5.469
 2101WAT     H1 6545   0.218   3.255   5.518
 2101WAT     H2 6546   0.341   3.324   5.437
 2102WAT      O 6547   5.707   2.570   3.611
 2102WAT     H1 6548   5.675   2.566   3.706
 2102WAT     H2 6549   5.793   2.620   3.607
 2103WAT      O 6550   3.636   1.283   4.318
 2103WAT     H1 6551   3.628   1.276   4.218
 2103WAT     H2 6552   3.706   1.351   4.340
 2104WAT      O 6553   2.587   4.435   2.356
 2104WAT     H1 6554   2.638   4.521   2.343
 2104WAT     H2 6555   2.644   4.358   2.329
 2105WAT      O 6556   5.052   1.730   8.717
 2105WAT     H1 6557   5.045   1.787   8.800
 2105WAT     H2 6558   5.135   1.675   8.722
 2106WAT      O 6559   1.282   4.182   5.178
 2106WAT     H1 6560   1.198   4.228   5.208
 2106WAT     H2 6561   1.360   4.221   5.226
 2107WAT      O 6562   3.713   5.594   1.726
 2107WAT     H1 6563   3.775   5.611   1.803
 2107WAT     H2 6564   3.726   5.500   1.694
 2108WAT      O 6565   4.482   1.781   4.127
 2108WAT     H1 6566   4.476   1.733   4.039
 2108WAT     H2 6567   4.456   1.876   4.115
 2109WAT      O 6568   2.558   0.878   6.520
 2109WAT     H1 6569   2.582   0.855   6.614
 2109WAT     H2 6570   2.490   0.952   6.520
 2110WAT      O 6571   1.858   2.647   5.812
 2110WAT     H1 6572   1.902   2.598   5.887
 2110WAT     H2 6573   1.891   2.741   5.810
 2111WAT      O 6574   9.378   6.787   7.641
 2111WAT     H1 6575   9.340   6.695   7.648
 2111WAT     H2 6576   9.312   6.846   7.594
 2112WAT      O 6577   0.691   4.675   5.436
 2112WAT     H1 6578   0.665   4.767   5.407
 2112WAT     H2 6579   0.741   4.681   5.523
 2113WAT      O 6580   0.796   3.392   2.177
 2113WAT     H1 6581   0.810   3.382   2.276
 2113WAT     H2 6582   0.878   3.429   2.134
 2114WAT      O 6583   8.385   3.545   7.083
 2114WAT     H1 6584   8.328   3.627   7.084
 2114WAT     H2 6585   8.471   3.564   7.132
 2115WAT      O 6586   8.820   6.997   7.858
 2115WAT     H1 6587   8.789   6.998   7.953
 2115WAT     H2 6588   8.848   7.089   7.830
 2116WAT      O 6589   6.077   7.697   0.027
 2116WAT     H1 6590   5.992   7.717   0.075
 2116WAT     H2 6591   6.077   7.602  -0.003
 2117WAT      O 6592   0.123   3.115   5.611
 2117WAT     H1 6593   0.133   3.066   5.698
 2117WAT     H2 6594   0.028   3.111   5.581
 2118WAT      O 6595   5.025   1.600   2.698
 2118WAT     H1 6596   5.058   1.509   2.678
 2118WAT     H2 6597   4.925   1.600   2.699
 2119WAT      O 6598   0.348   3.338   7.623
 2119WAT     H1 6599   0.315   3.352   7.716
 2119WAT     H2 6600   0.338   3.241   7.599
 2120WAT      O 6601   3.861   8.136   9.395
 2120WAT     H1 6602   3.960   8.122   9.396
 2120WAT     H2 6603   3.837   8.195   9.317
 2121WAT      O 6604   3.383   5.871   0.618
 2121WAT     H1 6605   3.338   5.895   0.532
 2121WAT     H2 6606   3.442   5.791   0.603
 2122WAT      O 6607   9.880   9.811   4.283
 2122WAT     H1 6608   9.954   9.769   4.335
 2122WAT     H2 6609   9.897   9.799   4.185
 2123WAT      O 6610   6.254   3.314   0.363
 2123WAT     H1 6611   6.178   3.370   0.330
 2123WAT     H2 6612   6.269   3.238   0.300
 2124WAT      O 6613   8.608   8.261   3.777
 2124WAT     H1 6614   8.553   8.191   3.731
 2124WAT     H2 6615   8.685   8.217   3.823
 2125WAT      O 6616   5.994   6.993   0.638
 2125WAT     H1 6617   6.052   7.067   0.604
 2125WAT     H2 6618   6.027   6.905   0.602
 2126WAT      O 6619   0.391   2.254   6.331
 2126WAT     H1 6620   0.474   2.308   6.315
 2126WAT     H2 6621   0.404   2.163   6.292
 2127WAT      O 6622   5.847   4.027   9.860
 2127WAT     H1 6623   5.756   4.052   9.893
 2127WAT     H2 6624   5.902   3.992   9.936
 2128WAT      O 6625   5.678   6.936   2.517
 2128WAT     H1 6626   5.617   6.934   2.437
 2128WAT     H2 6627   5.624   6.940   2.601
 2129WAT      O 6628   8.029   2.609   1.280
 2129WAT     H1 6629   8.019   2.690   1.222
 2129WAT     H2 6630   8.123   2.603   1.314
 2130WAT      O 6631   2.767   3.264   6.128
 2130WAT     H1 6632   2.705   3.257   6.206
 2130WAT     H2 6633   2.854   3.220   6.150
 2131WAT      O 6634   9.649   4.093   9.166
 2131WAT     H1 6635   9.707   4.015   9.142
 2131WAT     H2 6636   9.571   4.097   9.103
 2132WAT      O 6637   4.139   2.645   5.014
 2132WAT     H1 6638   4.063   2.665   5.075
 2132WAT     H2 6639   4.225   2.668   5.058
 2133WAT      O 6640   3.857   2.286   3.749
 2133WAT     H1 6641   3.794   2.226   3.700
 2133WAT     H2 6642   3.817   2.310   3.838
 2134WAT      O 6643   7.076   4.537   2.193
 2134WAT     H1 6644   7.011   4.498   2.128
 2134WAT     H2 6645   7.027   4.591   2.261
 2135WAT      O 6646   3.440   5.442   9.249
 2135WAT     H1 6647   3.456   5.539   9.235
 2135WAT     H2 6648   3.423   5.398   9.160
 2136WAT      O 6649   0.279   1.665   0.181
 2136WAT     H1 6650   0.368   1.696   0.214
 2136WAT     H2 6651   0.220   1.745   0.167
 2137WAT      O 6652   0.722   4.967   3.180
 2137WAT     H1 6653   0.724   5.066   3.165
 2137WAT     H2 6654   0.797   4.942   3.241
 2138WAT      O 6655   2.552   0.906   4.290
 2138WAT     H1 6656   2.500   0.825   4.263
 2138WAT     H2 6657   2.512   0.945   4.373
 2139WAT      O 6658   6.711   4.495   5.192
 2139WAT     H1 6659   6.659   4.422   5.149
 2139WAT     H2 6660   6.668   4.519   5.280
 2140WAT      O 6661   1.696   2.173   7.060
 2140WAT     H1 6662   1.601   2.162   7.088
 2140WAT     H2 6663   1.707   2.142   6.966
 2141WAT      O 6664   5.768   6.892   9.516
 2141WAT     H1 6665   5.840   6.949   9.474
 2141WAT     H2 6666   5.734   6.827   9.449
 2142WAT      O 6667   7.771   7.636   3.035
 2142WAT     H1 6668   7.780   7.542   3.065
 2142WAT     H2 6669   7.860   7.672   3.007
 2143WAT      O 6670   9.320   0.229   0.879
 2143WAT     H1 6671   9.340   0.326   0.865
 2143WAT     H2 6672   9.365   0.175   0.808
 2144WAT      O 6673   5.814   0.577   3.473
 2144WAT     H1 6674   5.828   0.634   3.554
 2144WAT     H2 6675   5.850   0.624   3.393
 2145WAT      O 6676   1.928   6.350   3.707
 2145WAT     H1 6677   2.010   6.393   3.670
 2145WAT     H2 6678   1.899   6.398   3.790
 2146WAT      O 6679   6.961   1.414   1.905
 2146WAT     H1 6680   7.010   1.330   1.925
 2146WAT     H2 6681   6.907   1.441   1.985
 2147WAT      O 6682   4.490   8.308   4.168
 2147WAT     H1 6683   4.490   8.212   4.196
 2147WAT     H2 6684   4.518   8.366   4.245
 2148WAT      O 6685   6.192   9.158   2.043
 2148WAT     H1 6686   6.192   9.097   2.122
 2148WAT     H2 6687   6.207   9.252   2.072
 2149WAT      O 6688   9.145   6.609   7.291
 2149WAT     H1 6689   9.154   6.542   7.217
 2149WAT     H2 6690   9.170   6.700   7.256
 2150WAT      O 6691   9.247   0.145   0.326
 2150WAT     H1 6692   9.156   0.105   0.339
 2150WAT     H2 6693   9.301   0.133   0.408
 2151WAT      O 6694   9.666   3.359   0.268
 2151WAT     H1 6695   9.631   3.293   0.201
 2151WAT     H2 6696   9.623   3.448   0.254
 2152WAT      O 6697   8.996   7.287   9.804
 2152WAT     H1 6698   9.015   7.298   9.902
 2152WAT     H2 6699   8.946   7.201   9.790
 2153WAT      O 6700   1.040   9.422   2.150
 2153WAT     H1 6701   1.053   9.438   2.248
 2153WAT     H2 6702   1.074   9.332   2.126
 2154WAT      O 6703   6.529   7.751   2.064
 2154WAT     H1 6704   6.569   7.840   2.045
 2154WAT     H2 6705   6.490   7.751   2.156
 2155WAT      O 6706   9.101   6.406   0.081
 2155WAT     H1 6707   9.127   6.314   0.110
 2155WAT     H2 6708   9.111   6.470   0.158
 2156WAT      O 6709   1.905   1.762   1.557
 2156WAT     H1 6710   1.859   1.802   1.636
 2156WAT     H2 6711   1.876   1.811   1.474
 2157WAT      O 6712   8.478   0.318   3.709
 2157WAT     H1 6713   8.560   0.261   3.699
 2157WAT     H2 6714   8.429   0.291   3.792
 2158WAT      O 6715   1.560   0.072   7.861
 2158WAT     H1 6716   1.474   0.111   7.894
 2158WAT     H2 6717   1.603   0.136   7.797
 2159WAT      O 6718   3.257   8.643   9.666
 2159WAT     H1 6719   3.210   8.674   9.749
 2159WAT     H2 6720   3.327   8.710   9.641
 2160WAT      O 6721   1.764   5.040   9.215
 2160WAT     H1 6722   1.825   5.082   9.281
 2160WAT     H2 6723   1.785   5.073   9.123
 2161WAT      O 6724   9.404   4.922   7.684
 2161WAT     H1 6725   9.490   4.937   7.732
 2161WAT     H2 6726   9.348   5.005   7.689
 2162WAT      O 6727   8.399   9.308   0.830
 2162WAT     H1 6728   8.433   9.227   0.878
 2162WAT     H2 6729   8.322   9.348   0.881
 2163WAT      O 6730   5.376   0.347   4.844
 2163WAT     H1 6731   5.471   0.328   4.821
 2163WAT     H2 6732   5.351   0.299   4.928
 2164WAT      O 6733   7.351   5.683   4.914
 2164WAT     H1 6734   7.292   5.763   4.902
 2164WAT     H2 6735   7.298   5.600   4.900
 2165WAT      O 6736   0.881   7.386   7.513
 2165WAT     H1 6737   0.852   7.445   7.588
 2165WAT     H2 6738   0.848   7.423   7.426
 2166WAT      O 6739   9.071   0.063   2.365
 2166WAT     H1 6740   9.167   0.084   2.349
 2166WAT     H2 6741   9.040   0.109   2.449
 2167WAT      O 6742   5.676   9.534   0.070
 2167WAT     H1 6743   5.634   9.461   0.017
 2167WAT     H2 6744   5.632   9.621   0.049
 2168WAT      O 6745   9.104   6.892   7.247
 2168WAT     H1 6746   9.184   6.945   7.216
 2168WAT     H2 6747   9.049   6.948   7.308
 2169WAT      O 6748   0.467   3.672   1.804
 2169WAT     H1 6749   0.400   3.615   1.851
 2169WAT     H2 6750   0.424   3.756   1.772
 2170WAT      O 6751   7.201   0.472   1.784
 2170WAT     H1 6752   7.165   0.555   1.826
 2170WAT     H2 6753   7.171   0.393   1.837
 2171WAT      O 6754   9.174   7.654   8.542
 2171WAT     H1 6755   9.162   7.742   8.495
 2171WAT     H2 6756   9.233   7.667   8.622
 2172WAT      O 6757   0.148   9.551   4.001
 2172WAT     H1 6758   0.048   9.553   4.005
 2172WAT     H2 6759   0.179   9.463   3.965
 2173WAT      O 6760   8.845   9.585   0.259
 2173WAT     H1 6761   8.886   9.512   0.204
 2173WAT     H2 6762   8.819   9.549   0.348
 2174WAT      O 6763   1.740   6.249   2.754
 2174WAT     H1 6764   1.701   6.341   2.749
 2174WAT     H2 6765   1.693   6.196   2.825
 2175WAT      O 6766   2.882   1.871   9.106
 2175WAT     H1 6767   2.854   1.865   9.202
 2175WAT     H2 6768   2.981   1.859   9.099
 2176WAT      O 6769   3.178   1.279   5.507
 2176WAT     H1 6770   3.200   1.376   5.515
 2176WAT     H2 6771   3.194   1.233   5.594
 2177WAT      O 6772   9.030   8.760   2.202
 2177WAT     H1 6773   8.986   8.756   2.113
 2177WAT     H2 6774   9.029   8.669   2.244
 2178WAT      O 6775   9.632   2.085   9.433
 2178WAT     H1 6776   9.587   1.996   9.422
 2178WAT     H2 6777   9.688   2.104   9.351
 2179WAT      O 6778   6.510   2.626   7.123
 2179WAT     H1 6779   6.444   2.603   7.051
 2179WAT     H2 6780   6.602   2.603   7.091
 2180WAT      O 6781   3.413   8.701   3.957
 2180WAT     H1 6782   3.356   8.636   4.007
 2180WAT     H2 6783   3.499   8.656   3.931
 2181WAT      O 6784   3.625   5.534   2.584
 2181WAT     H1 6785   3.574   5.454   2.553
 2181WAT     H2 6786   3.573   5.583   2.654
 2182WAT      O 6787   7.566   2.858   1.182
 2182WAT     H1 6788   7.617   2.932   1.138
 2182WAT     H2 6789   7.492   2.827   1.122
 2183WAT      O 6790   8.559   1.492   3.342
 2183WAT     H1 6791   8.529   1.458   3.431
 2183WAT     H2 6792   8.632   1.433   3.307
 2184WAT      O 6793   6.760   3.329   1.297
 2184WAT     H1 6794   6.697   3.268   1.346
 2184WAT     H2 6795   6.764   3.303   1.201
 2185WAT      O 6796   4.622   3.423   3.314
 2185WAT     H1 6797   4.660   3.506   3.274
 2185WAT     H2 6798   4.601   3.357   3.242
 2186WAT      O 6799   2.698   8.556   9.196
 2186WAT     H1 6800   2.711   8.522   9.290
 2186WAT     H2 6801   2.713   8.655   9.194
 2187WAT      O 6802   6.951   9.117   6.188
 2187WAT     H1 6803   7.049   9.135   6.200
 2187WAT     H2 6804   6.909   9.195   6.141
 2188WAT      O 6805   8.517   7.697   3.139
 2188WAT     H1 6806   8.500   7.607   3.099
 2188WAT     H2 6807   8.611   7.725   3.117
 2189WAT      O 6808   0.973   0.261   2.244
 2189WAT     H1 6809   0.946   0.250   2.148
 2189WAT     H2 6810   0.917   0.201   2.301
 2190WAT      O 6811   6.709   8.099   5.066
 2190WAT     H1 6812   6.728   8.175   5.004
 2190WAT     H2 6813   6.690   8.134   5.157
 2191WAT      O 6814   8.306   2.685   1.029
 2191WAT     H1 6815   8.229   2.748   1.020
 2191WAT     H2 6816   8.355   2.704   1.114
 2192WAT      O 6817   1.070   3.939   8.623
 2192WAT     H1 6818   1.073   3.981   8.532
 2192WAT     H2 6819   1.162   3.912   8.650
 2193WAT      O 6820   7.055   7.163   9.790
 2193WAT     H1 6821   6.977   7.103   9.773
 2193WAT     H2 6822   7.075   7.165   9.888
 2194WAT      O 6823   5.539   9.355   3.849
 2194WAT     H1 6824   5.459   9.362   3.790
 2194WAT     H2 6825   5.568   9.259   3.855
 2195WAT      O 6826   6.472   7.546   5.346
 2195WAT     H1 6827   6.546   7.610   5.369
 2195WAT     H2 6828   6.407   7.542   5.421
 2196WAT      O 6829   1.044   7.993   1.448
 2196WAT     H1 6830   0.989   7.924   1.400
 2196WAT     H2 6831   0.991   8.031   1.524
 2197WAT      O 6832   4.914   3.490   6.230
 2197WAT     H1 6833   4.931   3.435   6.148
 2197WAT     H2 6834   4.966   3.575   6.224
 2198WAT      O 6835   8.532   5.127   2.798
 2198WAT     H1 6836   8.621   5.109   2.842
 2198WAT     H2 6837   8.474   5.177   2.861
 2199WAT      O 6838   1.139   8.321   6.257
 2199WAT     H1 6839   1.178   8.341   6.168
 2199WAT     H2 6840   1.074   8.245   6.249
 2200WAT      O 6841   6.350   9.243   4.476
 2200WAT     H1 6842   6.419   9.204   4.415
 2200WAT     H2 6843   6.342   9.185   4.558
 2201WAT      O 6844   8.062   2.531   1.804
 2201WAT     H1 6845   8.043   2.626   1.777
 2201WAT     H2 6846   8.106   2.483   1.728
 2202WAT      O 6847   0.316   7.400   8.616
 2202WAT     H1 6848   0.382   7.330   8.643
 2202WAT     H2 6849   0.240   7.358   8.568
 2203WAT      O 6850   1.697   8.697   9.298
 2203WAT     H1 6851   1.713   8.737   9.208
 2203WAT     H2 6852   1.738   8.605   9.302
 2204WAT      O 6853   1.485   0.989   8.460
 2204WAT     H1 6854   1.508   0.937   8.378
 2204WAT     H2 6855   1.513   0.938   8.541
 2205WAT      O 6856   2.529   1.144   3.705
 2205WAT     H1 6857   2.562   1.098   3.623
 2205WAT     H2 6858   2.603   1.150   3.772
 2206WAT      O 6859   9.153   9.243   9.644
 2206WAT     H1 6860   9.226   9.287   9.591
 2206WAT     H2 6861   9.113   9.169   9.590
 2207WAT      O 6862   2.990   9.222   3.185
 2207WAT     H1 6863   3.009   9.287   3.259
 2207WAT     H2 6864   2.914   9.256   3.129
 2208WAT      O 6865   8.754   1.809   4.304
 2208WAT     H1 6866   8.841   1.785   4.347
 2208WAT     H2 6867   8.762   1.898   4.258
 2209WAT      O 6868   4.236   4.794   5.893
 2209WAT     H1 6869   4.158   4.839   5.850
 2209WAT     H2 6870   4.320   4.843   5.871
 2210WAT      O 6871   1.004   1.605   1.985
 2210WAT     H1 6872   0.972   1.676   2.048
 2210WAT     H2 6873   0.925   1.558   1.946
 2211WAT      O 6874   2.786   6.384   0.283
 2211WAT     H1 6875   2.864   6.333   0.320
 2211WAT     H2 6876   2.776   6.470   0.332
 2212WAT      O 6877   2.368   2.953   9.167
 2212WAT     H1 6878   2.275   2.916   9.161
 2212WAT     H2 6879   2.363   3.050   9.191
 2213WAT      O 6880   1.399   6.125   1.399
 2213WAT     H1 6881   1.411   6.139   1.497
 2213WAT     H2 6882   1.473   6.068   1.364
 2214WAT      O 6883   5.683   0.966   1.374
 2214WAT     H1 6884   5.630   0.882   1.381
 2214WAT     H2 6885   5.662   1.011   1.287
 2215WAT      O 6886   4.030   1.501   2.868
 2215WAT     H1 6887   4.054   1.455   2.783
 2215WAT     H2 6888   4.070   1.593   2.869
 2216WAT      O 6889   8.147   2.470   7.267
 2216WAT     H1 6890   8.107   2.382   7.295
 2216WAT     H2 6891   8.149   2.532   7.345
 2217WAT      O 6892   2.079   7.906   6.544
 2217WAT     H1 6893   2.147   7.898   6.618
 2217WAT     H2 6894   2.093   7.992   6.495
 2218WAT      O 6895   0.542   0.490   7.060
 2218WAT     H1 6896   0.596   0.574   7.048
 2218WAT     H2 6897   0.476   0.483   6.985
 2219WAT      O 6898   9.329   8.950   6.748
 2219WAT     H1 6899   9.328   8.918   6.843
 2219WAT     H2 6900   9.292   9.043   6.744
 2220WAT      O 6901   6.985   4.923   7.709
 2220WAT     H1 6902   6.976   4.989   7.634
 2220WAT     H2 6903   6.911   4.938   7.774
 2221WAT      O 6904   7.170   9.088   2.106
 2221WAT     H1 6905   7.220   9.008   2.073
 2221WAT     H2 6906   7.183   9.164   2.042
 2222WAT      O 6907   9.823   5.152   0.177
 2222WAT     H1 6908   9.833   5.079   0.245
 2222WAT     H2 6909   9.900   5.150   0.114
 2223WAT      O 6910   7.888   4.998   3.664
 2223WAT     H1 6911   7.789   5.016   3.670
 2223WAT     H2 6912   7.927   5.048   3.588
 2224WAT      O 6913   4.157   0.893   2.861
 2224WAT     H1 6914   4.164   0.807   2.912
 2224WAT     H2 6915   4.060   0.916   2.849
 2225WAT      O 6916   2.219   9.422   9.439
 2225WAT     H1 6917   2.236   9.324   9.432
 2225WAT     H2 6918   2.150   9.449   9.373
 2226WAT      O 6919   5.063   6.166   5.450
 2226WAT     H1 6920   5.133   6.229   5.483
 2226WAT     H2 6921   5.098   6.073   5.451
 2227WAT      O 6922   0.105   2.088   0.721
 2227WAT     H1 6923   0.173   2.015   0.714
 2227WAT     H2 6924   0.014   2.049   0.734
 2228WAT      O 6925   7.570   4.056   4.429
 2228WAT     H1 6926   7.498   4.057   4.499
 2228WAT     H2 6927   7.650   4.106   4.461
 2229WAT      O 6928   1.912   9.436   1.104
 2229WAT     H1 6929   1.849   9.366   1.068
 2229WAT     H2 6930   1.915   9.430   1.204
 2230WAT      O 6931   2.857   5.367   0.193
 2230WAT     H1 6932   2.804   5.350   0.276
 2230WAT     H2 6933   2.889   5.280   0.155
 2231WAT      O 6934   4.348   4.444   1.533
 2231WAT     H1 6935   4.260   4.405   1.562
 2231WAT     H2 6936   4.417   4.371   1.529
 2232WAT      O 6937   4.135   8.179   0.286
 2232WAT     H1 6938   4.099   8.215   0.372
 2232WAT     H2 6939   4.221   8.130   0.303
 2233WAT      O 6940   8.460   2.505   9.035
 2233WAT     H1 6941   8.536   2.484   8.974
 2233WAT     H2 6942   8.382   2.538   8.982
 2234WAT      O 6943   5.740   1.506   8.649
 2234WAT     H1 6944   5.805   1.522   8.724
 2234WAT     H2 6945   5.777   1.545   8.565
 2235WAT      O 6946   3.306   0.408   0.952
 2235WAT     H1 6947   3.257   0.377   0.870
 2235WAT     H2 6948   3.277   0.355   1.031
 2236WAT      O 6949   1.749   7.060   4.674
 2236WAT     H1 6950   1.741   7.153   4.708
 2236WAT     H2 6951   1.819   7.056   4.602
 2237WAT      O 6952   7.104   0.646   3.051
 2237WAT     H1 6953   7.122   0.660   2.954
 2237WAT     H2 6954   7.180   0.595   3.092
 2238WAT      O 6955   7.782   9.804   1.350
 2238WAT     H1 6956   7.695   9.845   1.379
 2238WAT     H2 6957   7.792   9.814   1.251
 2239WAT      O 6958   4.210   3.709   0.139
 2239WAT     H1 6959   4.273   3.773   0.095
 2239WAT     H2 6960   4.261   3.651   0.203
 2240WAT      O 6961   5.683   8.829   5.853
 2240WAT     H1 6962   5.608   8.851   5.790
 2240WAT     H2 6963   5.670   8.878   5.939
 2241WAT      O 6964   4.335   8.523   1.582
 2241WAT     H1 6965   4.378   8.597   1.634
 2241WAT     H2 6966   4.406   8.465   1.541
 2242WAT      O 6967   6.937   6.175   7.832
 2242WAT     H1 6968   7.006   6.181   7.760
 2242WAT     H2 6969   6.971   6.119   7.907
 2243WAT      O 6970   0.642   9.456   2.049
 2243WAT     H1 6971   0.618   9.390   2.120
 2243WAT     H2 6972   0.601   9.428   1.963
 2244WAT      O 6973   4.998   4.540   8.825
 2244WAT     H1 6974   4.985   4.636   8.800
 2244WAT     H2 6975   5.071   4.533   8.892
 2245WAT      O 6976   3.746   3.833   0.870
 2245WAT     H1 6977   3.807   3.831   0.950
 2245WAT     H2 6978   3.777   3.766   0.803
 2246WAT      O 6979   2.815   5.325   2.208
 2246WAT     H1 6980   2.783   5.247   2.155
 2246WAT     H2 6981   2.903   5.356   2.172
 2247WAT      O 6982   9.323   1.362   4.717
 2247WAT     H1 6983   9.333   1.452   4.760
 2247WAT     H2 6984   9.413   1.323   4.699
 2248WAT      O 6985   3.644   3.243   3.008
 2248WAT     H1 6986   3.702   3.210   3.083
 2248WAT     H2 6987   3.674   3.202   2.922
 2249WAT      O 6988   0.240   8.786   2.995
 2249WAT     H1 6989   0.323   8.774   2.940
 2249WAT     H2 6990   0.181   8.854   2.952
 2250WAT      O 6991   9.148   7.339   4.349
 2250WAT     H1 6992   9.101   7.342   4.261
 2250WAT     H2 6993   9.247   7.332   4.333
 2251WAT      O 6994   6.067   2.220   9.351
 2251WAT     H1 6995   6.146   2.163   9.371
 2251WAT     H2 6996   6.042   2.211   9.254
 2252WAT      O 6997   8.839   6.347   2.416
 2252WAT     H1 6998   8.911   6.412   2.393
 2252WAT     H2 6999   8.875   6.278   2.479
 2253WAT      O 7000   0.145   3.353   9.877
 2253WAT     H1 7001   0.096   3.354   9.964
 2253WAT     H2 7002   0.083   3.378   9.803
 2254WAT      O 7003   6.877   1.208   5.804
 2254WAT     H1 7004   6.945   1.136   5.790
 2254WAT     H2 7005   6.803   1.199   5.738
 2255WAT      O 7006   3.467   0.470   5.338
 2255WAT     H1 7007   3.520   0.385   5.335
 2255WAT     H2 7008   3.529   0.548   5.340
 2256WAT      O 7009   7.631   5.953   1.258
 2256WAT     H1 7010   7.581   5.923   1.176
 2256WAT     H2 7011   7.648   6.051   1.252
 2257WAT      O 7012   5.747   4.534   8.295
 2257WAT     H1 7013   5.679   4.537   8.368
 2257WAT     H2 7014   5.752   4.442   8.257
 2258WAT      O 7015   7.708   2.647   8.939
 2258WAT     H1 7016   7.763   2.566   8.918
 2258WAT     H2 7017   7.695   2.654   9.038
 2259WAT      O 7018   9.311   0.348   9.059
 2259WAT     H1 7019   9.340   0.338   9.154
 2259WAT     H2 7020   9.225   0.400   9.056
 2260WAT      O 7021   4.733   7.494   6.658
 2260WAT     H1 7022   4.654   7.555   6.662
 2260WAT     H2 7023   4.768   7.479   6.751
 2261WAT      O 7024   9.188   2.423   1.741
 2261WAT     H1 7025   9.180   2.517   1.708
 2261WAT     H2 7026   9.195   2.361   1.664
 2262WAT      O 7027   8.320   5.076   3.754
 2262WAT     H1 7028   8.361   4.985   3.747
 2262WAT     H2 7029   8.231   5.070   3.798
 2263WAT      O 7030   5.268   7.370   0.833
 2263WAT     H1 7031   5.220   7.433   0.772
 2263WAT     H2 7032   5.276   7.411   0.924
 2264WAT      O 7033   4.646   5.801   5.691
 2264WAT     H1 7034   4.603   5.724   5.739
 2264WAT     H2 7035   4.660   5.777   5.595
 2265WAT      O 7036   5.712   6.830   5.674
 2265WAT     H1 7037   5.794   6.777   5.693
 2265WAT     H2 7038   5.720   6.872   5.584
 2266WAT      O 7039   9.607   7.644   0.215
 2266WAT     H1 7040   9.576   7.564   0.163
 2266WAT     H2 7041   9.546   7.659   0.293
 2267WAT      O 7042   3.311   2.342   9.724
 2267WAT     H1 7043   3.380   2.374   9.789
 2267WAT     H2 7044   3.242   2.413   9.711
 2268WAT      O 7045   8.905   0.042   1.055
 2268WAT     H1 7046   8.870   0.109   0.990
 2268WAT     H2 7047   8.876  -0.050   1.027
 2269WAT      O 7048   8.877   3.760   2.383
 2269WAT     H1 7049   8.845   3.855   2.383
 2269WAT     H2 7050   8.923   3.740   2.470
 2270WAT      O 7051   5.801   1.776   7.011
 2270WAT     H1 7052   5.787   1.677   7.023
 2270WAT     H2 7053   5.755   1.805   6.927
 2271WAT      O 7054   3.194   5.157   4.724
 2271WAT     H1 7055   3.266   5.176   4.791
 2271WAT     H2 7056   3.127   5.232   4.725
 2272WAT      O 7057   6.712   8.244   1.139
 2272WAT     H1 7058   6.675   8.332   1.110
 2272WAT     H2 7059   6.788   8.218   1.078
 2273WAT      O 7060   9.090   0.173   6.298
 2273WAT     H1 7061   9.072   0.261   6.256
 2273WAT     H2 7062   9.094   0.102   6.228
 2274WAT      O 7063   2.823   1.763   6.667
 2274WAT     H1 7064   2.808   1.855   6.704
 2274WAT     H2 7065   2.856   1.770   6.573
 2275WAT      O 7066   6.446   8.700   0.040
 2275WAT     H1 7067   6.536   8.656   0.043
 2275WAT     H2 7068   6.381   8.645   0.092
 2276WAT      O 7069   1.671   2.983   7.802
 2276WAT     H1 7070   1.579   2.963   7.767
 2276WAT     H2 7071   1.722   2.898   7.813
 2277WAT      O 7072   1.040   0.084   0.408
 2277WAT     H1 7073   1.104   0.014   0.439
 2277WAT     H2 7074   1.013   0.142   0.486
 2278WAT      O 7075   8.593   3.306   6.016
 2278WAT     H1 7076   8.600   3.380   6.084
 2278WAT     H2 7077   8.529   3.237   6.049
 2279WAT      O 7078   7.334   4.106   3.868
 2279WAT     H1 7079   7.319   4.205   3.859
 2279WAT     H2 7080   7.254   4.057   3.834
 2280WAT      O 7081   6.613   7.692   2.966
 2280WAT     H1 7082   6.610   7.775   2.910
 2280WAT     H2 7083   6.526   7.682   3.015
 2281WAT      O 7084   0.695   3.073   4.747
 2281WAT     H1 7085   0.718   2.980   4.775
 2281WAT     H2 7086   0.777   3.130   4.749
 2282WAT      O 7087   5.540   1.984   4.246
 2282WAT     H1 7088   5.560   2.024   4.157
 2282WAT     H2 7089   5.441   1.984   4.261
 2283WAT      O 7090   2.457   0.350   1.784
 2283WAT     H1 7091   2.509   0.373   1.701
 2283WAT     H2 7092   2.492   0.404   1.860
 2284WAT      O 7093   6.783   4.043   1.152
 2284WAT     H1 7094   6.837   4.010   1.229
 2284WAT     H2 7095   6.695   4.076   1.184
 2285WAT      O 7096   5.257   1.323   4.842
 2285WAT     H1 7097   5.172   1.274   4.825
 2285WAT     H2 7098   5.261   1.349   4.938
 2286WAT      O 7099   1.349   0.211   1.661
 2286WAT     H1 7100   1.318   0.225   1.755
 2286WAT     H2 7101   1.269   0.201   1.602
 2287WAT      O 7102   0.050   4.526   6.026
 2287WAT     H1 7103   0.129   4.512   5.968
 2287WAT     H2 7104   0.076   4.579   6.107
 2288WAT      O 7105   4.453   0.047   1.998
 2288WAT     H1 7106   4.472  -0.052   2.000
 2288WAT     H2 7107   4.415   0.072   1.909
 2289WAT      O 7108   4.629   4.312   3.956
 2289WAT     H1 7109   4.653   4.324   4.052
 2289WAT     H2 7110   4.529   4.313   3.946
 2290WAT      O 7111   0.354   3.597   1.255
 2290WAT     H1 7112   0.397   3.519   1.209
 2290WAT     H2 7113   0.410   3.623   1.334
 2291WAT      O 7114   5.213   8.133   2.617
 2291WAT     H1 7115   5.213   8.142   2.517
 2291WAT     H2 7116   5.124   8.101   2.647
 2292WAT      O 7117   2.991   3.994   8.746
 2292WAT     H1 7118   2.949   4.084   8.734
 2292WAT     H2 7119   2.977   3.940   8.663
 2293WAT      O 7120   3.817   1.780   5.124
 2293WAT     H1 7121   3.821   1.684   5.149
 2293WAT     H2 7122   3.896   1.828   5.163
 2294WAT      O 7123   4.259   6.159   2.641
 2294WAT     H1 7124   4.250   6.126   2.735
 2294WAT     H2 7125   4.223   6.252   2.634
 2295WAT      O 7126   3.304   7.020   6.091
 2295WAT     H1 7127   3.300   7.058   5.999
 2295WAT     H2 7128   3.275   6.924   6.088
 2296WAT      O 7129   3.492   2.891   3.617
 2296WAT     H1 7130   3.519   2.832   3.541
 2296WAT     H2 7131   3.549   2.972   3.618
 2297WAT      O 7132   5.624   0.653   8.343
 2297WAT     H1 7133   5.545   0.636   8.284
 2297WAT     H2 7134   5.621   0.748   8.376
 2298WAT      O 7135   5.045   7.539   6.151
 2298WAT     H1 7136   5.003   7.556   6.240
 2298WAT     H2 7137   5.014   7.450   6.117
 2299WAT      O 7138   3.790   9.075   3.418
 2299WAT     H1 7139   3.718   9.032   3.362
 2299WAT     H2 7140   3.879   9.036   3.394
 2300WAT      O 7141   9.679   1.469   8.080
 2300WAT     H1 7142   9.744   1.406   8.122
 2300WAT     H2 7143   9.719   1.561   8.077
 2301WAT      O 7144   3.612   9.509   7.620
 2301WAT     H1 7145   3.627   9.591   7.675
 2301WAT     H2 7146   3.649   9.523   7.528
 2302WAT      O 7147   3.277   3.194   9.308
 2302WAT     H1 7148   3.240   3.150   9.390
 2302WAT     H2 7149   3.269   3.131   9.231
 2303WAT      O 7150   4.543   8.865   9.625
 2303WAT     H1 7151   4.483   8.834   9.551
 2303WAT     H2 7152   4.561   8.963   9.614
 2304WAT      O 7153   6.657   5.782   3.500
 2304WAT     H1 7154   6.623   5.841   3.574
 2304WAT     H2 7155   6.749   5.750   3.522
 2305WAT      O 7156   5.060   3.997   7.487
 2305WAT     H1 7157   5.122   3.981   7.410
 2305WAT     H2 7158   5.113   3.996   7.572
 2306WAT      O 7159   0.152   1.824   3.975
 2306WAT     H1 7160   0.171   1.818   4.073
 2306WAT     H2 7161   0.093   1.903   3.958
 2307WAT      O 7162   8.565   7.712   0.227
 2307WAT     H1 7163   8.580   7.692   0.130
 2307WAT     H2 7164   8.502   7.646   0.266
 2308WAT      O 7165   4.102   1.995   1.700
 2308WAT     H1 7166   4.182   2.054   1.685
 2308WAT     H2 7167   4.019   2.051   1.702
 2309WAT      O 7168   9.348   1.865   7.575
 2309WAT     H1 7169   9.417   1.800   7.606
 2309WAT     H2 7170   9.306   1.831   7.490
 2310WAT      O 7171   7.025   3.552   8.653
 2310WAT     H1 7172   7.056   3.642   8.624
 2310WAT     H2 7173   6.953   3.520   8.591
 2311WAT      O 7174   9.010   1.031   4.922
 2311WAT     H1 7175   8.933   1.093   4.910
 2311WAT     H2 7176   9.080   1.051   4.853
 2312WAT      O 7177   5.562   6.409   5.172
 2312WAT     H1 7178   5.546   6.313   5.149
 2312WAT     H2 7179   5.563   6.464   5.088
 2313WAT      O 7180   5.367   5.741   2.887
 2313WAT     H1 7181   5.301   5.790   2.944
 2313WAT     H2 7182   5.448   5.797   2.873
 2314WAT      O 7183   8.868   6.517   7.288
 2314WAT     H1 7184   8.879   6.500   7.190
 2314WAT     H2 7185   8.957   6.536   7.329
 2315WAT      O 7186   1.732   5.887   7.345
 2315WAT     H1 7187   1.733   5.911   7.442
 2315WAT     H2 7188   1.659   5.938   7.299
 2316WAT      O 7189   4.058   1.452   0.664
 2316WAT     H1 7190   3.958   1.450   0.666
 2316WAT     H2 7191   4.091   1.540   0.699
 2317WAT      O 7192   7.078   5.775   8.040
 2317WAT     H1 7193   6.982   5.750   8.053
 2317WAT     H2 7194   7.134   5.732   8.110
 2318WAT      O 7195   3.540   0.388   1.758
 2318WAT     H1 7196   3.584   0.476   1.742
 2318WAT     H2 7197   3.578   0.346   1.840
 2319WAT      O 7198   1.350   8.361   8.419
 2319WAT     H1 7199   1.258   8.323   8.417
 2319WAT     H2 7200   1.350   8.448   8.468
 2320WAT      O 7201   9.541   3.205   3.922
 2320WAT     H1 7202   9.492   3.277   3.970
 2320WAT     H2 7203   9.477   3.154   3.864
 2321WAT      O 7204   7.017   3.639   8.264
 2321WAT     H1 7205   6.957   3.695   8.208
 2321WAT     H2 7206   7.089   3.600   8.207
 2322WAT      O 7207   3.365   2.718   8.714
 2322WAT     H1 7208   3.448   2.677   8.752
 2322WAT     H2 7209   3.286   2.661   8.738
 2323WAT      O 7210   8.123   5.175   7.452
 2323WAT     H1 7211   8.137   5.079   7.475
 2323WAT     H2 7212   8.078   5.222   7.528
 2324WAT      O 7213   7.534   0.044   2.556
 2324WAT     H1 7214   7.437   0.018   2.545
 2324WAT     H2 7215   7.568   0.080   2.469
 2325WAT      O 7216   6.665   0.122   1.984
 2325WAT     H1 7217   6.609   0.042   2.007
 2325WAT     H2 7218   6.606   0.199   1.961
 2326WAT      O 7219   8.350   5.925   5.160
 2326WAT     H1 7220   8.383   5.940   5.067
 2326WAT     H2 7221   8.394   5.990   5.222
 2327WAT      O 7222   0.465   5.520   4.014
 2327WAT     H1 7223   0.546   5.463   4.028
 2327WAT     H2 7224   0.440   5.518   3.917
 2328WAT      O 7225   9.804   7.338   2.339
 2328WAT     H1 7226   9.789   7.240   2.345
 2328WAT     H2 7227   9.903   7.357   2.343
 2329WAT      O 7228   0.662   9.290   4.104
 2329WAT     H1 7229   0.712   9.207   4.079
 2329WAT     H2 7230   0.587   9.266   4.166
 2330WAT      O 7231   4.067   5.281   6.914
 2330WAT     H1 7232   4.060   5.346   6.838
 2330WAT     H2 7233   4.100   5.328   6.996
 2331WAT      O 7234   5.407   2.447   5.705
 2331WAT     H1 7235   5.390   2.545   5.707
 2331WAT     H2 7236   5.485   2.425   5.763
 2332WAT      O 7237   3.764   8.126   2.875
 2332WAT     H1 7238   3.720   8.106   2.788
 2332WAT     H2 7239   3.718   8.075   2.948
 2333WAT      O 7240   4.580   1.028   9.591
 2333WAT     H1 7241   4.518   1.083   9.647
 2333WAT     H2 7242   4.613   1.083   9.514
 2334WAT      O 7243   8.432   4.902   8.191
 2334WAT     H1 7244   8.459   4.879   8.098
 2334WAT     H2 7245   8.492   4.973   8.227
 2335WAT      O 7246   2.238   6.334   6.085
 2335WAT     H1 7247   2.320   6.278   6.071
 2335WAT     H2 7248   2.212   6.331   6.182
 2336WAT      O 7249   9.023   8.625   6.860
 2336WAT     H1 7250   9.014   8.719   6.894
 2336WAT     H2 7251   9.120   8.601   6.854
 2337WAT      O 7252   5.470   7.284   2.848
 2337WAT     H1 7253   5.529   7.344   2.795
 2337WAT     H2 7254   5.374   7.307   2.829
 2338WAT      O 7255   2.567   9.363   3.610
 2338WAT     H1 7256   2.608   9.302   3.677
 2338WAT     H2 7257   2.600   9.456   3.625
 2339WAT      O 7258   9.580   5.265   3.200
 2339WAT     H1 7259   9.576   5.250   3.101
 2339WAT     H2 7260   9.586   5.177   3.247
 2340WAT      O 7261   6.712   6.086   2.519
 2340WAT     H1 7262   6.742   6.085   2.424
 2340WAT     H2 7263   6.623   6.130   2.526
 2341WAT      O 7264   4.573   0.013   0.989
 2341WAT     H1 7265   4.536   0.101   1.021
 2341WAT     H2 7266   4.672   0.016   0.993
 2342WAT      O 7267   2.967   1.773   3.368
 2342WAT     H1 7268   2.904   1.845   3.338
 2342WAT     H2 7269   3.023   1.808   3.443
 2343WAT      O 7270   0.602   8.799   4.965
 2343WAT     H1 7271   0.517   8.847   4.984
 2343WAT     H2 7272   0.652   8.846   4.892
 2344WAT      O 7273   0.081   0.285   0.994
 2344WAT     H1 7274   0.067   0.232   1.078
 2344WAT     H2 7275   0.114   0.376   1.016
 2345WAT      O 7276   7.256   8.599   7.520
 2345WAT     H1 7277   7.265   8.645   7.431
 2345WAT     H2 7278   7.275   8.664   7.593
 2346WAT      O 7279   0.398   1.377   6.350
 2346WAT     H1 7280   0.460   1.331   6.414
 2346WAT     H2 7281   0.303   1.366   6.382
 2347WAT      O 7282   5.243   1.921   1.478
 2347WAT     H1 7283   5.156   1.923   1.430
 2347WAT     H2 7284   5.261   2.012   1.516
 2348WAT      O 7285   1.521   9.343   2.525
 2348WAT     H1 7286   1.490   9.339   2.430
 2348WAT     H2 7287   1.553   9.435   2.547
 2349WAT      O 7288   5.332   1.601   9.115
 2349WAT     H1 7289   5.341   1.598   9.214
 2349WAT     H2 7290   5.236   1.611   9.090
 2350WAT      O 7291   8.339   9.683   8.159
 2350WAT     H1 7292   8.373   9.670   8.252
 2350WAT     H2 7293   8.240   9.696   8.160
 2351WAT      O 7294   6.342   9.535   8.181
 2351WAT     H1 7295   6.416   9.584   8.228
 2351WAT     H2 7296   6.282   9.601   8.135
 2352WAT      O 7297   4.863   1.458   3.673
 2352WAT     H1 7298   4.901   1.408   3.595
 2352WAT     H2 7299   4.771   1.488   3.652
 2353WAT      O 7300   0.893   4.771   7.053
 2353WAT     H1 7301   0.839   4.729   7.126
 2353WAT     H2 7302   0.964   4.828   7.094
 2354WAT      O 7303   3.629   9.084   1.508
 2354WAT     H1 7304   3.712   9.127   1.542
 2354WAT     H2 7305   3.549   9.134   1.542
 2355WAT      O 7306   8.678   2.077   5.369
 2355WAT     H1 7307   8.744   2.060   5.442
 2355WAT     H2 7308   8.670   1.994   5.313
 2356WAT      O 7309   0.984   2.687   4.765
 2356WAT     H1 7310   1.025   2.734   4.843
 2356WAT     H2 7311   0.934   2.606   4.796
 2357WAT      O 7312   2.189   2.077   3.855
 2357WAT     H1 7313   2.146   2.021   3.784
 2357WAT     H2 7314   2.237   2.017   3.920
 2358WAT      O 7315   1.384   8.825   9.812
 2358WAT     H1 7316   1.332   8.859   9.734
 2358WAT     H2 7317   1.469   8.782   9.780
 2359WAT      O 7318   8.231   0.648   7.159
 2359WAT     H1 7319   8.149   0.665   7.213
 2359WAT     H2 7320   8.214   0.674   7.064
 2360WAT      O 7321   1.151   8.136   8.657
 2360WAT     H1 7322   1.167   8.145   8.559
 2360WAT     H2 7323   1.158   8.040   8.684
 2361WAT      O 7324   3.759   1.209   5.540
 2361WAT     H1 7325   3.676   1.242   5.496
 2361WAT     H2 7326   3.737   1.174   5.631
 2362WAT      O 7327   0.168   7.197   3.364
 2362WAT     H1 7328   0.127   7.288   3.357
 2362WAT     H2 7329   0.140   7.142   3.286
 2363WAT      O 7330   6.426   9.378   2.557
 2363WAT     H1 7331   6.427   9.334   2.647
 2363WAT     H2 7332   6.346   9.439   2.551
 2364WAT      O 7333   0.210   2.770   2.953
 2364WAT     H1 7334   0.156   2.782   2.870
 2364WAT     H2 7335   0.224   2.673   2.971
 2365WAT      O 7336   3.639   0.056   0.654
 2365WAT     H1 7337   3.719   0.087   0.706
 2365WAT     H2 7338   3.573   0.130   0.647
 2366WAT      O 7339   8.847   5.826   5.374
 2366WAT     H1 7340   8.777   5.855   5.439
 2366WAT     H2 7341   8.938   5.846   5.411
 2367WAT      O 7342   2.597   6.393   0.964
 2367WAT     H1 7343   2.673   6.371   0.902
 2367WAT     H2 7344   2.576   6.491   0.956
 2368WAT      O 7345   8.774   7.258   0.781
 2368WAT     H1 7346   8.768   7.182   0.846
 2368WAT     H2 7347   8.785   7.344   0.832
 2369WAT      O 7348   3.753   6.289   1.923
 2369WAT     H1 7349   3.671   6.271   1.978
 2369WAT     H2 7350   3.812   6.208   1.924
 2370WAT      O 7351   3.447   1.091   5.788
 2370WAT     H1 7352   3.505   1.035   5.729
 2370WAT     H2 7353   3.475   1.080   5.883
 2371WAT      O 7354   9.754   2.276   6.089
 2371WAT     H1 7355   9.812   2.356   6.076
 2371WAT     H2 7356   9.789   2.221   6.164
 2372WAT      O 7357   1.097   8.823   7.514
 2372WAT     H1 7358   1.147   8.839   7.428
 2372WAT     H2 7359   1.130   8.739   7.556
 2373WAT      O 7360   9.854   6.562   8.694
 2373WAT     H1 7361   9.766   6.606   8.713
 2373WAT     H2 7362   9.916   6.580   8.770
 2374WAT      O 7363   2.648   3.593   4.724
 2374WAT     H1 7364   2.559   3.550   4.708
 2374WAT     H2 7365   2.653   3.623   4.819
 2375WAT      O 7366   0.666   5.759   5.435
 2375WAT     H1 7367   0.624   5.725   5.519
 2375WAT     H2 7368   0.763   5.778   5.451
 2376WAT      O 7369   4.183   0.713   8.328
 2376WAT     H1 7370   4.234   0.738   8.410
 2376WAT     H2 7371   4.216   0.624   8.294
 2377WAT      O 7372   6.688   8.115   9.477
 2377WAT     H1 7373   6.782   8.138   9.504
 2377WAT     H2 7374   6.656   8.038   9.531
 2378WAT      O 7375   8.844   3.283   8.541
 2378WAT     H1 7376   8.818   3.362   8.486
 2378WAT     H2 7377   8.934   3.249   8.512
 2379WAT      O 7378   6.517   0.572   4.476
 2379WAT     H1 7379   6.609   0.590   4.510
 2379WAT     H2 7380   6.520   0.560   4.377
 2380WAT      O 7381   7.710   7.043   5.041
 2380WAT     H1 7382   7.802   7.023   5.074
 2380WAT     H2 7383   7.713   7.126   4.984
 2381WAT      O 7384   7.779   7.908   1.133
 2381WAT     H1 7385   7.784   7.886   1.230
 2381WAT     H2 7386   7.838   7.846   1.082
 2382WAT      O 7387   9.211   8.805   0.255
 2382WAT     H1 7388   9.147   8.880   0.236
 2382WAT     H2 7389   9.276   8.796   0.179
 2383WAT      O 7390   8.110   7.614   1.997
 2383WAT     H1 7391   8.204   7.592   1.972
 2383WAT     H2 7392   8.089   7.573   2.086
 2384WAT      O 7393   3.918   2.143   4.182
 2384WAT     H1 7394   3.827   2.152   4.223
 2384WAT     H2 7395   3.910   2.097   4.094
 2385WAT      O 7396   7.729   3.442   9.707
 2385WAT     H1 7397   7.660   3.402   9.647
 2385WAT     H2 7398   7.764   3.526   9.667
 2386WAT      O 7399   0.734   0.761   9.434
 2386WAT     H1 7400   0.664   0.713   9.381
 2386WAT     H2 7401   0.705   0.855   9.449
 2387WAT      O 7402   6.959   0.382   5.969
 2387WAT     H1 7403   6.990   0.389   5.875
 2387WAT     H2 7404   7.034   0.405   6.031
 2388WAT      O 7405   5.716   5.984   8.647
 2388WAT     H1 7406   5.808   6.005   8.614
 2388WAT     H2 7407   5.716   5.894   8.690
 2389WAT      O 7408   0.782   3.285   7.418
 2389WAT     H1 7409   0.700   3.312   7.467
 2389WAT     H2 7410   0.765   3.286   7.320
 2390WAT      O 7411   1.740   4.922   3.512
 2390WAT     H1 7412   1.691   4.947   3.428
 2390WAT     H2 7413   1.836   4.947   3.502
 2391WAT      O 7414   1.181   8.873   3.153
 2391WAT     H1 7415   1.280   8.866   3.139
 2391WAT     H2 7416   1.133   8.848   3.069
 2392WAT      O 7417   1.162   5.304   7.066
 2392WAT     H1 7418   1.203   5.388   7.102
 2392WAT     H2 7419   1.222   5.265   6.996
 2393WAT      O 7420   8.355   3.193   8.037
 2393WAT     H1 7421   8.267   3.193   8.083
 2393WAT     H2 7422   8.342   3.215   7.940
 2394WAT      O 7423   5.283   8.578   5.569
 2394WAT     H1 7424   5.251   8.670   5.593
 2394WAT     H2 7425   5.266   8.516   5.646
 2395WAT      O 7426   2.068   2.077   3.167
 2395WAT     H1 7427   2.081   2.075   3.067
 2395WAT     H2 7428   2.007   2.003   3.194
 2396WAT      O 7429   5.918   8.665   4.828
 2396WAT     H1 7430   5.869   8.708   4.752
 2396WAT     H2 7431   5.853   8.639   4.900
 2397WAT      O 7432   6.183   8.114   6.297
 2397WAT     H1 7433   6.110   8.047   6.284
 2397WAT     H2 7434   6.208   8.117   6.394
 2398WAT      O 7435   6.582   8.272   6.915
 2398WAT     H1 7436   6.556   8.195   6.857
 2398WAT     H2 7437   6.636   8.338   6.861
 2399WAT      O 7438   3.906   6.049   6.292
 2399WAT     H1 7439   3.976   6.064   6.221
 2399WAT     H2 7440   3.889   6.135   6.340
 2400WAT      O 7441   5.845   0.161   0.599
 2400WAT     H1 7442   5.771   0.218   0.561
 2400WAT     H2 7443   5.825   0.140   0.694
 2401WAT      O 7444   9.857   0.870   6.381
 2401WAT     H1 7445   9.879   0.878   6.283
 2401WAT     H2 7446   9.766   0.831   6.391
 2402WAT      O 7447   4.021   1.978   7.789
 2402WAT     H1 7448   4.112   2.016   7.804
 2402WAT     H2 7449   3.967   2.042   7.734
 2403WAT      O 7450   5.334   8.589   5.284
 2403WAT     H1 7451   5.340   8.567   5.381
 2403WAT     H2 7452   5.371   8.514   5.230
 2404WAT      O 7453   7.151   9.281   5.655
 2404WAT     H1 7454   7.092   9.282   5.575
 2404WAT     H2 7455   7.095   9.273   5.738
 2405WAT      O 7456   5.273   7.787   6.962
 2405WAT     H1 7457   5.266   7.764   6.865
 2405WAT     H2 7458   5.335   7.723   7.007
 2406WAT      O 7459   0.399   4.344   3.409
 2406WAT     H1 7460   0.373   4.248   3.424
 2406WAT     H2 7461   0.471   4.369   3.475
 2407WAT      O 7462   9.360   0.773   2.317
 2407WAT     H1 7463   9.306   0.855   2.336
 2407WAT     H2 7464   9.299   0.695   2.307
 2408WAT      O 7465   4.788   0.489   4.857
 2408WAT     H1 7466   4.808   0.520   4.950
 2408WAT     H2 7467   4.803   0.391   4.851
 2409WAT      O 7468   1.585   6.801   4.404
 2409WAT     H1 7469   1.678   6.818   4.436
 2409WAT     H2 7470   1.582   6.714   4.355
 2410WAT      O 7471   8.806   2.623   8.037
 2410WAT     H1 7472   8.855   2.555   7.983
 2410WAT     H2 7473   8.801   2.594   8.133
 2411WAT      O 7474   9.681   0.547   4.238
 2411WAT     H1 7475   9.778   0.527   4.250
 2411WAT     H2 7476   9.626   0.470   4.271
 2412WAT      O 7477   7.725   0.471   3.153
 2412WAT     H1 7478   7.762   0.535   3.220
 2412WAT     H2 7479   7.799   0.437   3.096
 2413WAT      O 7480   0.441   9.726   5.947
 2413WAT     H1 7481   0.506   9.710   5.872
 2413WAT     H2 7482   0.385   9.644   5.961
 2414WAT      O 7483   7.345   0.793   2.993
 2414WAT     H1 7484   7.352   0.839   2.905
 2414WAT     H2 7485   7.293   0.850   3.056
 2415WAT      O 7486   7.638   0.104   6.821
 2415WAT     H1 7487   7.725   0.153   6.816
 2415WAT     H2 7488   7.579   0.132   6.745
 2416WAT      O 7489   3.762   2.528   1.490
 2416WAT     H1 7490   3.861   2.516   1.485
 2416WAT     H2 7491   3.722   2.516   1.399
 2417WAT      O 7492   4.560   4.936   9.102
 2417WAT     H1 7493   4.571   4.866   9.031
 2417WAT     H2 7494   4.612   4.911   9.183
 2418WAT      O 7495   7.789   8.049   6.734
 2418WAT     H1 7496   7.812   7.998   6.817
 2418WAT     H2 7497   7.828   8.141   6.740
 2419WAT      O 7498   5.439   5.748   1.811
 2419WAT     H1 7499   5.502   5.672   1.826
 2419WAT     H2 7500   5.480   5.814   1.749
 2420WAT      O 7501   5.969   1.456   6.641
 2420WAT     H1 7502   5.996   1.477   6.547
 2420WAT     H2 7503   5.900   1.521   6.672
 2421WAT      O 7504   1.913   0.160   6.520
 2421WAT     H1 7505   1.828   0.136   6.474
 2421WAT     H2 7506   1.963   0.077   6.544
 2422WAT      O 7507   3.295   1.440   0.958
 2422WAT     H1 7508   3.267   1.467   0.865
 2422WAT     H2 7509   3.214   1.430   1.015
 2423WAT      O 7510   3.398   8.948   0.957
 2423WAT     H1 7511   3.419   9.028   1.013
 2423WAT     H2 7512   3.467   8.877   0.973
 2424WAT      O 7513   1.153   0.381   7.373
 2424WAT     H1 7514   1.194   0.332   7.297
 2424WAT     H2 7515   1.120   0.470   7.341
 2425WAT      O 7516   3.145   9.599   5.413
 2425WAT     H1 7517   3.065   9.558   5.457
 2425WAT     H2 7518   3.137   9.699   5.415
 2426WAT      O 7519   3.028   4.466   9.734
 2426WAT     H1 7520   3.023   4.525   9.653
 2426WAT     H2 7521   3.122   4.460   9.766
 2427WAT      O 7522   9.609   4.050   5.713
 2427WAT     H1 7523   9.602   4.101   5.627
 2427WAT     H2 7524   9.657   3.963   5.697
 2428WAT      O 7525   9.779   9.688   2.938
 2428WAT     H1 7526   9.856   9.630   2.910
 2428WAT     H2 7527   9.700   9.667   2.881
 2429WAT      O 7528   7.459   7.499   2.490
 2429WAT     H1 7529   7.516   7.553   2.553
 2429WAT     H2 7530   7.517   7.442   2.433
 2430WAT      O 7531   1.181   6.435   1.048
 2430WAT     H1 7532   1.230   6.377   1.114
 2430WAT     H2 7533   1.207   6.409   0.955
 2431WAT      O 7534   8.780   4.995   6.343
 2431WAT     H1 7535   8.806   4.901   6.325
 2431WAT     H2 7536   8.779   5.047   6.257
 2432WAT      O 7537   7.910   4.203   6.559
 2432WAT     H1 7538   7.968   4.162   6.489
 2432WAT     H2 7539   7.822   4.156   6.561
 2433WAT      O 7540   5.503   3.479   5.252
 2433WAT     H1 7541   5.551   3.509   5.335
 2433WAT     H2 7542   5.566   3.429   5.193
 2434WAT      O 7543   1.179   0.567   6.899
 2434WAT     H1 7544   1.268   0.611   6.895
 2434WAT     H2 7545   1.186   0.482   6.951
 2435WAT      O 7546   6.405   2.522   5.567
 2435WAT     H1 7547   6.492   2.561   5.594
 2435WAT     H2 7548   6.342   2.524   5.645
 2436WAT      O 7549   3.595   1.135   6.021
 2436WAT     H1 7550   3.572   1.074   6.096
 2436WAT     H2 7551   3.577   1.230   6.047
 2437WAT      O 7552   6.402   0.118   2.929
 2437WAT     H1 7553   6.326   0.112   2.994
 2437WAT     H2 7554   6.470   0.183   2.963
 2438WAT      O 7555   9.884   6.174   9.052
 2438WAT     H1 7556   9.843   6.192   8.963
 2438WAT     H2 7557   9.964   6.233   9.065
 2439WAT      O 7558   3.503   6.707   1.071
 2439WAT     H1 7559   3.477   6.633   1.009
 2439WAT     H2 7560   3.516   6.791   1.019
 2440WAT      O 7561   9.592   3.114   1.995
 2440WAT     H1 7562   9.613   3.203   2.036
 2440WAT     H2 7563   9.605   3.120   1.896
 2441WAT      O 7564   2.361   3.893   4.254
 2441WAT     H1 7565   2.425   3.957   4.211
 2441WAT     H2 7566   2.269   3.932   4.252
 2442WAT      O 7567   5.839   0.650   5.972
 2442WAT     H1 7568   5.850   0.748   5.989
 2442WAT     H2 7569   5.902   0.622   5.899
 2443WAT      O 7570   8.112   8.999   4.797
 2443WAT     H1 7571   8.112   9.074   4.862
 2443WAT     H2 7572   8.019   8.981   4.765
 2444WAT      O 7573   9.131   6.340   8.537
 2444WAT     H1 7574   9.229   6.327   8.546
 2444WAT     H2 7575   9.098   6.397   8.613
 2445WAT      O 7576   8.345   3.098   6.765
 2445WAT     H1 7577   8.293   3.182   6.748
 2445WAT     H2 7578   8.284   3.030   6.807
 2446WAT      O 7579   5.383   6.949   4.502
 2446WAT     H1 7580   5.441   7.030   4.496
 2446WAT     H2 7581   5.425   6.873   4.452
 2447WAT      O 7582   1.211   4.802   0.118
 2447WAT     H1 7583   1.187   4.898   0.135
 2447WAT     H2 7584   1.265   4.796   0.034
 2448WAT      O 7585   2.422   9.292   7.489
 2448WAT     H1 7586   2.501   9.353   7.491
 2448WAT     H2 7587   2.410   9.252   7.580
 2449WAT      O 7588   2.344   3.126   4.533
 2449WAT     H1 7589   2.370   3.118   4.629
 2449WAT     H2 7590   2.252   3.166   4.527
 2450WAT      O 7591   3.652   6.533   7.549
 2450WAT     H1 7592   3.746   6.567   7.544
 2450WAT     H2 7593   3.620   6.512   7.457
 2451WAT      O 7594   2.706   8.059   2.285
 2451WAT     H1 7595   2.792   8.075   2.236
 2451WAT     H2 7596   2.670   7.969   2.260
 2452WAT      O 7597   4.322   4.947   4.342
 2452WAT     H1 7598   4.343   4.888   4.420
 2452WAT     H2 7599   4.253   5.014   4.368
 2453WAT      O 7600   2.455   9.374   8.567
 2453WAT     H1 7601   2.457   9.444   8.495
 2453WAT     H2 7602   2.360   9.344   8.581
 2454WAT      O 7603   0.463   7.891   8.028
 2454WAT     H1 7604   0.512   7.858   7.947
 2454WAT     H2 7605   0.377   7.840   8.038
 2455WAT      O 7606   9.783   4.783   6.677
 2455WAT     H1 7607   9.839   4.786   6.760
 2455WAT     H2 7608   9.842   4.781   6.596
 2456WAT      O 7609   9.857   6.045   5.882
 2456WAT     H1 7610   9.849   5.947   5.899
 2456WAT     H2 7611   9.887   6.091   5.966
 2457WAT      O 7612   3.329   6.187   5.510
 2457WAT     H1 7613   3.353   6.092   5.531
 2457WAT     H2 7614   3.412   6.243   5.511
 2458WAT      O 7615   9.290   7.889   2.429
 2458WAT     H1 7616   9.383   7.870   2.458
 2458WAT     H2 7617   9.266   7.984   2.452
 2459WAT      O 7618   1.773   8.805   5.716
 2459WAT     H1 7619   1.836   8.772   5.645
 2459WAT     H2 7620   1.826   8.841   5.793
 2460WAT      O 7621   5.614   0.679   1.436
 2460WAT     H1 7622   5.601   0.647   1.342
 2460WAT     H2 7623   5.710   0.668   1.462
 2461WAT      O 7624   5.501   6.138   7.411
 2461WAT     H1 7625   5.485   6.070   7.340
 2461WAT     H2 7626   5.562   6.099   7.481
 2462WAT      O 7627   3.626   3.159   1.684
 2462WAT     H1 7628   3.722   3.168   1.659
 2462WAT     H2 7629   3.581   3.248   1.677
 2463WAT      O 7630   2.108   3.267   7.207
 2463WAT     H1 7631   2.047   3.188   7.205
 2463WAT     H2 7632   2.191   3.244   7.259
 2464WAT      O 7633   8.024   0.355   7.464
 2464WAT     H1 7634   8.029   0.422   7.391
 2464WAT     H2 7635   7.936   0.307   7.459
 2465WAT      O 7636   1.686   8.663   3.189
 2465WAT     H1 7637   1.625   8.649   3.267
 2465WAT     H2 7638   1.643   8.626   3.107
 2466WAT      O 7639   1.032   2.432   1.511
 2466WAT     H1 7640   0.942   2.435   1.468
 2466WAT     H2 7641   1.068   2.338   1.506
 2467WAT      O 7642   7.987   8.334   6.467
 2467WAT     H1 7643   7.954   8.374   6.382
 2467WAT     H2 7644   8.087   8.332   6.467
 2468WAT      O 7645   5.341   1.924   9.310
 2468WAT     H1 7646   5.412   1.871   9.265
 2468WAT     H2 7647   5.355   2.022   9.291
 2469WAT      O 7648   0.105   9.455   0.309
 2469WAT     H1 7649   0.142   9.386   0.370
 2469WAT     H2 7650   0.017   9.487   0.344
 2470WAT      O 7651   7.058   5.344   7.282
 2470WAT     H1 7652   7.106   5.264   7.318
 2470WAT     H2 7653   7.115   5.389   7.213
 2471WAT      O 7654   7.364   9.358   2.442
 2471WAT     H1 7655   7.373   9.453   2.413
 2471WAT     H2 7656   7.406   9.298   2.373
 2472WAT      O 7657   9.037   1.040   5.471
 2472WAT     H1 7658   9.097   1.111   5.507
 2472WAT     H2 7659   8.951   1.040   5.521
 2473WAT      O 7660   2.588   2.671   7.661
 2473WAT     H1 7661   2.535   2.647   7.742
 2473WAT     H2 7662   2.533   2.731   7.602
 2474WAT      O 7663   3.948   5.154   3.489
 2474WAT     H1 7664   3.959   5.244   3.446
 2474WAT     H2 7665   3.933   5.085   3.418
 2475WAT      O 7666   3.208   3.531   5.661
 2475WAT     H1 7667   3.127   3.491   5.705
 2475WAT     H2 7668   3.208   3.630   5.673
 2476WAT      O 7669   6.661   2.187   1.073
 2476WAT     H1 7670   6.681   2.283   1.055
 2476WAT     H2 7671   6.671   2.135   0.988
 2477WAT      O 7672   6.404   6.509   6.602
 2477WAT     H1 7673   6.472   6.576   6.574
 2477WAT     H2 7674   6.374   6.528   6.696
 2478WAT      O 7675   4.393   4.624   4.154
 2478WAT     H1 7676   4.446   4.696   4.110
 2478WAT     H2 7677   4.300   4.657   4.172
 2479WAT      O 7678   4.568   8.076   3.017
 2479WAT     H1 7679   4.540   8.073   2.921
 2479WAT     H2 7680   4.527   8.156   3.062
 2480WAT      O 7681   9.848   5.235   7.517
 2480WAT     H1 7682   9.879   5.140   7.513
 2480WAT     H2 7683   9.850   5.266   7.612
 2481WAT      O 7684   7.982   9.101   2.017
 2481WAT     H1 7685   8.032   9.045   2.083
 2481WAT     H2 7686   8.022   9.192   2.012
 2482WAT      O 7687   4.067   8.091   1.303
 2482WAT     H1 7688   4.075   8.077   1.204
 2482WAT     H2 7689   4.015   8.015   1.342
 2483WAT      O 7690   8.364   6.527   6.460
 2483WAT     H1 7691   8.342   6.594   6.389
 2483WAT     H2 7692   8.301   6.537   6.536
 2484WAT      O 7693   5.533   6.003   0.113
 2484WAT     H1 7694   5.434   6.011   0.126
 2484WAT     H2 7695   5.562   5.911   0.138
 2485WAT      O 7696   0.732   1.416   2.939
 2485WAT     H1 7697   0.642   1.375   2.933
 2485WAT     H2 7698   0.723   1.515   2.953
 2486WAT      O 7699   9.398   6.267   8.614
 2486WAT     H1 7700   9.373   6.188   8.670
 2486WAT     H2 7701   9.452   6.331   8.668
 2487WAT      O 7702   4.488   2.330   6.105
 2487WAT     H1 7703   4.408   2.389   6.121
 2487WAT     H2 7704   4.457   2.243   6.065
 2488WAT      O 7705   3.711   8.996   7.872
 2488WAT     H1 7706   3.666   8.924   7.819
 2488WAT     H2 7707   3.684   9.085   7.837
 2489WAT      O 7708   5.696   1.548   5.569
 2489WAT     H1 7709   5.721   1.488   5.493
 2489WAT     H2 7710   5.661   1.494   5.645
 2490WAT      O 7711   6.649   3.742   7.477
 2490WAT     H1 7712   6.730   3.702   7.434
 2490WAT     H2 7713   6.567   3.696   7.444
 2491WAT      O 7714   6.087   8.793   7.029
 2491WAT     H1 7715   6.089   8.875   6.971
 2491WAT     H2 7716   6.097   8.711   6.973
 2492WAT      O 7717   5.528   4.925   9.118
 2492WAT     H1 7718   5.584   5.001   9.085
 2492WAT     H2 7719   5.431   4.943   9.098
 2493WAT      O 7720   4.967   3.047   9.613
 2493WAT     H1 7721   5.050   3.020   9.563
 2493WAT     H2 7722   4.993   3.091   9.699
 2494WAT      O 7723   4.975   6.529   4.035
 2494WAT     H1 7724   4.878   6.512   4.021
 2494WAT     H2 7725   4.988   6.580   4.120
 2495WAT      O 7726   6.736   9.453   2.131
 2495WAT     H1 7727   6.787   9.419   2.053
 2495WAT     H2 7728   6.676   9.381   2.166
 2496WAT      O 7729   5.428   4.073   7.719
 2496WAT     H1 7730   5.448   4.121   7.634
 2496WAT     H2 7731   5.497   4.003   7.735
 2497WAT      O 7732   7.541   4.366   4.465
 2497WAT     H1 7733   7.523   4.355   4.367
 2497WAT     H2 7734   7.615   4.432   4.478
 2498WAT      O 7735   6.461   0.758   2.050
 2498WAT     H1 7736   6.544   0.802   2.084
 2498WAT     H2 7737   6.402   0.733   2.126
 2499WAT      O 7738   8.088   9.251   4.887
 2499WAT     H1 7739   7.995   9.284   4.869
 2499WAT     H2 7740   8.117   9.281   4.978
 2500WAT      O 7741   4.533   7.315   3.039
 2500WAT     H1 7742   4.620   7.325   3.088
 2500WAT     H2 7743   4.508   7.402   2.998
 2501WAT      O 7744   6.066   3.930   8.420
 2501WAT     H1 7745   6.129   3.906   8.494
 2501WAT     H2 7746   6.076   3.866   8.344
 2502WAT      O 7747   7.960   7.878   0.668
 2502WAT     H1 7748   7.920   7.944   0.604
 2502WAT     H2 7749   8.029   7.923   0.724
 2503WAT      O 7750   0.431   8.740   4.635
 2503WAT     H1 7751   0.510   8.787   4.677
 2503WAT     H2 7752   0.356   8.805   4.625
 2504WAT      O 7753   4.790   2.751   5.837
 2504WAT     H1 7754   4.730   2.676   5.809
 2504WAT     H2 7755   4.865   2.760   5.771
 2505WAT      O 7756   5.104   8.556   1.857
 2505WAT     H1 7757   5.196   8.562   1.896
 2505WAT     H2 7758   5.058   8.645   1.865
 2506WAT      O 7759   5.967   3.818   8.785
 2506WAT     H1 7760   5.961   3.899   8.728
 2506WAT     H2 7761   5.877   3.777   8.795
 2507WAT      O 7762   5.587   8.031   1.626
 2507WAT     H1 7763   5.555   7.940   1.653
 2507WAT     H2 7764   5.605   8.032   1.527
 2508WAT      O 7765   5.358   8.316   2.789
 2508WAT     H1 7766   5.305   8.376   2.849
 2508WAT     H2 7767   5.297   8.268   2.726
 2509WAT      O 7768   3.708   1.887   8.209
 2509WAT     H1 7769   3.683   1.904   8.113
 2509WAT     H2 7770   3.808   1.888   8.217
 2510WAT      O 7771   7.068   1.344   0.822
 2510WAT     H1 7772   7.017   1.402   0.886
 2510WAT     H2 7773   7.070   1.388   0.732
 2511WAT      O 7774   3.304   2.520   6.134
 2511WAT     H1 7775   3.389   2.480   6.170
 2511WAT     H2 7776   3.307   2.619   6.144
 2512WAT      O 7777   0.332   4.813   3.722
 2512WAT     H1 7778   0.378   4.773   3.643
 2512WAT     H2 7779   0.340   4.751   3.800
 2513WAT      O 7780   0.390   4.538   4.933
 2513WAT     H1 7781   0.412   4.557   5.029
 2513WAT     H2 7782   0.474   4.538   4.879
 2514WAT      O 7783   1.763   4.447   2.710
 2514WAT     H1 7784   1.841   4.466   2.651
 2514WAT     H2 7785   1.681   4.435   2.654
 2515WAT      O 7786   6.853   9.579   5.155
 2515WAT     H1 7787   6.803   9.495   5.135
 2515WAT     H2 7788   6.836   9.646   5.082
 2516WAT      O 7789   3.356   3.619   0.520
 2516WAT     H1 7790   3.336   3.522   0.535
 2516WAT     H2 7791   3.324   3.671   0.599
 2517WAT      O 7792   8.923   5.413   2.387
 2517WAT     H1 7793   8.850   5.432   2.452
 2517WAT     H2 7794   8.893   5.436   2.294
 2518WAT      O 7795   3.373   2.510   2.815
 2518WAT     H1 7796   3.460   2.558   2.809
 2518WAT     H2 7797   3.381   2.434   2.881
 2519WAT      O 7798   7.242   6.470   1.216
 2519WAT     H1 7799   7.312   6.538   1.194
 2519WAT     H2 7800   7.286   6.385   1.245
 2520WAT      O 7801   4.848   2.049   7.427
 2520WAT     H1 7802   4.751   2.070   7.431
 2520WAT     H2 7803   4.888   2.055   7.519
 2521WAT      O 7804   0.066   8.566   2.566
 2521WAT     H1 7805  -0.027   8.539   2.591
 2521WAT     H2 7806   0.069   8.591   2.469
 2522WAT      O 7807   0.427   4.325   9.439
 2522WAT     H1 7808   0.481   4.319   9.355
 2522WAT     H2 7809   0.487   4.308   9.518
 2523WAT      O 7810   6.251   8.629   1.478
 2523WAT     H1 7811   6.183   8.702   1.478
 2523WAT     H2 7812   6.208   8.544   1.508
 2524WAT      O 7813   7.975   4.317   7.590
 2524WAT     H1 7814   8.074   4.313   7.582
 2524WAT     H2 7815   7.949   4.398   7.642
 2525WAT      O 7816   4.905   8.262   2.904
 2525WAT     H1 7817   4.807   8.267   2.884
 2525WAT     H2 7818   4.918   8.233   2.999
 2526WAT      O 7819   3.174   4.840   8.349
 2526WAT     H1 7820   3.171   4.818   8.251
 2526WAT     H2 7821   3.144   4.761   8.401
 2527WAT      O 7822   3.939   9.786   4.719
 2527WAT     H1 7823   3.954   9.688   4.729
 2527WAT     H2 7824   3.868   9.803   4.651
 2528WAT      O 7825   8.633   4.316   4.888
 2528WAT     H1 7826   8.543   4.335   4.930
 2528WAT     H2 7827   8.620   4.287   4.794
 2529WAT      O 7828   3.240   2.926   3.843
 2529WAT     H1 7829   3.162   2.987   3.828
 2529WAT     H2 7830   3.312   2.947   3.777
 2530WAT      O 7831   7.809   2.590   6.941
 2530WAT     H1 7832   7.846   2.616   7.030
 2530WAT     H2 7833   7.818   2.666   6.877
 2531WAT      O 7834   6.754   7.404   6.273
 2531WAT     H1 7835   6.734   7.402   6.175
 2531WAT     H2 7836   6.852   7.410   6.287
 2532WAT      O 7837   0.338   5.777   7.087
 2532WAT     H1 7838   0.267   5.791   7.156
 2532WAT     H2 7839   0.404   5.710   7.121
 2533WAT      O 7840   2.302   8.223   6.373
 2533WAT     H1 7841   2.243   8.146   6.398
 2533WAT     H2 7842   2.282   8.300   6.434
 2534WAT      O 7843   5.374   2.769   6.236
 2534WAT     H1 7844   5.342   2.864   6.240
 2534WAT     H2 7845   5.330   2.723   6.160
 2535WAT      O 7846   8.293   2.366   9.200
 2535WAT     H1 7847   8.263   2.293   9.139
 2535WAT     H2 7848   8.360   2.424   9.153
 2536WAT      O 7849   4.451   0.401   1.650
 2536WAT     H1 7850   4.526   0.391   1.585
 2536WAT     H2 7851   4.369   0.355   1.614
 2537WAT      O 7852   5.711   4.202   2.229
 2537WAT     H1 7853   5.636   4.253   2.272
 2537WAT     H2 7854   5.679   4.160   2.144
 2538WAT      O 7855   4.307   6.370   5.757
 2538WAT     H1 7856   4.307   6.343   5.661
 2538WAT     H2 7857   4.348   6.461   5.766
 2539WAT      O 7858   2.074   8.249   3.021
 2539WAT     H1 7859   1.987   8.250   3.069
 2539WAT     H2 7860   2.077   8.172   2.957
 2540WAT      O 7861   6.208   7.401   8.468
 2540WAT     H1 7862   6.207   7.454   8.384
 2540WAT     H2 7863   6.130   7.427   8.525
 2541WAT      O 7864   4.047   4.647   1.071
 2541WAT     H1 7865   4.101   4.649   0.987
 2541WAT     H2 7866   4.087   4.710   1.138
 2542WAT      O 7867   5.863   2.598   7.655
 2542WAT     H1 7868   5.880   2.501   7.639
 2542WAT     H2 7869   5.950   2.645   7.664
 2543WAT      O 7870   1.817   0.052   3.285
 2543WAT     H1 7871   1.744   0.008   3.337
 2543WAT     H2 7872   1.881   0.096   3.349
 2544WAT      O 7873   6.447   6.902   7.892
 2544WAT     H1 7874   6.426   6.978   7.831
 2544WAT     H2 7875   6.538   6.866   7.870
 2545WAT      O 7876   2.682   6.361   8.852
 2545WAT     H1 7877   2.633   6.377   8.938
 2545WAT     H2 7878   2.732   6.444   8.827
 2546WAT      O 7879   2.861   7.495   4.259
 2546WAT     H1 7880   2.769   7.530   4.273
 2546WAT     H2 7881   2.876   7.475   4.162
 2547WAT      O 7882   5.297   6.692   6.773
 2547WAT     H1 7883   5.256   6.612   6.818
 2547WAT     H2 7884   5.310   6.672   6.676
 2548WAT      O 7885   6.686   4.809   9.447
 2548WAT     H1 7886   6.597   4.851   9.466
 2548WAT     H2 7887   6.675   4.739   9.376
 2549WAT      O 7888   2.363   2.168   2.067
 2549WAT     H1 7889   2.360   2.082   2.016
 2549WAT     H2 7890   2.270   2.206   2.073
 2550WAT      O 7891   7.243   1.628   2.273
 2550WAT     H1 7892   7.248   1.556   2.204
 2550WAT     H2 7893   7.323   1.687   2.265
 2551WAT      O 7894   8.989   5.744   2.287
 2551WAT     H1 7895   8.909   5.771   2.340
 2551WAT     H2 7896   9.047   5.683   2.342
 2552WAT      O 7897   0.834   8.018   2.869
 2552WAT     H1 7898   0.825   7.919   2.881
 2552WAT     H2 7899   0.746   8.062   2.887
 2553WAT      O 7900   7.838   8.403   8.664
 2553WAT     H1 7901   7.784   8.478   8.627
 2553WAT     H2 7902   7.836   8.405   8.764
 2554WAT      O 7903   5.660   2.677   6.869
 2554WAT     H1 7904   5.688   2.736   6.945
 2554WAT     H2 7905   5.729   2.605   6.856
 2555WAT      O 7906   1.952   2.010   0.658
 2555WAT     H1 7907   2.042   2.047   0.681
 2555WAT     H2 7908   1.948   1.988   0.561
 2556WAT      O 7909   2.838   6.055   7.533
 2556WAT     H1 7910   2.794   6.073   7.621
 2556WAT     H2 7911   2.798   6.115   7.464
 2557WAT      O 7912   0.610   4.847   5.010
 2557WAT     H1 7913   0.632   4.806   4.922
 2557WAT     H2 7914   0.630   4.945   5.007
 2558WAT      O 7915   3.683   9.696   7.793
 2558WAT     H1 7916   3.689   9.659   7.886
 2558WAT     H2 7917   3.651   9.790   7.796
 2559WAT      O 7918   0.981   8.062   1.696
 2559WAT     H1 7919   0.901   8.054   1.757
 2559WAT     H2 7920   1.035   8.141   1.724
 2560WAT      O 7921   2.968   8.115   3.639
 2560WAT     H1 7922   3.015   8.109   3.727
 2560WAT     H2 7923   2.878   8.157   3.653
 2561WAT      O 7924   8.167   5.770   6.827
 2561WAT     H1 7925   8.179   5.686   6.880
 2561WAT     H2 7926   8.255   5.798   6.789
 2562WAT      O 7927   3.181   1.696   5.225
 2562WAT     H1 7928   3.189   1.672   5.322
 2562WAT     H2 7929   3.102   1.649   5.185
 2563WAT      O 7930   3.967   3.783   3.334
 2563WAT     H1 7931   3.985   3.847   3.408
 2563WAT     H2 7932   4.051   3.734   3.311
 2564WAT      O 7933   6.109   8.634   9.076
 2564WAT     H1 7934   6.201   8.650   9.042
 2564WAT     H2 7935   6.043   8.655   9.004
 2565WAT      O 7936   9.814   8.538   6.016
 2565WAT     H1 7937   9.888   8.567   6.077
 2565WAT     H2 7938   9.842   8.455   5.967
 2566WAT      O 7939   7.544   7.237   3.507
 2566WAT     H1 7940   7.521   7.332   3.528
 2566WAT     H2 7941   7.483   7.202   3.437
 2567WAT      O 7942   7.898   1.980   3.574
 2567WAT     H1 7943   7.854   1.893   3.594
 2567WAT     H2 7944   7.852   2.024   3.497
 2568WAT      O 7945   4.462   1.984   3.206
 2568WAT     H1 7946   4.488   1.925   3.283
 2568WAT     H2 7947   4.452   2.078   3.238
 2569WAT      O 7948   8.302   1.647   4.549
 2569WAT     H1 7949   8.341   1.726   4.500
 2569WAT     H2 7950   8.371   1.576   4.559
 2570WAT      O 7951   4.017   6.810   2.181
 2570WAT     H1 7952   3.940   6.759   2.221
 2570WAT     H2 7953   4.046   6.765   2.096
 2571WAT      O 7954   4.113   0.572   3.907
 2571WAT     H1 7955   4.057   0.506   3.957
 2571WAT     H2 7956   4.175   0.523   3.845
 2572WAT      O 7957   2.763   7.883   9.687
 2572WAT     H1 7958   2.849   7.836   9.664
 2572WAT     H2 7959   2.714   7.906   9.603
 2573WAT      O 7960   7.650   6.947   4.527
 2573WAT     H1 7961   7.727   6.902   4.482
 2573WAT     H2 7962   7.682   7.031   4.572
 2574WAT      O 7963   3.182   4.102   4.018
 2574WAT     H1 7964   3.121   4.042   3.966
 2574WAT     H2 7965   3.255   4.048   4.060
 2575WAT      O 7966   7.368   6.123   3.333
 2575WAT     H1 7967   7.434   6.194   3.308
 2575WAT     H2 7968   7.375   6.047   3.268
 2576WAT      O 7969   3.519   1.441   9.815
 2576WAT     H1 7970   3.438   1.393   9.847
 2576WAT     H2 7971   3.595   1.425   9.878
 2577WAT      O 7972   8.908   2.929   2.257
 2577WAT     H1 7973   8.871   2.992   2.326
 2577WAT     H2 7974   8.923   2.979   2.171
 2578WAT      O 7975   7.875   7.458   9.513
 2578WAT     H1 7976   7.913   7.521   9.582
 2578WAT     H2 7977   7.921   7.473   9.426
 2579WAT      O 7978   0.231   3.819   8.939
 2579WAT     H1 7979   0.301   3.888   8.961
 2579WAT     H2 7980   0.178   3.799   9.022
 2580WAT      O 7981   7.531   9.656   2.790
 2580WAT     H1 7982   7.474   9.620   2.716
 2580WAT     H2 7983   7.545   9.584   2.859
 2581WAT      O 7984   9.292   3.367   8.058
 2581WAT     H1 7985   9.364   3.394   7.993
 2581WAT     H2 7986   9.288   3.267   8.064
 2582WAT      O 7987   9.667   1.353   7.659
 2582WAT     H1 7988   9.712   1.409   7.728
 2582WAT     H2 7989   9.638   1.266   7.699
 2583WAT      O 7990   0.230   8.856   0.125
 2583WAT     H1 7991   0.308   8.796   0.106
 2583WAT     H2 7992   0.155   8.803   0.165
 2584WAT      O 7993   0.169   4.455   0.719
 2584WAT     H1 7994   0.164   4.523   0.645
 2584WAT     H2 7995   0.205   4.369   0.683
 2585WAT      O 7996   8.556   3.930   9.681
 2585WAT     H1 7997   8.460   3.932   9.708
 2585WAT     H2 7998   8.604   4.007   9.722
 2586WAT      O 7999   9.864   8.575   6.736
 2586WAT     H1 8000   9.821   8.583   6.645
 2586WAT     H2 8001   9.836   8.652   6.793
 2587WAT      O 8002   7.384   6.493   3.179
 2587WAT     H1 8003   7.353   6.572   3.232
 2587WAT     H2 8004   7.324   6.479   3.100
 2588WAT      O 8005   2.380   7.938   9.888
 2588WAT     H1 8006   2.466   7.986   9.909
 2588WAT     H2 8007   2.384   7.903   9.794
 2589WAT      O 8008   3.253   6.704   0.049
 2589WAT     H1 8009   3.299   6.787   0.080
 2589WAT     H2 8010   3.163   6.697   0.093
 2590WAT      O 8011   3.693   4.629   3.559
 2590WAT     H1 8012   3.655   4.634   3.467
 2590WAT     H2 8013   3.745   4.712   3.579
 2591WAT      O 8014   1.425   6.454   5.690
 2591WAT     H1 8015   1.518   6.439   5.658
 2591WAT     H2 8016   1.362   6.397   5.637
 2592WAT      O 8017   2.037   3.862   8.079
 2592WAT     H1 8018   2.012   3.951   8.118
 2592WAT     H2 8019   2.083   3.876   7.992
 2593WAT      O 8020   0.603   2.774   3.119
 2593WAT     H1 8021   0.567   2.686   3.151
 2593WAT     H2 8022   0.660   2.759   3.039
 2594WAT      O 8023   3.043   7.445   7.771
 2594WAT     H1 8024   2.984   7.371   7.803
 2594WAT     H2 8025   3.121   7.406   7.721
 2595WAT      O 8026   6.041   9.330   4.005
 2595WAT     H1 8027   6.001   9.239   4.006
 2595WAT     H2 8028   5.973   9.396   4.037
 2596WAT      O 8029   8.590   7.146   1.231
 2596WAT     H1 8030   8.581   7.174   1.326
 2596WAT     H2 8031   8.686   7.153   1.202
 2597WAT      O 8032   1.008   9.427   0.063
 2597WAT     H1 8033   1.007   9.368  -0.017
 2597WAT     H2 8034   1.014   9.523   0.035
 2598WAT      O 8035   1.980   1.518   8.811
 2598WAT     H1 8036   1.929   1.588   8.762
 2598WAT     H2 8037   1.930   1.431   8.807
 2599WAT      O 8038   9.198   0.813   4.108
 2599WAT     H1 8039   9.243   0.738   4.058
 2599WAT     H2 8040   9.249   0.897   4.093
 2600WAT      O 8041   1.218   8.921   5.051
 2600WAT     H1 8042   1.232   8.880   5.141
 2600WAT     H2 8043   1.127   8.961   5.046
 2601WAT      O 8044   4.186   1.257   7.412
 2601WAT     H1 8045   4.137   1.295   7.333
 2601WAT     H2 8046   4.189   1.157   7.405
 2602WAT      O 8047   1.235   7.649   3.627
 2602WAT     H1 8048   1.313   7.679   3.571
 2602WAT     H2 8049   1.190   7.730   3.665
 2603WAT      O 8050   8.511   8.001   4.805
 2603WAT     H1 8051   8.521   8.030   4.900
 2603WAT     H2 8052   8.439   7.933   4.798
 2604WAT      O 8053   2.167   8.654   5.055
 2604WAT     H1 8054   2.194   8.688   4.965
 2604WAT     H2 8055   2.229   8.692   5.124
 2605WAT      O 8056   2.810   1.622   4.352
 2605WAT     H1 8057   2.738   1.572   4.304
 2605WAT     H2 8058   2.818   1.588   4.445
 2606WAT      O 8059   5.925   9.071   4.117
 2606WAT     H1 8060   5.857   9.028   4.057
 2606WAT     H2 8061   5.910   9.040   4.211
 2607WAT      O 8062   6.496   1.620   0.648
 2607WAT     H1 8063   6.525   1.531   0.683
 2607WAT     H2 8064   6.503   1.688   0.720
 2608WAT      O 8065   2.200   6.542   6.690
 2608WAT     H1 8066   2.155   6.630   6.674
 2608WAT     H2 8067   2.232   6.537   6.785
 2609WAT      O 8068   8.978   8.972   4.168
 2609WAT     H1 8069   9.054   8.926   4.122
 2609WAT     H2 8070   8.906   8.991   4.102
 2610WAT      O 8071   2.795   0.118   4.959
 2610WAT     H1 8072   2.709   0.096   4.912
 2610WAT     H2 8073   2.862   0.151   4.894
 2611WAT      O 8074   3.681   9.294   8.152
 2611WAT     H1 8075   3.676   9.213   8.209
 2611WAT     H2 8076   3.737   9.364   8.197
 2612WAT      O 8077   1.655   3.793   8.330
 2612WAT     H1 8078   1.591   3.868   8.347
 2612WAT     H2 8079   1.726   3.794   8.400
 2613WAT      O 8080   9.538   1.393   2.490
 2613WAT     H1 8081   9.561   1.343   2.406
 2613WAT     H2 8082   9.603   1.370   2.562
 2614WAT      O 8083   8.945   2.992   7.633
 2614WAT     H1 8084   8.915   2.919   7.694
 2614WAT     H2 8085   8.884   2.997   7.554
 2615WAT      O 8086   8.043   2.203   8.216
 2615WAT     H1 8087   8.002   2.122   8.173
 2615WAT     H2 8088   7.977   2.243   8.280
 2616WAT      O 8089   8.724   8.847   0.256
 2616WAT     H1 8090   8.683   8.821   0.343
 2616WAT     H2 8091   8.775   8.770   0.219
 2617WAT      O 8092   8.399   8.582   4.363
 2617WAT     H1 8093   8.390   8.504   4.302
 2617WAT     H2 8094   8.330   8.576   4.435
 2618WAT      O 8095   7.884   4.989   6.985
 2618WAT     H1 8096   7.839   5.066   6.939
 2618WAT     H2 8097   7.923   5.021   7.072
 2619WAT      O 8098   1.006   6.704   5.970
 2619WAT     H1 8099   0.916   6.711   6.012
 2619WAT     H2 8100   1.017   6.774   5.900
 2620WAT      O 8101   0.016   2.080   3.168
 2620WAT     H1 8102  -0.062   2.141   3.159
 2620WAT     H2 8103   0.085   2.104   3.100
 2621WAT      O 8104   7.093   9.733   7.944
 2621WAT     H1 8105   7.092   9.826   7.907
 2621WAT     H2 8106   7.186   9.697   7.940
 2622WAT      O 8107   0.403   7.703   1.171
 2622WAT     H1 8108   0.406   7.721   1.073
 2622WAT     H2 8109   0.315   7.662   1.195
 2623WAT      O 8110   8.339   4.788   0.512
 2623WAT     H1 8111   8.282   4.739   0.579
 2623WAT     H2 8112   8.291   4.791   0.424
 2624WAT      O 8113   5.994   1.011   7.628
 2624WAT     H1 8114   6.034   1.081   7.569
 2624WAT     H2 8115   5.958   0.937   7.571
 2625WAT      O 8116   1.246   7.124   0.813
 2625WAT     H1 8117   1.153   7.143   0.782
 2625WAT     H2 8118   1.243   7.071   0.898
 2626WAT      O 8119   6.524   0.360   6.610
 2626WAT     H1 8120   6.471   0.427   6.558
 2626WAT     H2 8121   6.533   0.276   6.557
 2627WAT      O 8122   9.760   7.099   7.533
 2627WAT     H1 8123   9.781   7.008   7.567
 2627WAT     H2 8124   9.789   7.167   7.600
 2628WAT      O 8125   2.126   9.244   2.575
 2628WAT     H1 8126   2.215   9.274   2.541
 2628WAT     H2 8127   2.071   9.323   2.599
 2629WAT      O 8128   7.287   6.186   4.154
 2629WAT     H1 8129   7.332   6.262   4.108
 2629WAT     H2 8130   7.355   6.130   4.201
 2630WAT      O 8131   4.667   5.905   7.519
 2630WAT     H1 8132   4.691   5.848   7.441
 2630WAT     H2 8133   4.576   5.880   7.552
 2631WAT      O 8134   6.366   7.597   6.548
 2631WAT     H1 8135   6.350   7.576   6.452
 2631WAT     H2 8136   6.283   7.581   6.601
 2632WAT      O 8137   3.213   7.804   3.364
 2632WAT     H1 8138   3.155   7.880   3.336
 2632WAT     H2 8139   3.178   7.719   3.324
 2633WAT      O 8140   0.696   0.945   5.895
 2633WAT     H1 8141   0.782   0.959   5.943
 2633WAT     H2 8142   0.644   0.872   5.939
 2634WAT      O 8143   9.742   5.891   9.678
 2634WAT     H1 8144   9.697   5.802   9.668
 2634WAT     H2 8145   9.717   5.932   9.765
 2635WAT      O 8146   7.814   7.246   3.394
 2635WAT     H1 8147   7.846   7.159   3.359
 2635WAT     H2 8148   7.727   7.233   3.442
 2636WAT      O 8149   7.294   8.264   7.783
 2636WAT     H1 8150   7.255   8.353   7.807
 2636WAT     H2 8151   7.348   8.273   7.700
 2637WAT      O 8152   4.258   7.876   3.084
 2637WAT     H1 8153   4.289   7.880   2.989
 2637WAT     H2 8154   4.325   7.825   3.139
 2638WAT      O 8155   1.664   5.025   4.999
 2638WAT     H1 8156   1.622   5.022   5.090
 2638WAT     H2 8157   1.596   5.051   4.932
 2639WAT      O 8158   2.354   4.298   8.794
 2639WAT     H1 8159   2.287   4.251   8.852
 2639WAT     H2 8160   2.349   4.396   8.810
 2640WAT      O 8161   3.164   1.794   9.158
 2640WAT     H1 8162   3.180   1.732   9.235
 2640WAT     H2 8163   3.250   1.813   9.112
 2641WAT      O 8164   4.006   4.455   2.103
 2641WAT     H1 8165   3.925   4.408   2.138
 2641WAT     H2 8166   4.023   4.538   2.156
 2642WAT      O 8167   0.783   4.014   7.164
 2642WAT     H1 8168   0.787   4.109   7.193
 2642WAT     H2 8169   0.743   3.958   7.237
 2643WAT      O 8170   8.518   7.429   3.458
 2643WAT     H1 8171   8.485   7.349   3.408
 2643WAT     H2 8172   8.527   7.406   3.555
 2644WAT      O 8173   4.461   7.029   5.621
 2644WAT     H1 8174   4.539   7.001   5.678
 2644WAT     H2 8175   4.438   6.957   5.557
 2645WAT      O 8176   0.633   6.614   5.442
 2645WAT     H1 8177   0.704   6.549   5.415
 2645WAT     H2 8178   0.670   6.707   5.434
 2646WAT      O 8179   0.242   1.965   4.228
 2646WAT     H1 8180   0.162   1.973   4.288
 2646WAT     H2 8181   0.275   2.056   4.205
 2647WAT      O 8182   5.837   8.803   4.305
 2647WAT     H1 8183   5.854   8.714   4.348
 2647WAT     H2 8184   5.914   8.865   4.325
 2648WAT      O 8185   0.640   8.582   7.343
 2648WAT     H1 8186   0.587   8.498   7.331
 2648WAT     H2 8187   0.737   8.560   7.345
 2649WAT      O 8188   5.926   2.208   2.950
 2649WAT     H1 8189   5.841   2.197   3.001
 2649WAT     H2 8190   6.003   2.181   3.008
 2650WAT      O 8191   6.818   8.294   4.810
 2650WAT     H1 8192   6.747   8.225   4.794
 2650WAT     H2 8193   6.888   8.286   4.740
 2651WAT      O 8194   4.211   4.859   8.884
 2651WAT     H1 8195   4.258   4.836   8.799
 2651WAT     H2 8196   4.263   4.929   8.933
 2652WAT      O 8197   2.331   3.087   8.589
 2652WAT     H1 8198   2.387   3.166   8.565
 2652WAT     H2 8199   2.280   3.057   8.509
 2653WAT      O 8200   5.131   2.862   6.894
 2653WAT     H1 8201   5.225   2.848   6.862
 2653WAT     H2 8202   5.072   2.791   6.856
 2654WAT      O 8203   5.266   1.356   5.849
 2654WAT     H1 8204   5.255   1.306   5.764
 2654WAT     H2 8205   5.332   1.430   5.836
 2655WAT      O 8206   5.203   8.280   7.172
 2655WAT     H1 8207   5.220   8.277   7.073
 2655WAT     H2 8208   5.178   8.188   7.203
 2656WAT      O 8209   5.249   1.446   8.361
 2656WAT     H1 8210   5.212   1.362   8.320
 2656WAT     H2 8211   5.175   1.511   8.376
 2657WAT      O 8212   2.378   2.079   9.579
 2657WAT     H1 8213   2.380   2.040   9.487
 2657WAT     H2 8214   2.466   2.122   9.599
 2658WAT      O 8215   8.176   3.666   1.051
 2658WAT     H1 8216   8.256   3.718   1.023
 2658WAT     H2 8217   8.113   3.658   0.974
 2659WAT      O 8218   7.333   1.518   4.844
 2659WAT     H1 8219   7.338   1.573   4.761
 2659WAT     H2 8220   7.391   1.437   4.833
 2660WAT      O 8221   0.323   2.837   1.464
 2660WAT     H1 8222   0.245   2.783   1.434
 2660WAT     H2 8223   0.324   2.925   1.417
 2661WAT      O 8224   1.583   4.174   0.104
 2661WAT     H1 8225   1.622   4.235   0.034
 2661WAT     H2 8226   1.625   4.194   0.193
 2662WAT      O 8227   0.612   0.336   3.233
 2662WAT     H1 8228   0.546   0.403   3.267
 2662WAT     H2 8229   0.590   0.245   3.267
 2663WAT      O 8230   8.103   5.551   9.117
 2663WAT     H1 8231   8.141   5.643   9.128
 2663WAT     H2 8232   8.009   5.550   9.153
 2664WAT      O 8233   1.096   1.042   9.083
 2664WAT     H1 8234   1.131   1.047   9.176
 2664WAT     H2 8235   1.005   1.000   9.084
 2665WAT      O 8236   5.245   6.939   0.468
 2665WAT     H1 8237   5.341   6.919   0.492
 2665WAT     H2 8238   5.212   6.870   0.405
 2666WAT      O 8239   4.523   8.794   8.543
 2666WAT     H1 8240   4.426   8.814   8.534
 2666WAT     H2 8241   4.576   8.874   8.514
 2667WAT      O 8242   7.529   6.493   4.752
 2667WAT     H1 8243   7.573   6.407   4.780
 2667WAT     H2 8244   7.447   6.472   4.698
 2668WAT      O 8245   1.214   0.619   5.945
 2668WAT     H1 8246   1.178   0.712   5.945
 2668WAT     H2 8247   1.231   0.589   6.039
 2669WAT      O 8248   4.124   4.576   9.884
 2669WAT     H1 8249   4.199   4.517   9.852
 2669WAT     H2 8250   4.149   4.617   9.972
 2670WAT      O 8251   0.047   7.436   5.380
 2670WAT     H1 8252   0.006   7.416   5.291
 2670WAT     H2 8253   0.136   7.479   5.367
 2671WAT      O 8254   2.622   7.422   3.583
 2671WAT     H1 8255   2.713   7.436   3.622
 2671WAT     H2 8256   2.613   7.326   3.554
 2672WAT      O 8257   5.895   4.010   2.321
 2672WAT     H1 8258   5.824   4.081   2.324
 2672WAT     H2 8259   5.967   4.038   2.257
 2673WAT      O 8260   2.823   7.168   0.663
 2673WAT     H1 8261   2.863   7.136   0.577
 2673WAT     H2 8262   2.896   7.187   0.728
 2674WAT      O 8263   2.644   3.436   1.234
 2674WAT     H1 8264   2.705   3.385   1.295
 2674WAT     H2 8265   2.693   3.458   1.150
 2675WAT      O 8266   8.220   4.853   7.879
 2675WAT     H1 8267   8.166   4.789   7.934
 2675WAT     H2 8268   8.317   4.846   7.905
 2676WAT      O 8269   6.281   2.583   9.305
 2676WAT     H1 8270   6.328   2.508   9.259
 2676WAT     H2 8271   6.202   2.547   9.355
 2677WAT      O 8272   0.308   0.395   0.601
 2677WAT     H1 8273   0.329   0.411   0.505
 2677WAT     H2 8274   0.268   0.304   0.612
 2678WAT      O 8275   5.692   3.314   2.089
 2678WAT     H1 8276   5.715   3.411   2.086
 2678WAT     H2 8277   5.773   3.260   2.112
 2679WAT      O 8278   1.980   7.031   4.470
 2679WAT     H1 8279   2.020   7.121   4.451
 2679WAT     H2 8280   2.015   6.996   4.557
 2680WAT      O 8281   2.712   1.493   4.993
 2680WAT     H1 8282   2.617   1.488   5.023
 2680WAT     H2 8283   2.763   1.416   5.032
 2681WAT      O 8284   4.125   6.737   3.034
 2681WAT     H1 8285   4.178   6.806   2.985
 2681WAT     H2 8286   4.074   6.781   3.108
 2682WAT      O 8287   6.090   4.108   6.520
 2682WAT     H1 8288   6.014   4.120   6.584
 2682WAT     H2 8289   6.064   4.142   6.430
 2683WAT      O 8290   8.584   6.648   4.974
 2683WAT     H1 8291   8.684   6.646   4.977
 2683WAT     H2 8292   8.553   6.620   4.883
 2684WAT      O 8293   8.071   2.713   5.221
 2684WAT     H1 8294   8.036   2.677   5.308
 2684WAT     H2 8295   8.113   2.802   5.236
 2685WAT      O 8296   0.448   4.547   0.063
 2685WAT     H1 8297   0.407   4.534  -0.028
 2685WAT     H2 8298   0.401   4.622   0.110
 2686WAT      O 8299   2.177   3.559   0.727
 2686WAT     H1 8300   2.188   3.503   0.809
 2686WAT     H2 8301   2.164   3.499   0.648
 2687WAT      O 8302   6.868   7.912   4.609
 2687WAT     H1 8303   6.892   7.969   4.530
 2687WAT     H2 8304   6.774   7.933   4.637
 2688WAT      O 8305   3.360   5.213   1.927
 2688WAT     H1 8306   3.447   5.165   1.915
 2688WAT     H2 8307   3.289   5.147   1.949
 2689WAT      O 8308   7.158   6.041   1.765
 2689WAT     H1 8309   7.148   6.057   1.863
 2689WAT     H2 8310   7.100   5.964   1.737
 2690WAT      O 8311   2.552   9.782   1.506
 2690WAT     H1 8312   2.471   9.751   1.456
 2690WAT     H2 8313   2.589   9.864   1.463
 2691WAT      O 8314   5.121   0.914   3.157
 2691WAT     H1 8315   5.124   0.948   3.251
 2691WAT     H2 8316   5.129   0.991   3.093
 2692WAT      O 8317   2.408   4.268   1.471
 2692WAT     H1 8318   2.479   4.218   1.521
 2692WAT     H2 8319   2.431   4.271   1.374
 2693WAT      O 8320   5.878   8.295   6.227
 2693WAT     H1 8321   5.974   8.312   6.204
 2693WAT     H2 8322   5.840   8.229   6.163
 2694WAT      O 8323   7.414   9.145   0.892
 2694WAT     H1 8324   7.440   9.190   0.978
 2694WAT     H2 8325   7.497   9.115   0.845
 2695WAT      O 8326   8.158   0.865   8.724
 2695WAT     H1 8327   8.158   0.915   8.810
 2695WAT     H2 8328   8.201   0.921   8.653
 2696WAT      O 8329   1.549   0.688   9.373
 2696WAT     H1 8330   1.461   0.718   9.336
 2696WAT     H2 8331   1.549   0.588   9.382
 2697WAT      O 8332   4.940   9.412   0.137
 2697WAT     H1 8333   4.881   9.342   0.096
 2697WAT     H2 8334   4.951   9.395   0.234
 2698WAT      O 8335   2.555   6.937   7.977
 2698WAT     H1 8336   2.527   7.027   7.944
 2698WAT     H2 8337   2.557   6.872   7.901
 2699WAT      O 8338   6.156   7.478   4.980
 2699WAT     H1 8339   6.173   7.405   5.047
 2699WAT     H2 8340   6.071   7.458   4.932
 2700WAT      O 8341   2.810   4.266   4.875
 2700WAT     H1 8342   2.835   4.361   4.857
 2700WAT     H2 8343   2.727   4.263   4.931
 2701WAT      O 8344   6.641   5.810   0.697
 2701WAT     H1 8345   6.739   5.832   0.702
 2701WAT     H2 8346   6.596   5.871   0.633
 2702WAT      O 8347   8.216   1.269   0.105
 2702WAT     H1 8348   8.201   1.368   0.105
 2702WAT     H2 8349   8.128   1.222   0.110
 2703WAT      O 8350   3.347   8.643   2.840
 2703WAT     H1 8351   3.421   8.681   2.785
 2703WAT     H2 8352   3.342   8.544   2.827
 2704WAT      O 8353   0.196   0.621   1.254
 2704WAT     H1 8354   0.191   0.599   1.156
 2704WAT     H2 8355   0.224   0.716   1.265
 2705WAT      O 8356   0.187   9.525   3.340
 2705WAT     H1 8357   0.282   9.523   3.372
 2705WAT     H2 8358   0.177   9.464   3.262
 2706WAT      O 8359   9.680   8.730   0.405
 2706WAT     H1 8360   9.584   8.752   0.424
 2706WAT     H2 8361   9.714   8.667   0.475
 2707WAT      O 8362   6.095   6.184   9.658
 2707WAT     H1 8363   6.012   6.128   9.657
 2707WAT     H2 8364   6.162   6.146   9.594
 2708WAT      O 8365   8.043   3.015   9.364
 2708WAT     H1 8366   8.052   3.095   9.424
 2708WAT     H2 8367   8.071   2.933   9.414
 2709WAT      O 8368   6.975   1.800   3.036
 2709WAT     H1 8369   6.898   1.844   3.082
 2709WAT     H2 8370   7.044   1.773   3.104
 2710WAT      O 8371   2.725   9.004   9.513
 2710WAT     H1 8372   2.643   8.947   9.510
 2710WAT     H2 8373   2.774   8.988   9.599
 2711WAT      O 8374   2.927   2.838   3.000
 2711WAT     H1 8375   2.979   2.910   2.952
 2711WAT     H2 8376   2.861   2.880   3.062
 2712WAT      O 8377   8.708   8.417   6.131
 2712WAT     H1 8378   8.638   8.347   6.146
 2712WAT     H2 8379   8.789   8.395   6.185
 2713WAT      O 8380   1.359   4.908   9.804
 2713WAT     H1 8381   1.436   4.896   9.866
 2713WAT     H2 8382   1.392   4.904   9.709
 2714WAT      O 8383   4.725   0.074   7.329
 2714WAT     H1 8384   4.687   0.031   7.247
 2714WAT     H2 8385   4.654   0.130   7.373
 2715WAT      O 8386   8.237   9.742   4.311
 2715WAT     H1 8387   8.251   9.721   4.408
 2715WAT     H2 8388   8.201   9.661   4.264
 2716WAT      O 8389   3.769   7.301   0.621
 2716WAT     H1 8390   3.868   7.311   0.628
 2716WAT     H2 8391   3.724   7.386   0.651
 2717WAT      O 8392   2.055   1.571   7.652
 2717WAT     H1 8393   2.070   1.632   7.575
 2717WAT     H2 8394   2.090   1.480   7.630
 2718WAT      O 8395   4.503   0.663   7.961
 2718WAT     H1 8396   4.478   0.759   7.970
 2718WAT     H2 8397   4.448   0.621   7.888
 2719WAT      O 8398   9.102   6.443   2.276
 2719WAT     H1 8399   9.147   6.532   2.267
 2719WAT     H2 8400   9.170   6.371   2.286
 2720WAT      O 8401   5.134   8.027   8.562
 2720WAT     H1 8402   5.095   7.937   8.542
 2720WAT     H2 8403   5.192   8.021   8.643
 2721WAT      O 8404   6.382   8.547   2.601
 2721WAT     H1 8405   6.333   8.632   2.579
 2721WAT     H2 8406   6.406   8.500   2.517
 2722WAT      O 8407   0.836   8.307   0.888
 2722WAT     H1 8408   0.763   8.374   0.880
 2722WAT     H2 8409   0.813   8.225   0.836
 2723WAT      O 8410   7.983   8.050   6.468
 2723WAT     H1 8411   7.982   8.149   6.479
 2723WAT     H2 8412   7.890   8.016   6.458
 2724WAT      O 8413   7.395   3.900   9.547
 2724WAT     H1 8414   7.386   3.953   9.631
 2724WAT     H2 8415   7.462   3.827   9.562
 2725WAT      O 8416   7.542   4.001   6.340
 2725WAT     H1 8417   7.444   3.996   6.359
 2725WAT     H2 8418   7.559   4.068   6.267
 2726WAT      O 8419   7.984   3.967   7.548
 2726WAT     H1 8420   8.015   3.894   7.487
 2726WAT     H2 8421   7.937   3.927   7.627
 2727WAT      O 8422   8.674   6.000   6.688
 2727WAT     H1 8423   8.590   6.007   6.636
 2727WAT     H2 8424   8.728   6.084   6.675
 2728WAT      O 8425   5.514   3.544   3.363
 2728WAT     H1 8426   5.415   3.536   3.353
 2728WAT     H2 8427   5.546   3.626   3.317
 2729WAT      O 8428   9.511   3.054   7.438
 2729WAT     H1 8429   9.497   2.975   7.379
 2729WAT     H2 8430   9.560   3.025   7.521
 2730WAT      O 8431   0.372   2.389   0.570
 2730WAT     H1 8432   0.309   2.467   0.570
 2730WAT     H2 8433   0.386   2.357   0.664
 2731WAT      O 8434   2.830   6.598   4.456
 2731WAT     H1 8435   2.817   6.697   4.456
 2731WAT     H2 8436   2.836   6.565   4.362
 2732WAT      O 8437   6.263   4.047   3.537
 2732WAT     H1 8438   6.290   4.107   3.611
 2732WAT     H2 8439   6.297   3.954   3.555
 2733WAT      O 8440   3.725   0.183   8.899
 2733WAT     H1 8441   3.631   0.153   8.916
 2733WAT     H2 8442   3.752   0.155   8.806
 2734WAT      O 8443   7.253   4.759   2.125
 2734WAT     H1 8444   7.212   4.845   2.154
 2734WAT     H2 8445   7.184   4.687   2.122
 2735WAT      O 8446   4.502   1.646   1.744
 2735WAT     H1 8447   4.423   1.675   1.798
 2735WAT     H2 8448   4.479   1.562   1.695
 2736WAT      O 8449   0.909   0.021   2.951
 2736WAT     H1 8450   0.905  -0.011   2.856
 2736WAT     H2 8451   0.836   0.088   2.967
 2737WAT      O 8452   6.237   3.218   5.922
 2737WAT     H1 8453   6.148   3.183   5.892
 2737WAT     H2 8454   6.242   3.316   5.906
 2738WAT      O 8455   0.000   7.546   7.751
 2738WAT     H1 8456  -0.040   7.544   7.843
 2738WAT     H2 8457   0.079   7.607   7.751
 2739WAT      O 8458   0.817   7.880   9.337
 2739WAT     H1 8459   0.913   7.903   9.321
 2739WAT     H2 8460   0.811   7.787   9.374
 2740WAT      O 8461   0.459   7.317   8.340
 2740WAT     H1 8462   0.550   7.276   8.351
 2740WAT     H2 8463   0.465   7.416   8.354
 2741WAT      O 8464   1.571   8.908   3.759
 2741WAT     H1 8465   1.641   8.976   3.736
 2741WAT     H2 8466   1.520   8.884   3.676
 2742WAT      O 8467   6.979   8.996   9.321
 2742WAT     H1 8468   6.985   9.077   9.264
 2742WAT     H2 8469   6.895   9.000   9.376
 2743WAT      O 8470   7.394   0.654   4.400
 2743WAT     H1 8471   7.423   0.559   4.398
 2743WAT     H2 8472   7.441   0.705   4.329
 2744WAT      O 8473   6.212   7.061   2.082
 2744WAT     H1 8474   6.222   7.009   1.998
 2744WAT     H2 8475   6.286   7.039   2.145
 2745WAT      O 8476   2.179   4.574   5.904
 2745WAT     H1 8477   2.274   4.545   5.916
 2745WAT     H2 8478   2.146   4.615   5.988
 2746WAT      O 8479   0.070   4.678   0.551
 2746WAT     H1 8480   0.012   4.647   0.475
 2746WAT     H2 8481   0.108   4.768   0.530
 2747WAT      O 8482   4.566   5.379   3.234
 2747WAT     H1 8483   4.632   5.433   3.287
 2747WAT     H2 8484   4.505   5.440   3.185
 2748WAT      O 8485   2.734   6.668   2.278
 2748WAT     H1 8486   2.741   6.732   2.355
 2748WAT     H2 8487   2.694   6.716   2.200
 2749WAT      O 8488   7.473   8.065   0.526
 2749WAT     H1 8489   7.454   8.125   0.448
 2749WAT     H2 8490   7.425   7.978   0.513
 2750WAT      O 8491   2.044   9.757   4.373
 2750WAT     H1 8492   1.966   9.701   4.346
 2750WAT     H2 8493   2.093   9.712   4.447
 2751WAT      O 8494   2.285   3.551   1.173
 2751WAT     H1 8495   2.355   3.578   1.107
 2751WAT     H2 8496   2.308   3.462   1.212
 2752WAT      O 8497   1.432   5.752   7.518
 2752WAT     H1 8498   1.484   5.794   7.592
 2752WAT     H2 8499   1.445   5.653   7.520
 2753WAT      O 8500   9.166   6.124   0.064
 2753WAT     H1 8501   9.123   6.081   0.144
 2753WAT     H2 8502   9.128   6.083  -0.019
 2754WAT      O 8503   1.818   1.972   2.527
 2754WAT     H1 8504   1.794   1.900   2.593
 2754WAT     H2 8505   1.836   1.930   2.438
 2755WAT      O 8506   8.331   8.268   2.705
 2755WAT     H1 8507   8.254   8.309   2.656
 2755WAT     H2 8508   8.338   8.171   2.680
 2756WAT      O 8509   3.890   1.629   5.985
 2756WAT     H1 8510   3.867   1.533   5.971
 2756WAT     H2 8511   3.850   1.685   5.913
 2757WAT      O 8512   4.484   8.174   5.568
 2757WAT     H1 8513   4.521   8.246   5.626
 2757WAT     H2 8514   4.424   8.114   5.621
 2758WAT      O 8515   2.727   3.496   9.607
 2758WAT     H1 8516   2.682   3.586   9.607
 2758WAT     H2 8517   2.729   3.461   9.701
 2759WAT      O 8518   0.900   4.294   8.679
 2759WAT     H1 8519   0.892   4.211   8.735
 2759WAT     H2 8520   0.914   4.373   8.738
 2760WAT      O 8521   5.425   4.309   2.295
 2760WAT     H1 8522   5.422   4.228   2.354
 2760WAT     H2 8523   5.350   4.305   2.229
 2761WAT      O 8524   8.770   6.063   0.358
 2761WAT     H1 8525   8.791   6.157   0.384
 2761WAT     H2 8526   8.736   6.060   0.264
 2762WAT      O 8527   1.385   0.613   3.186
 2762WAT     H1 8528   1.420   0.610   3.280
 2762WAT     H2 8529   1.438   0.680   3.134
 2763WAT      O 8530   9.692   6.820   0.150
 2763WAT     H1 8531   9.596   6.841   0.168
 2763WAT     H2 8532   9.699   6.732   0.104
 2764WAT      O 8533   4.548   2.237   8.619
 2764WAT     H1 8534   4.462   2.239   8.569
 2764WAT     H2 8535   4.544   2.302   8.695
 2765WAT      O 8536   7.240   8.552   9.692
 2765WAT     H1 8537   7.165   8.618   9.702
 2765WAT     H2 8538   7.210   8.462   9.723
 2766WAT      O 8539   2.146   6.210   6.914
 2766WAT     H1 8540   2.194   6.243   6.996
 2766WAT     H2 8541   2.063   6.263   6.902
 2767WAT      O 8542   3.706   1.088   0.859
 2767WAT     H1 8543   3.771   1.064   0.787
 2767WAT     H2 8544   3.710   1.187   0.875
 2768WAT      O 8545   4.508   4.128   1.048
 2768WAT     H1 8546   4.597   4.092   1.020
 2768WAT     H2 8547   4.443   4.117   0.974
 2769WAT      O 8548   8.438   8.891   8.064
 2769WAT     H1 8549   8.492   8.927   7.988
 2769WAT     H2 8550   8.394   8.806   8.036
 2770WAT      O 8551   5.060   9.301   2.314
 2770WAT     H1 8552   5.020   9.329   2.402
 2770WAT     H2 8553   5.007   9.340   2.239
 2771WAT      O 8554   9.258   1.094   7.206
 2771WAT     H1 8555   9.182   1.092   7.271
 2771WAT     H2 8556   9.309   1.008   7.212
 2772WAT      O 8557   6.489   7.477   5.090
 2772WAT     H1 8558   6.407   7.420   5.083
 2772WAT     H2 8559   6.484   7.532   5.173
 2773WAT      O 8560   6.791   1.448   0.622
 2773WAT     H1 8561   6.885   1.479   0.635
 2773WAT     H2 8562   6.774   1.431   0.525
 2774WAT      O 8563   3.281   4.188   9.232
 2774WAT     H1 8564   3.220   4.167   9.155
 2774WAT     H2 8565   3.332   4.272   9.212
 2775WAT      O 8566   3.550   6.897   3.390
 2775WAT     H1 8567   3.611   6.975   3.373
 2775WAT     H2 8568   3.456   6.923   3.370
 2776WAT      O 8569   3.553   4.162   2.987
 2776WAT     H1 8570   3.494   4.238   2.961
 2776WAT     H2 8571   3.621   4.146   2.915
 2777WAT      O 8572   8.317   2.249   2.016
 2777WAT     H1 8573   8.415   2.238   2.026
 2777WAT     H2 8574   8.272   2.160   2.022
 2778WAT      O 8575   8.751   2.027   9.550
 2778WAT     H1 8576   8.692   2.105   9.528
 2778WAT     H2 8577   8.714   1.944   9.508
 2779WAT      O 8578   0.436   0.549   3.324
 2779WAT     H1 8579   0.399   0.641   3.339
 2779WAT     H2 8580   0.401   0.514   3.237
 2780WAT      O 8581   4.000   0.353   5.428
 2780WAT     H1 8582   3.932   0.349   5.354
 2780WAT     H2 8583   4.021   0.449   5.448
 2781WAT      O 8584   0.177   7.811   0.311
 2781WAT     H1 8585   0.114   7.860   0.371
 2781WAT     H2 8586   0.210   7.872   0.240
 2782WAT      O 8587   6.723   9.602   3.445
 2782WAT     H1 8588   6.687   9.608   3.538
 2782WAT     H2 8589   6.650   9.625   3.380
 2783WAT      O 8590   0.471   2.950   9.086
 2783WAT     H1 8591   0.511   2.937   9.177
 2783WAT     H2 8592   0.459   3.048   9.069
 2784WAT      O 8593   4.279   8.085   2.135
 2784WAT     H1 8594   4.287   8.005   2.076
 2784WAT     H2 8595   4.332   8.071   2.219
 2785WAT      O 8596   7.312   4.276   9.485
 2785WAT     H1 8597   7.266   4.296   9.571
 2785WAT     H2 8598   7.332   4.362   9.437
 2786WAT      O 8599   9.150   7.891   1.628
 2786WAT     H1 8600   9.239   7.891   1.674
 2786WAT     H2 8601   9.078   7.911   1.695
 2787WAT      O 8602   8.680   1.854   2.095
 2787WAT     H1 8603   8.768   1.878   2.137
 2787WAT     H2 8604   8.662   1.915   2.017
 2788WAT      O 8605   9.394   5.822   2.355
 2788WAT     H1 8606   9.446   5.788   2.433
 2788WAT     H2 8607   9.343   5.747   2.314
 2789WAT      O 8608   8.950   1.626   5.044
 2789WAT     H1 8609   8.970   1.564   4.968
 2789WAT     H2 8610   8.862   1.602   5.085
 2790WAT      O 8611   0.644   0.210   7.756
 2790WAT     H1 8612   0.661   0.119   7.719
 2790WAT     H2 8613   0.597   0.265   7.687
 2791WAT      O 8614   8.838   9.765   8.246
 2791WAT     H1 8615   8.831   9.740   8.343
 2791WAT     H2 8616   8.824   9.684   8.189
 2792WAT      O 8617   6.750   0.477   9.677
 2792WAT     H1 8618   6.656   0.472   9.711
 2792WAT     H2 8619   6.763   0.408   9.606
 2793WAT      O 8620   7.352   5.495   7.561
 2793WAT     H1 8621   7.372   5.480   7.464
 2793WAT     H2 8622   7.405   5.432   7.617
 2794WAT      O 8623   7.874   3.585   8.769
 2794WAT     H1 8624   7.890   3.680   8.743
 2794WAT     H2 8625   7.830   3.537   8.693
 2795WAT      O 8626   5.773   4.739   1.631
 2795WAT     H1 8627   5.830   4.697   1.561
 2795WAT     H2 8628   5.796   4.836   1.639
 2796WAT      O 8629   6.254   2.550   6.600
 2796WAT     H1 8630   6.278   2.511   6.511
 2796WAT     H2 8631   6.248   2.477   6.668
 2797WAT      O 8632   8.723   7.219   8.758
 2797WAT     H1 8633   8.764   7.131   8.734
 2797WAT     H2 8634   8.745   7.286   8.687
 2798WAT      O 8635   0.436   6.075   6.883
 2798WAT     H1 8636   0.409   6.077   6.979
 2798WAT     H2 8637   0.408   6.161   6.839
 2799WAT      O 8638   6.416   1.531   5.734
 2799WAT     H1 8639   6.507   1.567   5.753
 2799WAT     H2 8640   6.347   1.592   5.773
 2800WAT      O 8641   8.141   5.605   2.043
 2800WAT     H1 8642   8.046   5.578   2.029
 2800WAT     H2 8643   8.145   5.677   2.113
 2801WAT      O 8644   3.061   6.983   9.009
 2801WAT     H1 8645   3.110   6.897   9.017
 2801WAT     H2 8646   3.102   7.051   9.070
 2802WAT      O 8647   7.031   2.882   4.972
 2802WAT     H1 8648   7.104   2.888   5.039
 2802WAT     H2 8649   6.964   2.955   4.988
 2803WAT      O 8650   2.319   7.648   5.187
 2803WAT     H1 8651   2.223   7.641   5.214
 2803WAT     H2 8652   2.326   7.649   5.088
 2804WAT      O 8653   7.709   5.131   0.720
 2804WAT     H1 8654   7.660   5.045   0.735
 2804WAT     H2 8655   7.800   5.111   0.684
 2805WAT      O 8656   0.196   6.583   1.588
 2805WAT     H1 8657   0.188   6.484   1.578
 2805WAT     H2 8658   0.134   6.628   1.523
 2806WAT      O 8659   7.670   1.505   2.701
 2806WAT     H1 8660   7.694   1.582   2.760
 2806WAT     H2 8661   7.571   1.497   2.694
 2807WAT      O 8662   3.929   4.997   8.488
 2807WAT     H1 8663   3.950   4.954   8.400
 2807WAT     H2 8664   3.878   5.081   8.472
 2808WAT      O 8665   4.344   6.383   9.799
 2808WAT     H1 8666   4.361   6.443   9.877
 2808WAT     H2 8667   4.319   6.292   9.832
 2809WAT      O 8668   4.879   7.030   4.913
 2809WAT     H1 8669   4.960   7.082   4.885
 2809WAT     H2 8670   4.882   6.939   4.871
 2810WAT      O 8671   0.863   3.432   9.262
 2810WAT     H1 8672   0.772   3.424   9.303
 2810WAT     H2 8673   0.927   3.470   9.329
 2811WAT      O 8674   3.728   3.511   4.309
 2811WAT     H1 8675   3.797   3.553   4.249
 2811WAT     H2 8676   3.729   3.412   4.297
 2812WAT      O 8677   1.837   4.065   9.830
 2812WAT     H1 8678   1.752   4.029   9.792
 2812WAT     H2 8679   1.903   4.080   9.757
 2813WAT      O 8680   6.115   4.112   8.719
 2813WAT     H1 8681   6.025   4.079   8.692
 2813WAT     H2 8682   6.184   4.043   8.697
 2814WAT      O 8683   8.322   4.541   7.135
 2814WAT     H1 8684   8.404   4.497   7.170
 2814WAT     H2 8685   8.261   4.473   7.094
 2815WAT      O 8686   6.119   6.873   4.377
 2815WAT     H1 8687   6.184   6.935   4.422
 2815WAT     H2 8688   6.079   6.812   4.444
 2816WAT      O 8689   7.940   6.582   6.693
 2816WAT     H1 8690   7.945   6.586   6.593
 2816WAT     H2 8691   7.848   6.608   6.723
 2817WAT      O 8692   8.486   0.440   4.752
 2817WAT     H1 8693   8.411   0.373   4.750
 2817WAT     H2 8694   8.482   0.497   4.670
 2818WAT      O 8695   4.233   5.314   1.085
 2818WAT     H1 8696   4.326   5.335   1.054
 2818WAT     H2 8697   4.226   5.216   1.105
 2819WAT      O 8698   3.956   8.365   6.155
 2819WAT     H1 8699   3.882   8.361   6.222
 2819WAT     H2 8700   4.041   8.392   6.201
 2820WAT      O 8701   9.273   2.882   0.009
 2820WAT     H1 8702   9.194   2.853   0.064
 2820WAT     H2 8703   9.356   2.841   0.047
 2821WAT      O 8704   0.839   4.940   1.737
 2821WAT     H1 8705   0.789   4.879   1.798
 2821WAT     H2 8706   0.799   5.032   1.742
 2822WAT      O 8707   7.912   7.208   2.671
 2822WAT     H1 8708   7.879   7.125   2.625
 2822WAT     H2 8709   7.998   7.188   2.718
 2823WAT      O 8710   7.903   4.658   8.083
 2823WAT     H1 8711   7.841   4.725   8.042
 2823WAT     H2 8712   7.849   4.582   8.120
 2824WAT      O 8713   0.765   2.857   7.274
 2824WAT     H1 8714   0.791   2.778   7.330
 2824WAT     H2 8715   0.666   2.869   7.277
 2825WAT      O 8716   1.363   4.104   6.661
 2825WAT     H1 8717   1.315   4.033   6.712
 2825WAT     H2 8718   1.387   4.178   6.723
 2826WAT      O 8719   2.297   9.648   5.154
 2826WAT     H1 8720   2.251   9.733   5.128
 2826WAT     H2 8721   2.272   9.623   5.247
 2827WAT      O 8722   5.032   3.354   7.995
 2827WAT     H1 8723   4.989   3.346   8.085
 2827WAT     H2 8724   5.085   3.272   7.976
 2828WAT      O 8725   0.318   4.556   4.352
 2828WAT     H1 8726   0.232   4.591   4.388
 2828WAT     H2 8727   0.373   4.518   4.428
 2829WAT      O 8728   9.846   2.536   3.807
 2829WAT     H1 8729   9.862   2.633   3.824
 2829WAT     H2 8730   9.769   2.525   3.744
 2830WAT      O 8731   3.360   1.566   7.511
 2830WAT     H1 8732   3.360   1.610   7.601
 2830WAT     H2 8733   3.350   1.468   7.521
 2831WAT      O 8734   3.175   5.612   5.167
 2831WAT     H1 8735   3.224   5.684   5.118
 2831WAT     H2 8736   3.133   5.550   5.102
 2832WAT      O 8737   8.622   4.547   2.610
 2832WAT     H1 8738   8.624   4.577   2.706
 2832WAT     H2 8739   8.556   4.602   2.559
 2833WAT      O 8740   7.950   8.688   0.288
 2833WAT     H1 8741   7.907   8.757   0.346
 2833WAT     H2 8742   8.018   8.638   0.341
 2834WAT      O 8743   7.664   9.468   2.078
 2834WAT     H1 8744   7.614   9.513   2.004
 2834WAT     H2 8745   7.697   9.379   2.048
 2835WAT      O 8746   9.520   1.190   4.663
 2835WAT     H1 8747   9.530   1.166   4.567
 2835WAT     H2 8748   9.565   1.121   4.720
 2836WAT      O 8749   0.247   0.046   4.328
 2836WAT     H1 8750   0.255  -0.045   4.287
 2836WAT     H2 8751   0.279   0.115   4.262
 2837WAT      O 8752   5.268   7.843   3.550
 2837WAT     H1 8753   5.344   7.876   3.494
 2837WAT     H2 8754   5.189   7.823   3.492
 2838WAT      O 8755   6.548   9.692   8.306
 2838WAT     H1 8756   6.590   9.744   8.380
 2838WAT     H2 8757   6.580   9.727   8.218
 2839WAT      O 8758   5.923   3.994   4.304
 2839WAT     H1 8759   5.975   3.909   4.297
 2839WAT     H2 8760   5.884   4.017   4.215
 2840WAT      O 8761   3.601   3.601   5.656
 2840WAT     H1 8762   3.552   3.686   5.675
 2840WAT     H2 8763   3.616   3.551   5.741
 2841WAT      O 8764   9.769   0.805   6.043
 2841WAT     H1 8765   9.786   0.717   6.087
 2841WAT     H2 8766   9.835   0.872   6.077
 2842WAT      O 8767   0.722   8.115   3.953
 2842WAT     H1 8768   0.734   8.099   4.051
 2842WAT     H2 8769   0.758   8.037   3.901
 2843WAT      O 8770   9.335   4.861   5.673
 2843WAT     H1 8771   9.257   4.814   5.715
 2843WAT     H2 8772   9.420   4.819   5.704
 2844WAT      O 8773   7.577   2.346   0.315
 2844WAT     H1 8774   7.583   2.444   0.297
 2844WAT     H2 8775   7.623   2.295   0.242
 2845WAT      O 8776   7.812   7.664   6.584
 2845WAT     H1 8777   7.899   7.660   6.633
 2845WAT     H2 8778   7.799   7.756   6.547
 2846WAT      O 8779   1.688   5.608   3.035
 2846WAT     H1 8780   1.671   5.562   2.947
 2846WAT     H2 8781   1.615   5.674   3.052
 2847WAT      O 8782   9.759   1.787   2.451
 2847WAT     H1 8783   9.793   1.778   2.545
 2847WAT     H2 8784   9.665   1.753   2.446
 2848WAT      O 8785   3.356   6.088   8.471
 2848WAT     H1 8786   3.429   6.156   8.475
 2848WAT     H2 8787   3.380   6.010   8.529
 2849WAT      O 8788   8.921   4.580   3.703
 2849WAT     H1 8789   9.008   4.629   3.712
 2849WAT     H2 8790   8.874   4.609   3.620
 2850WAT      O 8791   0.814   9.324   6.167
 2850WAT     H1 8792   0.890   9.329   6.232
 2850WAT     H2 8793   0.807   9.232   6.130
 2851WAT      O 8794   6.236   0.435   8.771
 2851WAT     H1 8795   6.281   0.372   8.708
 2851WAT     H2 8796   6.264   0.414   8.865
 2852WAT      O 8797   0.723   1.681   6.477
 2852WAT     H1 8798   0.716   1.780   6.473
 2852WAT     H2 8799   0.820   1.655   6.476
 2853WAT      O 8800   6.168   2.246   4.814
 2853WAT     H1 8801   6.147   2.150   4.791
 2853WAT     H2 8802   6.102   2.306   4.769
 2854WAT      O 8803   4.228   0.585   0.429
 2854WAT     H1 8804   4.237   0.629   0.518
 2854WAT     H2 8805   4.194   0.491   0.441
 2855WAT      O 8806   3.978   2.543   4.024
 2855WAT     H1 8807   4.033   2.535   3.941
 2855WAT     H2 8808   4.029   2.505   4.102
 2856WAT      O 8809   6.493   7.364   4.156
 2856WAT     H1 8810   6.472   7.409   4.243
 2856WAT     H2 8811   6.592   7.359   4.144
 2857WAT      O 8812   1.253   7.175   3.646
 2857WAT     H1 8813   1.320   7.249   3.649
 2857WAT     H2 8814   1.229   7.148   3.739
 2858WAT      O 8815   1.626   8.444   2.345
 2858WAT     H1 8816   1.669   8.485   2.265
 2858WAT     H2 8817   1.653   8.349   2.354
 2859WAT      O 8818   3.100   6.553   8.282
 2859WAT     H1 8819   3.130   6.551   8.186
 2859WAT     H2 8820   3.180   6.540   8.341
 2860WAT      O 8821   6.568   8.968   5.210
 2860WAT     H1 8822   6.642   8.945   5.273
 2860WAT     H2 8823   6.518   9.047   5.244
 2861WAT      O 8824   8.167   8.100   1.223
 2861WAT     H1 8825   8.150   8.002   1.228
 2861WAT     H2 8826   8.247   8.123   1.279
 2862WAT      O 8827   9.483   0.784   6.660
 2862WAT     H1 8828   9.506   0.816   6.568
 2862WAT     H2 8829   9.452   0.862   6.715
 2863WAT      O 8830   0.092   7.161   4.726
 2863WAT     H1 8831   0.008   7.201   4.691
 2863WAT     H2 8832   0.070   7.089   4.791
 2864WAT      O 8833   1.840   7.385   4.138
 2864WAT     H1 8834   1.921   7.331   4.115
 2864WAT     H2 8835   1.790   7.408   4.055
 2865WAT      O 8836   3.902   9.691   3.947
 2865WAT     H1 8837   3.862   9.635   3.874
 2865WAT     H2 8838   4.001   9.675   3.949
 2866WAT      O 8839   8.881   7.314   2.611
 2866WAT     H1 8840   8.834   7.400   2.630
 2866WAT     H2 8841   8.980   7.328   2.614
 2867WAT      O 8842   7.843   4.317   1.164
 2867WAT     H1 8843   7.886   4.406   1.173
 2867WAT     H2 8844   7.756   4.316   1.213
 2868WAT      O 8845   8.637   0.300   2.539
 2868WAT     H1 8846   8.598   0.333   2.625
 2868WAT     H2 8847   8.707   0.364   2.507
 2869WAT      O 8848   7.179   8.159   9.221
 2869WAT     H1 8849   7.235   8.240   9.201
 2869WAT     H2 8850   7.172   8.146   9.319
 2870WAT      O 8851   7.536   0.632   8.475
 2870WAT     H1 8852   7.512   0.565   8.545
 2870WAT     H2 8853   7.464   0.633   8.405
 2871WAT      O 8854   0.556   6.536   7.905
 2871WAT     H1 8855   0.480   6.471   7.904
 2871WAT     H2 8856   0.614   6.522   7.825
 2872WAT      O 8857   8.976   8.874   7.945
 2872WAT     H1 8858   9.036   8.914   7.876
 2872WAT     H2 8859   8.884   8.862   7.906
 2873WAT      O 8860   8.003   6.385   7.673
 2873WAT     H1 8861   7.976   6.443   7.597
 2873WAT     H2 8862   7.935   6.391   7.746
 2874WAT      O 8863   1.530   4.557   7.366
 2874WAT     H1 8864   1.531   4.510   7.278
 2874WAT     H2 8865   1.441   4.542   7.411
 2875WAT      O 8866   4.670   5.739   3.710
 2875WAT     H1 8867   4.764   5.758   3.680
 2875WAT     H2 8868   4.625   5.825   3.734
 2876WAT      O 8869   0.795   7.530   9.050
 2876WAT     H1 8870   0.738   7.598   9.006
 2876WAT     H2 8871   0.742   7.446   9.065
 2877WAT      O 8872   7.448   0.479   8.701
 2877WAT     H1 8873   7.512   0.419   8.749
 2877WAT     H2 8874   7.405   0.542   8.766
 2878WAT      O 8875   9.569   9.119   9.753
 2878WAT     H1 8876   9.525   9.075   9.675
 2878WAT     H2 8877   9.533   9.082   9.838
 2879WAT      O 8878   7.024   7.475   0.679
 2879WAT     H1 8879   7.062   7.547   0.737
 2879WAT     H2 8880   6.996   7.398   0.737
 2880WAT      O 8881   9.221   8.395   9.592
 2880WAT     H1 8882   9.319   8.387   9.606
 2880WAT     H2 8883   9.203   8.462   9.519
 2881WAT      O 8884   5.611   5.277   8.641
 2881WAT     H1 8885   5.537   5.266   8.707
 2881WAT     H2 8886   5.601   5.365   8.594
 2882WAT      O 8887   2.335   4.671   0.111
 2882WAT     H1 8888   2.281   4.650   0.193
 2882WAT     H2 8889   2.425   4.629   0.119
 2883WAT      O 8890   7.456   5.966   2.438
 2883WAT     H1 8891   7.399   6.017   2.372
 2883WAT     H2 8892   7.510   5.898   2.389
 2884WAT      O 8893   3.878   2.501   5.851
 2884WAT     H1 8894   3.957   2.558   5.874
 2884WAT     H2 8895   3.822   2.548   5.782
 2885WAT      O 8896   8.775   1.408   0.022
 2885WAT     H1 8897   8.797   1.389   0.117
 2885WAT     H2 8898   8.677   1.397   0.007
 2886WAT      O 8899   2.697   7.548   7.565
 2886WAT     H1 8900   2.761   7.494   7.511
 2886WAT     H2 8901   2.632   7.594   7.504
 2887WAT      O 8902   3.781   5.740   5.083
 2887WAT     H1 8903   3.854   5.673   5.070
 2887WAT     H2 8904   3.814   5.831   5.061
 2888WAT      O 8905   6.448   3.518   8.680
 2888WAT     H1 8906   6.403   3.516   8.769
 2888WAT     H2 8907   6.529   3.577   8.685
 2889WAT      O 8908   0.346   4.560   0.964
 2889WAT     H1 8909   0.438   4.583   0.930
 2889WAT     H2 8910   0.286   4.540   0.886
 2890WAT      O 8911   4.796   8.616   4.416
 2890WAT     H1 8912   4.886   8.651   4.388
 2890WAT     H2 8913   4.801   8.585   4.511
 2891WAT      O 8914   9.539   3.192   2.305
 2891WAT     H1 8915   9.508   3.097   2.296
 2891WAT     H2 8916   9.496   3.233   2.386
 2892WAT      O 8917   1.473   8.071   4.605
 2892WAT     H1 8918   1.520   8.159   4.617
 2892WAT     H2 8919   1.483   8.017   4.688
 2893WAT      O 8920   9.725   0.799   2.721
 2893WAT     H1 8921   9.814   0.841   2.709
 2893WAT     H2 8922   9.673   0.806   2.636
 2894WAT      O 8923   4.490   7.558   1.058
 2894WAT     H1 8924   4.478   7.632   0.991
 2894WAT     H2 8925   4.401   7.524   1.086
 2895WAT      O 8926   7.462   4.595   2.901
 2895WAT     H1 8927   7.410   4.591   2.986
 2895WAT     H2 8928   7.454   4.508   2.852
 2896WAT      O 8929   3.928   1.466   7.841
 2896WAT     H1 8930   3.989   1.453   7.762
 2896WAT     H2 8931   3.976   1.439   7.925
 2897WAT      O 8932   3.527   4.053   7.490
 2897WAT     H1 8933   3.492   4.011   7.406
 2897WAT     H2 8934   3.603   4.114   7.467
 2898WAT      O 8935   8.368   7.048   9.478
 2898WAT     H1 8936   8.464   7.033   9.457
 2898WAT     H2 8937   8.312   6.981   9.429
 2899WAT      O 8938   0.165   6.083   0.917
 2899WAT     H1 8939   0.153   6.117   0.824
 2899WAT     H2 8940   0.248   6.123   0.957
 2900WAT      O 8941   5.167   5.928   7.573
 2900WAT     H1 8942   5.079   5.944   7.618
 2900WAT     H2 8943   5.207   6.016   7.546
 2901WAT      O 8944   7.586   3.716   2.800
 2901WAT     H1 8945   7.607   3.813   2.803
 2901WAT     H2 8946   7.563   3.684   2.891
 2902WAT      O 8947   2.701   7.766   1.061
 2902WAT     H1 8948   2.644   7.777   0.979
 2902WAT     H2 8949   2.643   7.771   1.142
 2903WAT      O 8950   6.118   6.284   5.343
 2903WAT     H1 8951   6.146   6.319   5.254
 2903WAT     H2 8952   6.176   6.323   5.414
 2904WAT      O 8953   0.697   9.694   5.829
 2904WAT     H1 8954   0.718   9.603   5.865
 2904WAT     H2 8955   0.765   9.759   5.860
 2905WAT      O 8956   9.321   3.879   5.609
 2905WAT     H1 8957   9.245   3.874   5.544
 2905WAT     H2 8958   9.390   3.943   5.574
 2906WAT      O 8959   5.230   3.126   5.861
 2906WAT     H1 8960   5.301   3.196   5.850
 2906WAT     H2 8961   5.199   3.126   5.956
 2907WAT      O 8962   3.406   3.108   0.954
 2907WAT     H1 8963   3.504   3.130   0.947
 2907WAT     H2 8964   3.396   3.011   0.976
 2908WAT      O 8965   6.085   0.996   6.852
 2908WAT     H1 8966   6.021   0.963   6.782
 2908WAT     H2 8967   6.084   1.096   6.853
 2909WAT      O 8968   5.115   2.365   4.015
 2909WAT     H1 8969   5.071   2.397   3.931
 2909WAT     H2 8970   5.206   2.406   4.022
 2910WAT      O 8971   8.372   2.847   6.467
 2910WAT     H1 8972   8.400   2.760   6.425
 2910WAT     H2 8973   8.321   2.828   6.551
 2911WAT      O 8974   4.389   2.126   2.464
 2911WAT     H1 8975   4.390   2.085   2.555
 2911WAT     H2 8976   4.294   2.145   2.437
 2912WAT      O 8977   0.636   7.084   7.678
 2912WAT     H1 8978   0.566   7.133   7.729
 2912WAT     H2 8979   0.609   6.989   7.666
 2913WAT      O 8980   3.837   4.987   4.614
 2913WAT     H1 8981   3.850   4.892   4.584
 2913WAT     H2 8982   3.903   5.008   4.686
 2914WAT      O 8983   5.737   1.820   5.359
 2914WAT     H1 8984   5.733   1.743   5.423
 2914WAT     H2 8985   5.791   1.894   5.399
 2915WAT      O 8986   3.494   6.264   9.432
 2915WAT     H1 8987   3.416   6.265   9.369
 2915WAT     H2 8988   3.569   6.317   9.392
 2916WAT      O 8989   5.107   9.073   7.891
 2916WAT     H1 8990   5.032   9.020   7.850
 2916WAT     H2 8991   5.165   9.110   7.818
 2917WAT      O 8992   6.326   3.176   3.091
 2917WAT     H1 8993   6.356   3.266   3.062
 2917WAT     H2 8994   6.405   3.114   3.095
 2918WAT      O 8995   8.485   7.972   4.389
 2918WAT     H1 8996   8.555   8.017   4.335
 2918WAT     H2 8997   8.438   7.903   4.334
 2919WAT      O 8998   3.983   3.791   5.879
 2919WAT     H1 8999   3.941   3.733   5.948
 2919WAT     H2 9000   3.935   3.879   5.875
 2920WAT      O 9001   4.445   8.038   7.242
 2920WAT     H1 9002   4.429   8.024   7.340
 2920WAT     H2 9003   4.541   8.020   7.221
 2921WAT      O 9004   5.197   5.867   7.301
 2921WAT     H1 9005   5.290   5.865   7.264
 2921WAT     H2 9006   5.202   5.879   7.401
 2922WAT      O 9007   8.135   9.361   5.145
 2922WAT     H1 9008   8.042   9.375   5.180
 2922WAT     H2 9009   8.190   9.443   5.161
 2923WAT      O 9010   0.743   2.400   6.335
 2923WAT     H1 9011   0.781   2.320   6.287
 2923WAT     H2 9012   0.720   2.470   6.268
 2924WAT      O 9013   2.066   0.375   7.371
 2924WAT     H1 9014   2.077   0.298   7.308
 2924WAT     H2 9015   2.149   0.387   7.425
 2925WAT      O 9016   3.906   8.478   3.120
 2925WAT     H1 9017   3.922   8.488   3.218
 2925WAT     H2 9018   3.984   8.516   3.070
 2926WAT      O 9019   4.830   4.669   6.506
 2926WAT     H1 9020   4.898   4.601   6.478
 2926WAT     H2 9021   4.808   4.728   6.428
 2927WAT      O 9022   3.656   7.501   0.732
 2927WAT     H1 9023   3.582   7.542   0.786
 2927WAT     H2 9024   3.744   7.522   0.775
 2928WAT      O 9025   6.155   8.731   4.727
 2928WAT     H1 9026   6.238   8.676   4.739
 2928WAT     H2 9027   6.085   8.700   4.792
 2929WAT      O 9028   3.162   9.798   1.787
 2929WAT     H1 9029   3.252   9.824   1.824
 2929WAT     H2 9030   3.171   9.712   1.737
 2930WAT      O 9031   3.260   8.818   3.347
 2930WAT     H1 9032   3.163   8.822   3.370
 2930WAT     H2 9033   3.270   8.806   3.248
 2931WAT      O 9034   2.919   8.783   0.670
 2931WAT     H1 9035   2.913   8.811   0.766
 2931WAT     H2 9036   2.965   8.855   0.618
 2932WAT      O 9037   1.465   3.179   9.047
 2932WAT     H1 9038   1.525   3.259   9.044
 2932WAT     H2 9039   1.509   3.106   9.099
 2933WAT      O 9040   1.085   6.566   0.333
 2933WAT     H1 9041   1.037   6.479   0.324
 2933WAT     H2 9042   1.047   6.618   0.409
 2934WAT      O 9043   4.434   5.038   9.685
 2934WAT     H1 9044   4.507   5.004   9.745
 2934WAT     H2 9045   4.402   4.963   9.627
 2935WAT      O 9046   0.942   4.106   1.850
 2935WAT     H1 9047   0.947   4.052   1.766
 2935WAT     H2 9048   0.853   4.150   1.856
 2936WAT      O 9049   5.512   5.501   8.491
 2936WAT     H1 9050   5.420   5.540   8.482
 2936WAT     H2 9051   5.577   5.573   8.514
 2937WAT      O 9052   7.719   3.560   1.714
 2937WAT     H1 9053   7.765   3.509   1.786
 2937WAT     H2 9054   7.667   3.497   1.656
 2938WAT      O 9055   0.836   1.441   2.208
 2938WAT     H1 9056   0.931   1.411   2.200
 2938WAT     H2 9057   0.776   1.362   2.210
 2939WAT      O 9058   0.386   5.210   3.394
 2939WAT     H1 9059   0.422   5.116   3.396
 2939WAT     H2 9060   0.403   5.250   3.304
 2940WAT      O 9061   9.755   4.500   0.976
 2940WAT     H1 9062   9.724   4.500   1.071
 2940WAT     H2 9063   9.796   4.412   0.954
 2941WAT      O 9064   6.888   9.371   1.409
 2941WAT     H1 9065   6.953   9.321   1.351
 2941WAT     H2 9066   6.796   9.333   1.396
 2942WAT      O 9067   1.687   2.157   0.185
 2942WAT     H1 9068   1.627   2.195   0.255
 2942WAT     H2 9069   1.748   2.089   0.226
 2943WAT      O 9070   9.813   6.905   3.853
 2943WAT     H1 9071   9.884   6.845   3.817
 2943WAT     H2 9072   9.789   6.876   3.945
 2944WAT      O 9073   3.336   3.260   4.116
 2944WAT     H1 9074   3.383   3.292   4.199
 2944WAT     H2 9075   3.239   3.280   4.122
 2945WAT      O 9076   1.598   8.685   9.689
 2945WAT     H1 9077   1.613   8.601   9.742
 2945WAT     H2 9078   1.682   8.738   9.686
 2946WAT      O 9079   7.337   5.358   0.536
 2946WAT     H1 9080   7.408   5.328   0.600
 2946WAT     H2 9081   7.264   5.290   0.533
 2947WAT      O 9082   7.173   4.973   2.233
 2947WAT     H1 9083   7.111   5.045   2.203
 2947WAT     H2 9084   7.141   4.935   2.319
 2948WAT      O 9085   4.962   8.245   0.678
 2948WAT     H1 9086   5.018   8.175   0.635
 2948WAT     H2 9087   4.920   8.302   0.608
 2949WAT      O 9088   7.327   1.878   3.818
 2949WAT     H1 9089   7.267   1.919   3.749
 2949WAT     H2 9090   7.339   1.943   3.894
 2950WAT      O 9091   1.991   6.508   3.916
 2950WAT     H1 9092   2.053   6.585   3.900
 2950WAT     H2 9093   1.954   6.514   4.009
 2951WAT      O 9094   8.082   2.593   2.697
 2951WAT     H1 9095   8.007   2.654   2.723
 2951WAT     H2 9096   8.155   2.645   2.654
 2952WAT      O 9097   5.381   8.228   8.541
 2952WAT     H1 9098   5.384   8.326   8.520
 2952WAT     H2 9099   5.291   8.192   8.518
 2953WAT      O 9100   9.784   3.876   9.049
 2953WAT     H1 9101   9.716   3.828   8.994
 2953WAT     H2 9102   9.837   3.811   9.102
 2954WAT      O 9103   2.966   6.296   7.912
 2954WAT     H1 9104   3.065   6.301   7.925
 2954WAT     H2 9105   2.920   6.323   7.997
 2955WAT      O 9106   0.178   4.922   7.535
 2955WAT     H1 9107   0.084   4.918   7.569
 2955WAT     H2 9108   0.234   4.856   7.585
 2956WAT      O 9109   1.368   1.662   6.553
 2956WAT     H1 9110   1.313   1.615   6.622
 2956WAT     H2 9111   1.350   1.760   6.557
 2957WAT      O 9112   6.550   9.427   5.805
 2957WAT     H1 9113   6.456   9.417   5.838
 2957WAT     H2 9114   6.577   9.345   5.755
 2958WAT      O 9115   5.356   6.649   9.484
 2958WAT     H1 9116   5.412   6.566   9.482
 2958WAT     H2 9117   5.296   6.651   9.404
 2959WAT      O 9118   8.708   2.102   3.160
 2959WAT     H1 9119   8.753   2.191   3.152
 2959WAT     H2 9120   8.775   2.032   3.186
 2960WAT      O 9121   1.367   8.483   6.132
 2960WAT     H1 9122   1.377   8.455   6.227
 2960WAT     H2 9123   1.449   8.532   6.102
 2961WAT      O 9124   9.862   5.472   1.009
 2961WAT     H1 9125   9.941   5.522   0.974
 2961WAT     H2 9126   9.780   5.529   1.001
 2962WAT      O 9127   6.611   1.639   3.486
 2962WAT     H1 9128   6.657   1.615   3.400
 2962WAT     H2 9129   6.518   1.603   3.484
 2963WAT      O 9130   6.164   9.159   2.979
 2963WAT     H1 9131   6.173   9.157   3.079
 2963WAT     H2 9132   6.116   9.243   2.952
 2964WAT      O 9133   5.825   8.173   2.360
 2964WAT     H1 9134   5.863   8.168   2.268
 2964WAT     H2 9135   5.757   8.245   2.364
 2965WAT      O 9136   4.690   2.252   2.894
 2965WAT     H1 9137   4.734   2.340   2.876
 2965WAT     H2 9138   4.734   2.180   2.840
 2966WAT      O 9139   2.632   4.063   3.860
 2966WAT     H1 9140   2.642   3.964   3.873
 2966WAT     H2 9141   2.578   4.080   3.778
 2967WAT      O 9142   8.628   8.180   8.032
 2967WAT     H1 9143   8.643   8.271   7.994
 2967WAT     H2 9144   8.530   8.158   8.029
 2968WAT      O 9145   9.544   4.451   5.449
 2968WAT     H1 9146   9.590   4.540   5.451
 2968WAT     H2 9147   9.505   4.435   5.359
 2969WAT      O 9148   7.952   2.079   1.803
 2969WAT     H1 9149   8.010   1.999   1.816
 2969WAT     H2 9150   7.856   2.052   1.807
 2970WAT      O 9151   6.414   2.434   7.344
 2970WAT     H1 9152   6.495   2.455   7.289
 2970WAT     H2 9153   6.333   2.472   7.300
 2971WAT      O 9154   3.022   1.379   0.168
 2971WAT     H1 9155   2.941   1.431   0.141
 2971WAT     H2 9156   3.021   1.366   0.268
 2972WAT      O 9157   6.709   2.800   0.774
 2972WAT     H1 9158   6.621   2.816   0.819
 2972WAT     H2 9159   6.717   2.861   0.695
 2973WAT      O 9160   9.435   1.653   6.483
 2973WAT     H1 9161   9.436   1.573   6.543
 2973WAT     H2 9162   9.343   1.692   6.482
 2974WAT      O 9163   4.806   7.609   0.668
 2974WAT     H1 9164   4.806   7.528   0.727
 2974WAT     H2 9165   4.798   7.691   0.724
 2975WAT      O 9166   9.630   0.626   1.130
 2975WAT     H1 9167   9.646   0.653   1.035
 2975WAT     H2 9168   9.663   0.699   1.191
 2976WAT      O 9169   6.617   8.665   1.098
 2976WAT     H1 9170   6.661   8.598   1.039
 2976WAT     H2 9171   6.662   8.754   1.087
 2977WAT      O 9172   0.506   8.952   3.524
 2977WAT     H1 9173   0.413   8.942   3.488
 2977WAT     H2 9174   0.520   9.046   3.553
 2978WAT      O 9175   0.591   1.214   7.176
 2978WAT     H1 9176   0.569   1.240   7.082
 2978WAT     H2 9177   0.651   1.283   7.216
 2979WAT      O 9178   8.436   8.702   6.384
 2979WAT     H1 9179   8.519   8.681   6.436
 2979WAT     H2 9180   8.358   8.658   6.428
 2980WAT      O 9181   3.359   3.410   5.857
 2980WAT     H1 9182   3.319   3.451   5.775
 2980WAT     H2 9183   3.445   3.456   5.879
 2981WAT      O 9184   4.795   9.350   5.349
 2981WAT     H1 9185   4.739   9.274   5.315
 2981WAT     H2 9186   4.740   9.434   5.349
 2982WAT      O 9187   0.505   2.280   9.457
 2982WAT     H1 9188   0.423   2.239   9.497
 2982WAT     H2 9189   0.562   2.319   9.530
 2983WAT      O 9190   1.406   3.544   1.626
 2983WAT     H1 9191   1.362   3.618   1.677
 2983WAT     H2 9192   1.450   3.581   1.544
 2984WAT      O 9193   8.720   5.857   4.225
 2984WAT     H1 9194   8.795   5.875   4.289
 2984WAT     H2 9195   8.731   5.767   4.185
 2985WAT      O 9196   2.185   7.244   2.577
 2985WAT     H1 9197   2.132   7.292   2.507
 2985WAT     H2 9198   2.255   7.305   2.614
 2986WAT      O 9199   3.356   4.503   7.867
 2986WAT     H1 9200   3.280   4.533   7.809
 2986WAT     H2 9201   3.363   4.563   7.947
 2987WAT      O 9202   9.409   9.807   7.225
 2987WAT     H1 9203   9.320   9.827   7.264
 2987WAT     H2 9204   9.436   9.882   7.164
 2988WAT      O 9205   5.167   2.896   0.422
 2988WAT     H1 9206   5.188   2.992   0.438
 2988WAT     H2 9207   5.163   2.848   0.509
 2989WAT      O 9208   6.018   3.751   6.698
 2989WAT     H1 9209   6.114   3.730   6.681
 2989WAT     H2 9210   5.967   3.746   6.612
 2990WAT      O 9211   0.328   0.895   2.726
 2990WAT     H1 9212   0.295   0.878   2.633
 2990WAT     H2 9213   0.281   0.834   2.789
 2991WAT      O 9214   7.873   6.140   2.605
 2991WAT     H1 9215   7.777   6.169   2.610
 2991WAT     H2 9216   7.912   6.139   2.697
 2992WAT      O 9217   5.085   2.295   7.659
 2992WAT     H1 9218   5.157   2.304   7.728
 2992WAT     H2 9219   5.000   2.334   7.695
 2993WAT      O 9220   1.276   4.012   7.501
 2993WAT     H1 9221   1.347   4.078   7.475
 2993WAT     H2 9222   1.318   3.922   7.514
 2994WAT      O 9223   9.600   0.390   9.466
 2994WAT     H1 9224   9.662   0.317   9.495
 2994WAT     H2 9225   9.553   0.428   9.546
 2995WAT      O 9226   6.714   4.570   0.526
 2995WAT     H1 9227   6.794   4.628   0.545
 2995WAT     H2 9228   6.735   4.476   0.551
 2996WAT      O 9229   8.072   3.775   1.895
 2996WAT     H1 9230   8.049   3.696   1.837
 2996WAT     H2 9231   8.161   3.811   1.867
 2997WAT      O 9232   1.064   6.034   6.974
 2997WAT     H1 9233   0.972   6.065   6.997
 2997WAT     H2 9234   1.094   6.079   6.890
 2998WAT      O 9235   6.153   2.095   3.068
 2998WAT     H1 9236   6.201   2.180   3.084
 2998WAT     H2 9237   6.219   2.020   3.058
 2999WAT      O 9238   4.640   3.573   2.876
 2999WAT     H1 9239   4.550   3.615   2.861
 2999WAT     H2 9240   4.699   3.593   2.798
 3000WAT      O 9241   8.827   7.595   7.668
 3000WAT     H1 9242   8.876   7.626   7.587
 3000WAT     H2 9243   8.827   7.495   7.670
 3001WAT      O 9244   1.259   1.791   0.792
 3001WAT     H1 9245   1.311   1.841   0.723
 3001WAT     H2 9246   1.231   1.702   0.755
 3002WAT      O 9247   5.719   0.070   8.044
 3002WAT     H1 9248   5.693  -0.000   8.110
 3002WAT     H2 9249   5.695   0.040   7.952
 3003WAT      O 9250   3.693   1.397   3.207
 3003WAT     H1 9251   3.727   1.305   3.188
 3003WAT     H2 9252   3.677   1.408   3.305
 3004WAT      O 9253   2.776   7.546   1.476
 3004WAT     H1 9254   2.791   7.456   1.515
 3004WAT     H2 9255   2.749   7.537   1.380
 3005WAT      O 9256   6.059   9.250   3.617
 3005WAT     H1 9257   6.104   9.245   3.707
 3005WAT     H2 9258   5.978   9.191   3.617
 3006WAT      O 9259   7.641   4.882   7.453
 3006WAT     H1 9260   7.691   4.949   7.509
 3006WAT     H2 9261   7.688   4.870   7.366
 3007WAT      O 9262   2.338   2.084   3.447
 3007WAT     H1 9263   2.363   2.091   3.350
 3007WAT     H2 9264   2.265   2.017   3.457
 3008WAT      O 9265   9.345   5.717   4.751
 3008WAT     H1 9266   9.302   5.774   4.681
 3008WAT     H2 9267   9.385   5.776   4.821
 3009WAT      O 9268   4.663   1.206   3.968
 3009WAT     H1 9269   4.636   1.285   4.023
 3009WAT     H2 9270   4.654   1.123   4.023
 3010WAT      O 9271   3.711   2.773   8.940
 3010WAT     H1 9272   3.638   2.715   8.975
 3010WAT     H2 9273   3.677   2.867   8.928
 3011WAT      O 9274   8.480   2.113   2.441
 3011WAT     H1 9275   8.496   2.017   2.465
 3011WAT     H2 9276   8.414   2.153   2.505
 3012WAT      O 9277   1.199   0.843   0.275
 3012WAT     H1 9278   1.177   0.754   0.315
 3012WAT     H2 9279   1.295   0.865   0.295
 3013WAT      O 9280   5.172   1.976   3.462
 3013WAT     H1 9281   5.249   2.024   3.420
 3013WAT     H2 9282   5.149   1.895   3.408
 3014WAT      O 9283   8.631   7.352   8.113
 3014WAT     H1 9284   8.629   7.289   8.035
 3014WAT     H2 9285   8.717   7.341   8.163
 3015WAT      O 9286   4.961   3.605   8.031
 3015WAT     H1 9287   5.021   3.529   8.006
 3015WAT     H2 9288   5.014   3.675   8.078
 3016WAT      O 9289   9.351   3.200   8.281
 3016WAT     H1 9290   9.323   3.267   8.212
 3016WAT     H2 9291   9.341   3.108   8.245
 3017WAT      O 9292   1.200   6.047   8.902
 3017WAT     H1 9293   1.109   6.077   8.874
 3017WAT     H2 9294   1.258   6.035   8.822
 3018WAT      O 9295   0.179   9.249   7.209
 3018WAT     H1 9296   0.138   9.312   7.275
 3018WAT     H2 9297   0.252   9.197   7.253
 3019WAT      O 9298   6.142   0.153   9.207
 3019WAT     H1 9299   6.065   0.134   9.147
 3019WAT     H2 9300   6.113   0.145   9.302
 3020WAT      O 9301   8.599   8.237   2.817
 3020WAT     H1 9302   8.656   8.275   2.745
 3020WAT     H2 9303   8.505   8.225   2.784
 3021WAT      O 9304   3.348   6.713   6.444
 3021WAT     H1 9305   3.369   6.645   6.515
 3021WAT     H2 9306   3.290   6.784   6.483
 3022WAT      O 9307   8.135   7.313   6.562
 3022WAT     H1 9308   8.180   7.239   6.613
 3022WAT     H2 9309   8.098   7.277   6.477
 3023WAT      O 9310   1.156   4.728   5.247
 3023WAT     H1 9311   1.156   4.825   5.269
 3023WAT     H2 9312   1.084   4.708   5.181
 3024WAT      O 9313   3.081   5.428   3.518
 3024WAT     H1 9314   3.131   5.489   3.579
 3024WAT     H2 9315   3.028   5.483   3.453
 3025WAT      O 9316   9.620   1.312   5.738
 3025WAT     H1 9317   9.667   1.280   5.656
 3025WAT     H2 9318   9.544   1.251   5.759
 3026WAT      O 9319   0.663   1.057   4.416
 3026WAT     H1 9320   0.763   1.048   4.423
 3026WAT     H2 9321   0.637   1.151   4.438
 3027WAT      O 9322   4.164   5.556   2.556
 3027WAT     H1 9323   4.113   5.624   2.504
 3027WAT     H2 9324   4.149   5.570   2.654
 3028WAT      O 9325   7.536   6.683   9.210
 3028WAT     H1 9326   7.604   6.628   9.258
 3028WAT     H2 9327   7.546   6.779   9.236
 3029WAT      O 9328   1.583   5.607   1.054
 3029WAT     H1 9329   1.655   5.545   1.084
 3029WAT     H2 9330   1.508   5.554   1.013
 3030WAT      O 9331   9.717   8.615   4.183
 3030WAT     H1 9332   9.798   8.622   4.242
 3030WAT     H2 9333   9.745   8.582   4.093
 3031WAT      O 9334   6.607   9.525   3.692
 3031WAT     H1 9335   6.567   9.588   3.758
 3031WAT     H2 9336   6.639   9.442   3.740
 3032WAT      O 9337   3.744   9.501   3.193
 3032WAT     H1 9338   3.740   9.449   3.279
 3032WAT     H2 9339   3.661   9.483   3.140
 3033WAT      O 9340   0.933   0.742   6.210
 3033WAT     H1 9341   0.996   0.754   6.287
 3033WAT     H2 9342   0.905   0.646   6.204
 3034WAT      O 9343   7.755   5.277   0.948
 3034WAT     H1 9344   7.765   5.224   0.865
 3034WAT     H2 9345   7.824   5.350   0.950
 3035WAT      O 9346   4.637   7.008   6.562
 3035WAT     H1 9347   4.641   7.106   6.546
 3035WAT     H2 9348   4.716   6.980   6.617
 3036WAT      O 9349   2.687   8.607   3.191
 3036WAT     H1 9350   2.768   8.626   3.246
 3036WAT     H2 9351   2.715   8.569   3.103
 3037WAT      O 9352   2.181   8.679   0.777
 3037WAT     H1 9353   2.175   8.752   0.846
 3037WAT     H2 9354   2.111   8.692   0.708
 3038WAT      O 9355   5.124   6.818   0.245
 3038WAT     H1 9356   5.082   6.728   0.235
 3038WAT     H2 9357   5.053   6.887   0.256
 3039WAT      O 9358   3.520   3.455   9.843
 3039WAT     H1 9359   3.434   3.414   9.813
 3039WAT     H2 9360   3.515   3.477   9.940
 3040WAT      O 9361   7.716   4.334   9.742
 3040WAT     H1 9362   7.795   4.311   9.686
 3040WAT     H2 9363   7.638   4.276   9.716
 3041WAT      O 9364   2.010   5.999   9.523
 3041WAT     H1 9365   2.070   6.070   9.485
 3041WAT     H2 9366   2.012   6.004   9.623
 3042WAT      O 9367   7.165   6.767   3.670
 3042WAT     H1 9368   7.189   6.829   3.595
 3042WAT     H2 9369   7.249   6.734   3.714
 3043WAT      O 9370   4.770   9.432   6.038
 3043WAT     H1 9371   4.698   9.393   5.981
 3043WAT     H2 9372   4.728   9.484   6.113
 3044WAT      O 9373   4.958   4.411   2.411
 3044WAT     H1 9374   5.031   4.391   2.346
 3044WAT     H2 9375   4.995   4.465   2.487
 3045WAT      O 9376   7.738   4.969   0.109
 3045WAT     H1 9377   7.703   5.013   0.027
 3045WAT     H2 9378   7.771   5.038   0.173
 3046WAT      O 9379   1.418   2.236   7.719
 3046WAT     H1 9380   1.439   2.307   7.652
 3046WAT     H2 9381   1.435   2.146   7.680
 3047WAT      O 9382   5.538   2.608   4.474
 3047WAT     H1 9383   5.568   2.515   4.452
 3047WAT     H2 9384   5.599   2.647   4.543
 3048WAT      O 9385   3.222   6.559   9.174
 3048WAT     H1 9386   3.169   6.605   9.245
 3048WAT     H2 9387   3.206   6.604   9.086
 3049WAT      O 9388   9.318   1.876   6.241
 3049WAT     H1 9389   9.274   1.872   6.331
 3049WAT     H2 9390   9.338   1.783   6.210
 3050WAT      O 9391   7.526   6.457   4.416
 3050WAT     H1 9392   7.489   6.481   4.327
 3050WAT     H2 9393   7.598   6.522   4.442
 3051WAT      O 9394   1.503   6.336   8.651
 3051WAT     H1 9395   1.527   6.261   8.713
 3051WAT     H2 9396   1.437   6.303   8.584
 3052WAT      O 9397   0.489   1.532   3.122
 3052WAT     H1 9398   0.481   1.609   3.186
 3052WAT     H2 9399   0.530   1.454   3.169
 3053WAT      O 9400   2.364   9.810   7.199
 3053WAT     H1 9401   2.431   9.862   7.146
 3053WAT     H2 9402   2.409   9.735   7.247
 3054WAT      O 9403   9.511   8.094   5.483
 3054WAT     H1 9404   9.492   8.041   5.401
 3054WAT     H2 9405   9.465   8.182   5.477
 3055WAT      O 9406   0.394   3.545   8.306
 3055WAT     H1 9407   0.342   3.616   8.354
 3055WAT     H2 9408   0.418   3.473   8.371
 3056WAT      O 9409   7.560   2.074   2.084
 3056WAT     H1 9410   7.659   2.063   2.086
 3056WAT     H2 9411   7.530   2.127   2.163
 3057WAT      O 9412   9.451   7.195   7.382
 3057WAT     H1 9413   9.529   7.145   7.422
 3057WAT     H2 9414   9.485   7.268   7.324
 3058WAT      O 9415   4.118   1.780   7.179
 3058WAT     H1 9416   4.181   1.820   7.112
 3058WAT     H2 9417   4.119   1.835   7.263
 3059WAT      O 9418   4.698   8.939   4.963
 3059WAT     H1 9419   4.774   8.921   5.026
 3059WAT     H2 9420   4.645   9.017   4.996
 3060WAT      O 9421   9.496   4.471   2.846
 3060WAT     H1 9422   9.543   4.499   2.930
 3060WAT     H2 9423   9.539   4.516   2.768
 3061WAT      O 9424   1.175   7.782   8.297
 3061WAT     H1 9425   1.089   7.814   8.259
 3061WAT     H2 9426   1.159   7.742   8.388
 3062WAT      O 9427   5.562   9.052   8.902
 3062WAT     H1 9428   5.485   9.049   8.838
 3062WAT     H2 9429   5.530   9.026   8.993
 3063WAT      O 9430   3.931   1.545   6.302
 3063WAT     H1 9431   4.007   1.502   6.254
 3063WAT     H2 9432   3.963   1.587   6.387
 3064WAT      O 9433   7.332   4.029   2.616
 3064WAT     H1 9434   7.355   3.957   2.550
 3064WAT     H2 9435   7.390   4.020   2.696
 3065WAT      O 9436   7.350   1.923   8.238
 3065WAT     H1 9437   7.354   2.011   8.285
 3065WAT     H2 9438   7.344   1.939   8.139
 3066WAT      O 9439   0.061   1.857   9.778
 3066WAT     H1 9440   0.114   1.886   9.858
 3066WAT     H2 9441  -0.022   1.810   9.809
 3067WAT      O 9442   8.166   0.663   6.398
 3067WAT     H1 9443   8.074   0.636   6.424
 3067WAT     H2 9444   8.231   0.592   6.426
 3068WAT      O 9445   5.157   9.793   5.665
 3068WAT     H1 9446   5.211   9.775   5.747
 3068WAT     H2 9447   5.218   9.799   5.586
 3069WAT      O 9448   0.709   1.318   5.827
 3069WAT     H1 9449   0.659   1.269   5.756
 3069WAT     H2 9450   0.793   1.355   5.789
 3070WAT      O 9451   9.006   1.093   5.889
 3070WAT     H1 9452   9.029   1.120   5.795
 3070WAT     H2 9453   8.907   1.079   5.896
 3071WAT      O 9454   1.896   1.429   7.326
 3071WAT     H1 9455   1.993   1.442   7.346
 3071WAT     H2 9456   1.873   1.474   7.240
 3072WAT      O 9457   6.903   4.863   5.602
 3072WAT     H1 9458   6.990   4.880   5.650
 3072WAT     H2 9459   6.893   4.765   5.588
 3073WAT      O 9460   2.498   2.494   3.356
 3073WAT     H1 9461   2.454   2.413   3.317
 3073WAT     H2 9462   2.492   2.569   3.291
 3074WAT      O 9463   6.766   3.343   3.901
 3074WAT     H1 9464   6.695   3.384   3.958
 3074WAT     H2 9465   6.854   3.346   3.950
 3075WAT      O 9466   8.130   3.372   1.963
 3075WAT     H1 9467   8.149   3.295   2.025
 3075WAT     H2 9468   8.186   3.364   1.881
 3076WAT      O 9469   4.198   6.444   1.084
 3076WAT     H1 9470   4.254   6.478   1.009
 3076WAT     H2 9471   4.243   6.462   1.171
 3077WAT      O 9472   8.328   3.932   6.568
 3077WAT     H1 9473   8.425   3.950   6.553
 3077WAT     H2 9474   8.305   3.953   6.663
 3078WAT      O 9475   2.674   5.103   3.513
 3078WAT     H1 9476   2.660   5.028   3.448
 3078WAT     H2 9477   2.687   5.189   3.464
 3079WAT      O 9478   2.762   7.987   4.095
 3079WAT     H1 9479   2.791   7.894   4.073
 3079WAT     H2 9480   2.697   7.984   4.171
 3080WAT      O 9481   4.179   5.178   8.465
 3080WAT     H1 9482   4.178   5.092   8.414
 3080WAT     H2 9483   4.121   5.169   8.546
 3081WAT      O 9484   9.275   6.737   1.106
 3081WAT     H1 9485   9.242   6.785   1.024
 3081WAT     H2 9486   9.299   6.804   1.176
 3082WAT      O 9487   2.684   8.617   0.431
 3082WAT     H1 9488   2.634   8.654   0.509
 3082WAT     H2 9489   2.643   8.530   0.403
 3083WAT      O 9490   0.118   9.165   9.483
 3083WAT     H1 9491   0.183   9.220   9.534
 3083WAT     H2 9492   0.025   9.197   9.502
 3084WAT      O 9493   7.132   7.444   1.114
 3084WAT     H1 9494   7.210   7.497   1.147
 3084WAT     H2 9495   7.091   7.394   1.190
 3085WAT      O 9496   4.114   2.971   8.097
 3085WAT     H1 9497   4.188   3.003   8.039
 3085WAT     H2 9498   4.144   2.973   8.193
 3086WAT      O 9499   0.199   3.988   1.666
 3086WAT     H1 9500   0.143   3.907   1.684
 3086WAT     H2 9501   0.167   4.033   1.583
 3087WAT      O 9502   7.671   6.491   5.547
 3087WAT     H1 9503   7.591   6.546   5.569
 3087WAT     H2 9504   7.733   6.544   5.488
 3088WAT      O 9505   1.602   1.773   5.878
 3088WAT     H1 9506   1.588   1.716   5.960
 3088WAT     H2 9507   1.645   1.718   5.807
 3089WAT      O 9508   5.619   5.312   5.997
 3089WAT     H1 9509   5.700   5.310   6.056
 3089WAT     H2 9510   5.609   5.403   5.957
 3090WAT      O 9511   3.099   8.300   0.996
 3090WAT     H1 9512   3.050   8.346   0.922
 3090WAT     H2 9513   3.079   8.347   1.082
 3091WAT      O 9514   9.211   7.206   8.584
 3091WAT     H1 9515   9.146   7.171   8.651
 3091WAT     H2 9516   9.295   7.152   8.588
 3092WAT      O 9517   6.992   0.768   5.125
 3092WAT     H1 9518   7.090   0.781   5.110
 3092WAT     H2 9519   6.970   0.671   5.116
 3093WAT      O 9520   6.011   0.067   2.605
 3093WAT     H1 9521   5.962  -0.010   2.564
 3093WAT     H2 9522   5.999   0.149   2.549
 3094WAT      O 9523   9.779   9.297   9.019
 3094WAT     H1 9524   9.736   9.381   8.987
 3094WAT     H2 9525   9.846   9.265   8.953
 3095WAT      O 9526   2.329   3.880   1.723
 3095WAT     H1 9527   2.317   3.906   1.627
 3095WAT     H2 9528   2.414   3.920   1.758
 3096WAT      O 9529   6.141   2.915   2.848
 3096WAT     H1 9530   6.113   2.998   2.895
 3096WAT     H2 9531   6.240   2.917   2.833
 3097WAT      O 9532   0.963   5.998   0.096
 3097WAT     H1 9533   1.059   5.986   0.071
 3097WAT     H2 9534   0.957   6.020   0.193
 3098WAT      O 9535   7.896   0.922   1.486
 3098WAT     H1 9536   7.930   0.866   1.562
 3098WAT     H2 9537   7.948   0.900   1.403
 3099WAT      O 9538   6.623   1.632   1.422
 3099WAT     H1 9539   6.697   1.692   1.453
 3099WAT     H2 9540   6.592   1.574   1.497
 3100WAT      O 9541   3.425   0.678   3.749
 3100WAT     H1 9542   3.428   0.764   3.799
 3100WAT     H2 9543   3.329   0.650   3.735
 3101WAT      O 9544   5.941   7.361   2.334
 3101WAT     H1 9545   5.848   7.392   2.352
 3101WAT     H2 9546   5.938   7.280   2.276
 3102WAT      O 9547   2.231   4.181   4.499
 3102WAT     H1 9548   2.198   4.089   4.523
 3102WAT     H2 9549   2.298   4.173   4.426
 3103WAT      O 9550   2.980   0.125   9.337
 3103WAT     H1 9551   2.999   0.219   9.364
 3103WAT     H2 9552   2.894   0.095   9.377
 3104WAT      O 9553   9.615   3.442   5.424
 3104WAT     H1 9554   9.581   3.534   5.445
 3104WAT     H2 9555   9.560   3.374   5.473
 3105WAT      O 9556   2.739   2.580   0.206
 3105WAT     H1 9557   2.798   2.573   0.126
 3105WAT     H2 9558   2.651   2.618   0.179
 3106WAT      O 9559   7.477   4.187   8.173
 3106WAT     H1 9560   7.424   4.260   8.130
 3106WAT     H2 9561   7.444   4.173   8.266
 3107WAT      O 9562   8.493   1.157   6.157
 3107WAT     H1 9563   8.549   1.201   6.227
 3107WAT     H2 9564   8.553   1.123   6.084
 3108WAT      O 9565   9.879   9.495   9.755
 3108WAT     H1 9566   9.932   9.544   9.825
 3108WAT     H2 9567   9.940   9.435   9.704
 3109WAT      O 9568   2.024   4.661   5.010
 3109WAT     H1 9569   1.973   4.747   4.997
 3109WAT     H2 9570   1.979   4.588   4.960
 3110WAT      O 9571   4.892   8.431   7.132
 3110WAT     H1 9572   4.944   8.500   7.182
 3110WAT     H2 9573   4.800   8.465   7.114
 3111WAT      O 9574   4.369   1.122   6.091
 3111WAT     H1 9575   4.449   1.104   6.035
 3111WAT     H2 9576   4.335   1.036   6.129
 3112WAT      O 9577   0.773   9.096   7.102
 3112WAT     H1 9578   0.735   9.085   7.010
 3112WAT     H2 9579   0.731   9.175   7.146
 3113WAT      O 9580   1.057   4.890   2.201
 3113WAT     H1 9581   1.018   4.910   2.110
 3113WAT     H2 9582   1.055   4.792   2.216
 3114WAT      O 9583   6.036   8.802   1.459
 3114WAT     H1 9584   6.005   8.826   1.367
 3114WAT     H2 9585   6.043   8.885   1.514
 3115WAT      O 9586   3.819   9.280   9.327
 3115WAT     H1 9587   3.753   9.327   9.385
 3115WAT     H2 9588   3.909   9.284   9.369
 3116WAT      O 9589   4.330   8.089   3.433
 3116WAT     H1 9590   4.265   8.013   3.429
 3116WAT     H2 9591   4.415   8.058   3.476
 3117WAT      O 9592   3.274   0.447   1.489
 3117WAT     H1 9593   3.248   0.437   1.585
 3117WAT     H2 9594   3.209   0.508   1.443
 3118WAT      O 9595   3.598   5.546   6.089
 3118WAT     H1 9596   3.586   5.447   6.091
 3118WAT     H2 9597   3.646   5.572   6.005
 3119WAT      O 9598   6.605   3.936   0.610
 3119WAT     H1 9599   6.568   3.899   0.696
 3119WAT     H2 9600   6.551   4.015   0.582
 3120WAT      O 9601   7.353   8.466   8.095
 3120WAT     H1 9602   7.411   8.481   8.175
 3120WAT     H2 9603   7.358   8.546   8.035
 3121WAT      O 9604   8.973   6.504   2.028
 3121WAT     H1 9605   9.014   6.453   1.952
 3121WAT     H2 9606   9.018   6.477   2.114
 3122WAT      O 9607   2.424   6.595   8.326
 3122WAT     H1 9608   2.332   6.625   8.351
 3122WAT     H2 9609   2.491   6.658   8.366
 3123WAT      O 9610   3.612   4.410   0.639
 3123WAT     H1 9611   3.519   4.384   0.665
 3123WAT     H2 9612   3.608   4.488   0.576
 3124WAT      O 9613   0.010   2.959   0.914
 3124WAT     H1 9614   0.078   2.973   0.842
 3124WAT     H2 9615  -0.070   3.016   0.897
 3125WAT      O 9616   9.431   3.701   7.793
 3125WAT     H1 9617   9.471   3.786   7.826
 3125WAT     H2 9618   9.331   3.708   7.794
 3126WAT      O 9619   8.036   4.406   5.609
 3126WAT     H1 9620   8.037   4.306   5.605
 3126WAT     H2 9621   8.110   4.442   5.553
 3127WAT      O 9622   5.472   0.480   4.539
 3127WAT     H1 9623   5.458   0.577   4.519
 3127WAT     H2 9624   5.425   0.457   4.624
 3128WAT      O 9625   5.320   2.568   0.675
 3128WAT     H1 9626   5.237   2.618   0.647
 3128WAT     H2 9627   5.399   2.627   0.663
 3129WAT      O 9628   8.223   3.750   2.633
 3129WAT     H1 9629   8.237   3.745   2.732
 3129WAT     H2 9630   8.311   3.758   2.588
 3130WAT      O 9631   6.042   1.551   2.068
 3130WAT     H1 9632   6.019   1.457   2.042
 3130WAT     H2 9633   5.958   1.605   2.075
 3131WAT      O 9634   5.962   7.016   1.842
 3131WAT     H1 9635   6.002   7.101   1.809
 3131WAT     H2 9636   6.032   6.944   1.842
 3132WAT      O 9637   2.475   0.635   4.398
 3132WAT     H1 9638   2.554   0.630   4.459
 3132WAT     H2 9639   2.506   0.633   4.303
 3133WAT      O 9640   8.655   8.588   6.520
 3133WAT     H1 9641   8.614   8.503   6.488
 3133WAT     H2 9642   8.730   8.614   6.459
 3134WAT      O 9643   7.371   2.570   3.367
 3134WAT     H1 9644   7.445   2.520   3.323
 3134WAT     H2 9645   7.384   2.668   3.355
 3135WAT      O 9646   4.028   4.282   9.825
 3135WAT     H1 9647   3.965   4.260   9.899
 3135WAT     H2 9648   4.012   4.376   9.794
 3136WAT      O 9649   3.246   0.735   8.774
 3136WAT     H1 9650   3.312   0.759   8.845
 3136WAT     H2 9651   3.246   0.805   8.702
 3137WAT      O 9652   9.805   8.950   5.677
 3137WAT     H1 9653   9.706   8.937   5.675
 3137WAT     H2 9654   9.843   8.937   5.586
 3138WAT      O 9655   9.739   1.174   8.177
 3138WAT     H1 9656   9.680   1.192   8.098
 3138WAT     H2 9657   9.694   1.110   8.239
 3139WAT      O 9658   5.699   7.286   5.483
 3139WAT     H1 9659   5.634   7.255   5.552
 3139WAT     H2 9660   5.772   7.340   5.527
 3140WAT      O 9661   4.883   9.121   0.367
 3140WAT     H1 9662   4.951   9.050   0.386
 3140WAT     H2 9663   4.829   9.095   0.287
 3141WAT      O 9664   5.221   5.826   0.889
 3141WAT     H1 9665   5.208   5.924   0.906
 3141WAT     H2 9666   5.315   5.809   0.861
 3142WAT      O 9667   2.984   0.615   1.181
 3142WAT     H1 9668   3.081   0.613   1.206
 3142WAT     H2 9669   2.941   0.696   1.220
 3143WAT      O 9670   4.384   2.700   8.686
 3143WAT     H1 9671   4.292   2.662   8.691
 3143WAT     H2 9672   4.383   2.796   8.715
 3144WAT      O 9673   2.361   3.557   9.491
 3144WAT     H1 9674   2.361   3.605   9.578
 3144WAT     H2 9675   2.401   3.616   9.420
 3145WAT      O 9676   7.951   0.224   1.413
 3145WAT     H1 9677   8.020   0.152   1.403
 3145WAT     H2 9678   7.871   0.186   1.458
 3146WAT      O 9679   4.805   8.530   2.070
 3146WAT     H1 9680   4.794   8.594   1.994
 3146WAT     H2 9681   4.845   8.445   2.035
 3147WAT      O 9682   6.313   6.549   9.443
 3147WAT     H1 9683   6.225   6.511   9.474
 3147WAT     H2 9684   6.386   6.485   9.465
 3148WAT      O 9685   2.672   9.089   8.903
 3148WAT     H1 9686   2.609   9.072   8.827
 3148WAT     H2 9687   2.748   9.145   8.871
 3149WAT      O 9688   3.228   3.652   4.163
 3149WAT     H1 9689   3.322   3.620   4.147
 3149WAT     H2 9690   3.185   3.597   4.234
 3150WAT      O 9691   8.819   1.191   2.643
 3150WAT     H1 9692   8.845   1.270   2.698
 3150WAT     H2 9693   8.873   1.190   2.559
 3151WAT      O 9694   7.304   8.288   0.664
 3151WAT     H1 9695   7.259   8.203   0.692
 3151WAT     H2 9696   7.403   8.278   0.675
 3152WAT      O 9697   8.017   8.527   4.313
 3152WAT     H1 9698   7.954   8.604   4.323
 3152WAT     H2 9699   8.085   8.529   4.386
 3153WAT      O 9700   6.256   2.344   6.782
 3153WAT     H1 9701   6.335   2.297   6.824
 3153WAT     H2 9702   6.182   2.278   6.768
 3154WAT      O 9703   0.201   3.506   9.543
 3154WAT     H1 9704   0.223   3.602   9.560
 3154WAT     H2 9705   0.111   3.486   9.581
 3155WAT      O 9706   0.528   0.338   1.992
 3155WAT     H1 9707   0.567   0.402   1.926
 3155WAT     H2 9708   0.466   0.275   1.945
 3156WAT      O 9709   4.713   0.012   1.292
 3156WAT     H1 9710   4.760   0.009   1.381
 3156WAT     H2 9711   4.635  -0.049   1.294
 3157WAT      O 9712   7.257   1.312   3.897
 3157WAT     H1 9713   7.335   1.375   3.906
 3157WAT     H2 9714   7.242   1.267   3.985
 3158WAT      O 9715   8.320   7.936   0.113
 3158WAT     H1 9716   8.394   7.964   0.175
 3158WAT     H2 9717   8.359   7.881   0.039
 3159WAT      O 9718   7.496   3.818   3.372
 3159WAT     H1 9719   7.585   3.795   3.333
 3159WAT     H2 9720   7.488   3.917   3.381
 3160WAT      O 9721   9.718   9.835   7.867
 3160WAT     H1 9722   9.696   9.932   7.862
 3160WAT     H2 9723   9.657   9.789   7.932
 3161WAT      O 9724   2.478   0.909   1.835
 3161WAT     H1 9725   2.443   0.819   1.860
 3161WAT     H2 9726   2.549   0.936   1.900
 3162WAT      O 9727   9.883   6.560   5.628
 3162WAT     H1 9728   9.866   6.658   5.640
 3162WAT     H2 9729   9.886   6.515   5.718
 3163WAT      O 9730   7.698   7.611   7.554
 3163WAT     H1 9731   7.773   7.559   7.595
 3163WAT     H2 9732   7.621   7.550   7.535
 3164WAT      O 9733   1.406   7.912   0.061
 3164WAT     H1 9734   1.403   8.011   0.048
 3164WAT     H2 9735   1.494   7.877   0.030
 3165WAT      O 9736   4.861   7.567   7.785
 3165WAT     H1 9737   4.853   7.608   7.876
 3165WAT     H2 9738   4.908   7.631   7.724
 3166WAT      O 9739   5.147   7.638   8.001
 3166WAT     H1 9740   5.163   7.672   7.909
 3166WAT     H2 9741   5.219   7.572   8.025
 3167WAT      O 9742   1.252   8.356   1.334
 3167WAT     H1 9743   1.157   8.353   1.302
 3167WAT     H2 9744   1.313   8.337   1.257
 3168WAT      O 9745   6.747   9.789   8.820
 3168WAT     H1 9746   6.720   9.749   8.907
 3168WAT     H2 9747   6.758   9.717   8.752
 3169WAT      O 9748   6.505   5.053   1.024
 3169WAT     H1 9749   6.505   4.993   0.944
 3169WAT     H2 9750   6.419   5.041   1.074
 3170WAT      O 9751   9.876   3.337   8.964
 3170WAT     H1 9752   9.906   3.426   8.931
 3170WAT     H2 9753   9.899   3.266   8.897
 3171WAT      O 9754   0.115   0.211   3.458
 3171WAT     H1 9755   0.045   0.231   3.527
 3171WAT     H2 9756   0.105   0.116   3.427
 3172WAT      O 9757   4.788   4.508   3.601
 3172WAT     H1 9758   4.744   4.554   3.524
 3172WAT     H2 9759   4.728   4.437   3.637
 3173WAT      O 9760   8.946   7.744   7.992
 3173WAT     H1 9761   9.013   7.803   7.948
 3173WAT     H2 9762   8.861   7.743   7.940
 3174WAT      O 9763   2.631   6.397   1.226
 3174WAT     H1 9764   2.596   6.390   1.133
 3174WAT     H2 9765   2.731   6.391   1.225
 3175WAT      O 9766   8.671   4.735   0.956
 3175WAT     H1 9767   8.582   4.779   0.965
 3175WAT     H2 9768   8.742   4.795   0.992
 3176WAT      O 9769   0.235   9.162   6.278
 3176WAT     H1 9770   0.198   9.204   6.195
 3176WAT     H2 9771   0.211   9.219   6.357
 3177WAT      O 9772   4.346   1.225   4.162
 3177WAT     H1 9773   4.252   1.257   4.169
 3177WAT     H2 9774   4.353   1.159   4.087
 3178WAT      O 9775   4.629   4.496   8.466
 3178WAT     H1 9776   4.712   4.516   8.414
 3178WAT     H2 9777   4.627   4.551   8.549
 3179WAT      O 9778   2.009   3.884   9.285
 3179WAT     H1 9779   2.012   3.894   9.384
 3179WAT     H2 9780   1.958   3.960   9.245
 3180WAT      O 9781   8.623   8.034   0.677
 3180WAT     H1 9782   8.551   7.968   0.656
 3180WAT     H2 9783   8.677   8.052   0.595
 3181WAT      O 9784   6.015   3.539   8.808
 3181WAT     H1 9785   6.043   3.514   8.715
 3181WAT     H2 9786   6.034   3.636   8.824
 3182WAT      O 9787   2.866   2.728   7.714
 3182WAT     H1 9788   2.768   2.715   7.704
 3182WAT     H2 9789   2.891   2.821   7.685
 3183WAT      O 9790   1.555   4.397   2.054
 3183WAT     H1 9791   1.466   4.438   2.032
 3183WAT     H2 9792   1.617   4.408   1.977
 3184WAT      O 9793   9.665   3.169   6.389
 3184WAT     H1 9794   9.597   3.140   6.457
 3184WAT     H2 9795   9.681   3.267   6.399
 3185WAT      O 9796   6.735   3.139   0.542
 3185WAT     H1 9797   6.705   3.208   0.477
 3185WAT     H2 9798   6.826   3.163   0.577
 3186WAT      O 9799   9.377   4.387   2.271
 3186WAT     H1 9800   9.343   4.383   2.177
 3186WAT     H2 9801   9.308   4.430   2.329
 3187WAT      O 9802   8.425   5.206   4.788
 3187WAT     H1 9803   8.343   5.261   4.799
 3187WAT     H2 9804   8.502   5.250   4.835
 3188WAT      O 9805   5.223   0.477   5.803
 3188WAT     H1 9806   5.188   0.384   5.793
 3188WAT     H2 9807   5.230   0.500   5.900
 3189WAT      O 9808   9.560   8.553   6.842
 3189WAT     H1 9809   9.625   8.509   6.780
 3189WAT     H2 9810   9.598   8.640   6.874
 3190WAT      O 9811   7.830   1.013   9.828
 3190WAT     H1 9812   7.917   0.975   9.859
 3190WAT     H2 9813   7.830   1.112   9.841
 3191WAT      O 9814   9.236   0.599   5.080
 3191WAT     H1 9815   9.161   0.574   5.019
 3191WAT     H2 9816   9.323   0.585   5.033
 3192WAT      O 9817   1.294   8.666   0.127
 3192WAT     H1 9818   1.337   8.732   0.065
 3192WAT     H2 9819   1.209   8.703   0.164
 3193WAT      O 9820   1.503   6.708   5.669
 3193WAT     H1 9821   1.596   6.677   5.691
 3193WAT     H2 9822   1.441   6.630   5.667
 3194WAT      O 9823   1.264   0.171   8.942
 3194WAT     H1 9824   1.186   0.128   8.898
 3194WAT     H2 9825   1.261   0.154   9.041
 3195WAT      O 9826   8.981   6.864   0.757
 3195WAT     H1 9827   8.969   6.960   0.733
 3195WAT     H2 9828   8.910   6.809   0.713
 3196WAT      O 9829   6.962   4.223   7.366
 3196WAT     H1 9830   7.048   4.253   7.326
 3196WAT     H2 9831   6.896   4.203   7.294
 3197WAT      O 9832   4.531   0.801   4.463
 3197WAT     H1 9833   4.519   0.877   4.527
 3197WAT     H2 9834   4.612   0.818   4.407
 3198WAT      O 9835   9.868   4.413   1.793
 3198WAT     H1 9836   9.881   4.315   1.812
 3198WAT     H2 9837   9.891   4.466   1.874
 3199WAT      O 9838   1.063   2.725   0.282
 3199WAT     H1 9839   1.021   2.648   0.234
 3199WAT     H2 9840   1.008   2.747   0.363
 3200WAT      O 9841   1.135   6.558   7.361
 3200WAT     H1 9842   1.160   6.646   7.321
 3200WAT     H2 9843   1.215   6.498   7.361
 3201WAT      O 9844   5.949   6.704   6.388
 3201WAT     H1 9845   5.887   6.781   6.376
 3201WAT     H2 9846   5.927   6.633   6.321
 3202WAT      O 9847   4.048   2.183   6.446
 3202WAT     H1 9848   3.985   2.109   6.469
 3202WAT     H2 9849   4.127   2.146   6.397
 3203WAT      O 9850   1.542   3.017   4.135
 3203WAT     H1 9851   1.614   2.947   4.139
 3203WAT     H2 9852   1.455   2.977   4.163
 3204WAT      O 9853   2.436   1.939   9.074
 3204WAT     H1 9854   2.490   1.867   9.029
 3204WAT     H2 9855   2.384   1.990   9.005
 3205WAT      O 9856   7.198   0.141   1.123
 3205WAT     H1 9857   7.171   0.181   1.035
 3205WAT     H2 9858   7.206   0.214   1.191
 3206WAT      O 9859   6.450   4.921   1.417
 3206WAT     H1 9860   6.474   5.016   1.396
 3206WAT     H2 9861   6.444   4.869   1.332
 3207WAT      O 9862   8.358   0.488   3.186
 3207WAT     H1 9863   8.445   0.516   3.226
 3207WAT     H2 9864   8.288   0.481   3.258
 3208WAT      O 9865   1.996   1.666   2.704
 3208WAT     H1 9866   2.023   1.592   2.766
 3208WAT     H2 9867   2.077   1.709   2.667
 3209WAT      O 9868   3.894   7.931   1.731
 3209WAT     H1 9869   3.918   7.843   1.689
 3209WAT     H2 9870   3.951   8.003   1.692
 3210WAT      O 9871   6.444   7.112   8.918
 3210WAT     H1 9872   6.426   7.164   8.835
 3210WAT     H2 9873   6.424   7.169   8.998
 3211WAT      O 9874   8.379   3.939   7.782
 3211WAT     H1 9875   8.302   3.960   7.841
 3211WAT     H2 9876   8.420   4.024   7.750
 3212WAT      O 9877   8.541   2.864   4.340
 3212WAT     H1 9878   8.641   2.857   4.343
 3212WAT     H2 9879   8.504   2.848   4.431
 3213WAT      O 9880   7.642   4.959   1.938
 3213WAT     H1 9881   7.607   4.897   2.009
 3213WAT     H2 9882   7.566   5.009   1.897
 3214WAT      O 9883   0.171   8.089   4.527
 3214WAT     H1 9884   0.266   8.093   4.498
 3214WAT     H2 9885   0.121   8.166   4.486
 3215WAT      O 9886   5.278   3.208   6.126
 3215WAT     H1 9887   5.235   3.153   6.197
 3215WAT     H2 9888   5.377   3.201   6.133
 3216WAT      O 9889   8.521   1.897   6.357
 3216WAT     H1 9890   8.518   1.960   6.279
 3216WAT     H2 9891   8.438   1.909   6.412
 3217WAT      O 9892   4.232   3.340   7.178
 3217WAT     H1 9893   4.234   3.259   7.236
 3217WAT     H2 9894   4.325   3.369   7.157
 3218WAT      O 9895   6.328   2.559   4.977
 3218WAT     H1 9896   6.340   2.472   5.025
 3218WAT     H2 9897   6.230   2.582   4.975
 3219WAT      O 9898   4.269   8.872   8.555
 3219WAT     H1 9899   4.256   8.840   8.649
 3219WAT     H2 9900   4.199   8.940   8.532
 3220WAT      O 9901   9.204   3.046   0.290
 3220WAT     H1 9902   9.219   3.077   0.196
 3220WAT     H2 9903   9.106   3.040   0.308
 3221WAT      O 9904   1.000   2.648   5.550
 3221WAT     H1 9905   0.988   2.608   5.459
 3221WAT     H2 9906   0.976   2.580   5.620
 3222WAT      O 9907   1.265   5.553   7.135
 3222WAT     H1 9908   1.230   5.646   7.121
 3222WAT     H2 9909   1.359   5.548   7.103
 3223WAT      O 9910   7.799   6.640   3.625
 3223WAT     H1 9911   7.874   6.705   3.609
 3223WAT     H2 9912   7.739   6.637   3.545
 3224WAT      O 9913   5.078   7.137   7.629
 3224WAT     H1 9914   5.123   7.065   7.681
 3224WAT     H2 9915   5.105   7.131   7.533
 3225WAT      O 9916   7.480   4.533   8.374
 3225WAT     H1 9917   7.521   4.477   8.446
 3225WAT     H2 9918   7.407   4.588   8.412
 3226WAT      O 9919   9.494   2.481   2.361
 3226WAT     H1 9920   9.490   2.421   2.281
 3226WAT     H2 9921   9.588   2.492   2.391
 3227WAT      O 9922   8.682   2.718   6.258
 3227WAT     H1 9923   8.683   2.781   6.181
 3227WAT     H2 9924   8.727   2.761   6.337
 3228WAT      O 9925   6.139   8.032   7.587
 3228WAT     H1 9926   6.112   8.128   7.597
 3228WAT     H2 9927   6.067   7.983   7.537
 3229WAT      O 9928   4.424   7.587   8.227
 3229WAT     H1 9929   4.437   7.568   8.324
 3229WAT     H2 9930   4.340   7.542   8.195
 3230WAT      O 9931   8.888   8.466   4.865
 3230WAT     H1 9932   8.969   8.423   4.826
 3230WAT     H2 9933   8.859   8.542   4.807
 3231WAT      O 9934   0.694   9.462   5.957
 3231WAT     H1 9935   0.608   9.425   5.921
 3231WAT     H2 9936   0.730   9.401   6.027
 3232WAT      O 9937   8.885   5.005   0.864
 3232WAT     H1 9938   8.842   4.963   0.785
 3232WAT     H2 9939   8.943   5.081   0.835
 3233WAT      O 9940   5.495   6.881   0.465
 3233WAT     H1 9941   5.591   6.902   0.483
 3233WAT     H2 9942   5.481   6.782   0.465
 3234WAT      O 9943   3.944   9.514   7.589
 3234WAT     H1 9944   4.016   9.552   7.647
 3234WAT     H2 9945   3.916   9.425   7.624
 3235WAT      O 9946   7.641   8.798   1.535
 3235WAT     H1 9947   7.679   8.890   1.527
 3235WAT     H2 9948   7.634   8.773   1.632
 3236WAT      O 9949   1.757   0.971   3.492
 3236WAT     H1 9950   1.715   1.046   3.441
 3236WAT     H2 9951   1.852   0.961   3.462
 3237WAT      O 9952   6.809   0.829   9.856
 3237WAT     H1 9953   6.855   0.741   9.851
 3237WAT     H2 9954   6.793   0.864   9.764
 3238WAT      O 9955   5.034   4.979   4.891
 3238WAT     H1 9956   5.121   5.028   4.889
 3238WAT     H2 9957   4.990   4.985   4.801
 3239WAT      O 9958   9.319   8.617   2.557
 3239WAT     H1 9959   9.371   8.540   2.519
 3239WAT     H2 9960   9.285   8.673   2.483
 3240WAT      O 9961   8.061   6.457   9.271
 3240WAT     H1 9962   8.010   6.372   9.255
 3240WAT     H2 9963   8.073   6.506   9.185
 3241WAT      O 9964   3.242   2.414   3.477
 3241WAT     H1 9965   3.205   2.474   3.549
 3241WAT     H2 9966   3.169   2.390   3.413
 3242WAT      O 9967   1.711   9.166   7.434
 3242WAT     H1 9968   1.774   9.134   7.505
 3242WAT     H2 9969   1.744   9.137   7.344
 3243WAT      O 9970   6.342   0.343   4.153
 3243WAT     H1 9971   6.267   0.330   4.088
 3243WAT     H2 9972   6.338   0.271   4.222
 3244WAT      O 9973   0.704   8.610   6.616
 3244WAT     H1 9974   0.777   8.576   6.676
 3244WAT     H2 9975   0.623   8.552   6.627
 3245WAT      O 9976   1.524   5.193   3.091
 3245WAT     H1 9977   1.467   5.134   3.148
 3245WAT     H2 9978   1.468   5.262   3.046
 3246WAT      O 9979   4.828   1.106   4.544
 3246WAT     H1 9980   4.890   1.087   4.468
 3246WAT     H2 9981   4.872   1.080   4.630
 3247WAT      O 9982   9.513   2.201   7.735
 3247WAT     H1 9983   9.480   2.234   7.823
 3247WAT     H2 9984   9.450   2.231   7.663
 3248WAT      O 9985   3.647   0.710   6.195
 3248WAT     H1 9986   3.575   0.777   6.214
 3248WAT     H2 9987   3.680   0.671   6.282
 3249WAT      O 9988   5.955   4.287   7.430
 3249WAT     H1 9989   5.917   4.276   7.339
 3249WAT     H2 9990   6.048   4.325   7.423
 3250WAT      O 9991   4.154   7.565   5.127
 3250WAT     H1 9992   4.227   7.596   5.188
 3250WAT     H2 9993   4.178   7.476   5.089
 3251WAT      O 9994   2.631   4.339   9.825
 3251WAT     H1 9995   2.718   4.380   9.853
 3251WAT     H2 9996   2.585   4.303   9.906
 3252WAT      O 9997   7.310   4.469   4.627
 3252WAT     H1 9998   7.278   4.385   4.670
 3252WAT     H2 9999   7.395   4.451   4.578
 3253WAT      O10000   4.856   8.162   7.303
 3253WAT     H110001   4.853   8.252   7.260
 3253WAT     H210002   4.834   8.171   7.401
 3254WAT      O10003   0.324   2.136   3.314
 3254WAT     H110004   0.308   2.234   3.320
 3254WAT     H210005   0.361   2.102   3.400
 3255WAT      O10006   0.979   8.142   4.461
 3255WAT     H110007   0.898   8.118   4.514
 3255WAT     H210008   1.060   8.139   4.520
 3256WAT      O10009   3.547   3.718   9.669
 3256WAT     H110010   3.544   3.647   9.740
 3256WAT     H210011   3.495   3.798   9.699
 3257WAT      O10012   0.246   1.535   1.394
 3257WAT     H110013   0.301   1.487   1.325
 3257WAT     H210014   0.307   1.585   1.456
 3258WAT      O10015   5.196   0.232   9.412
 3258WAT     H110016   5.257   0.309   9.394
 3258WAT     H210017   5.102   0.259   9.393
 3259WAT      O10018   5.519   1.273   0.027
 3259WAT     H110019   5.540   1.228   0.113
 3259WAT     H210020   5.526   1.372   0.038
 3260WAT      O10021   8.260   3.277   5.367
 3260WAT     H110022   8.263   3.373   5.338
 3260WAT     H210023   8.166   3.253   5.391
 3261WAT      O10024   8.721   7.505   2.698
 3261WAT     H110025   8.655   7.482   2.626
 3261WAT     H210026   8.704   7.598   2.730
 3262WAT      O10027   0.791   4.187   9.518
 3262WAT     H110028   0.765   4.093   9.495
 3262WAT     H210029   0.891   4.193   9.526
 3263WAT      O10030   9.264   5.802   0.203
 3263WAT     H110031   9.202   5.878   0.220
 3263WAT     H210032   9.334   5.829   0.137
 3264WAT      O10033   4.611   2.886   6.029
 3264WAT     H110034   4.665   2.954   6.079
 3264WAT     H210035   4.671   2.831   5.971
 3265WAT      O10036   5.047   1.469   2.253
 3265WAT     H110037   5.042   1.445   2.350
 3265WAT     H210038   5.015   1.392   2.198
 3266WAT      O10039   4.854   8.788   9.664
 3266WAT     H110040   4.949   8.810   9.690
 3266WAT     H210041   4.802   8.765   9.746
 3267WAT      O10042   8.770   5.427   9.067
 3267WAT     H110043   8.761   5.377   9.153
 3267WAT     H210044   8.702   5.392   9.002
 3268WAT      O10045   1.169   4.276   0.382
 3268WAT     H110046   1.098   4.210   0.357
 3268WAT     H210047   1.252   4.226   0.408
 3269WAT      O10048   4.062   0.917   2.071
 3269WAT     H110049   4.066   0.844   2.138
 3269WAT     H210050   4.155   0.949   2.051
 3270WAT      O10051   4.023   7.119   2.423
 3270WAT     H110052   4.116   7.087   2.410
 3270WAT     H210053   4.015   7.214   2.392
 3271WAT      O10054   0.004   2.918   8.314
 3271WAT     H110055   0.090   2.959   8.286
 3271WAT     H210056  -0.040   2.876   8.234
 3272WAT      O10057   9.519   6.322   4.232
 3272WAT     H110058   9.579   6.304   4.154
 3272WAT     H210059   9.557   6.279   4.314
 3273WAT      O10060   0.977   7.084   8.952
 3273WAT     H110061   1.019   6.998   8.977
 3273WAT     H210062   0.879   7.082   8.974
 3274WAT      O10063   8.737   3.475   1.819
 3274WAT     H110064   8.748   3.440   1.726
 3274WAT     H210065   8.822   3.518   1.850
 3275WAT      O10066   9.418   9.570   4.805
 3275WAT     H110067   9.348   9.618   4.857
 3275WAT     H210068   9.391   9.566   4.708
 3276WAT      O10069   1.956   2.649   4.287
 3276WAT     H110070   1.993   2.608   4.203
 3276WAT     H210071   1.858   2.635   4.291
 3277WAT      O10072   5.478   7.371   6.932
 3277WAT     H110073   5.575   7.365   6.908
 3277WAT     H210074   5.439   7.279   6.935
 3278WAT      O10075   1.091   4.137   1.563
 3278WAT     H110076   1.024   4.210   1.554
 3278WAT     H210077   1.046   4.053   1.592
 3279WAT      O10078   5.821   9.756   2.478
 3279WAT     H110079   5.753   9.814   2.433
 3279WAT     H210080   5.777   9.703   2.551
 3280WAT      O10081   7.588   8.785   4.479
 3280WAT     H110082   7.543   8.772   4.391
 3280WAT     H210083   7.570   8.878   4.512
 3281WAT      O10084   1.480   4.483   3.267
 3281WAT     H110085   1.551   4.422   3.232
 3281WAT     H210086   1.485   4.570   3.218
 3282WAT      O10087   4.437   9.303   8.475
 3282WAT     H110088   4.508   9.318   8.405
 3282WAT     H210089   4.347   9.303   8.431
 3283WAT      O10090   6.390   1.062   0.357
 3283WAT     H110091   6.304   1.083   0.310
 3283WAT     H210092   6.467   1.077   0.294
 3284WAT      O10093   3.248   9.723   7.122
 3284WAT     H110094   3.293   9.649   7.172
 3284WAT     H210095   3.173   9.686   7.067
 3285WAT      O10096   4.654   6.757   7.596
 3285WAT     H110097   4.638   6.815   7.676
 3285WAT     H210098   4.571   6.704   7.576
 3286WAT      O10099   3.072   9.607   8.187
 3286WAT     H110100   3.119   9.581   8.103
 3286WAT     H210101   2.973   9.611   8.170
 3287WAT      O10102   6.572   4.379   4.766
 3287WAT     H110103   6.480   4.344   4.778
 3287WAT     H210104   6.598   4.372   4.669
 3288WAT      O10105   0.385   8.292   1.049
 3288WAT     H110106   0.356   8.232   0.974
 3288WAT     H210107   0.360   8.386   1.027
 3289WAT      O10108   3.056   8.805   7.992
 3289WAT     H110109   3.013   8.716   8.008
 3289WAT     H210110   3.016   8.873   8.055
 3290WAT      O10111   2.804   8.424   2.955
 3290WAT     H110112   2.860   8.485   2.898
 3290WAT     H210113   2.863   8.368   3.012
 3291WAT      O10114   9.012   3.150   1.273
 3291WAT     H110115   9.097   3.097   1.269
 3291WAT     H210116   9.015   3.225   1.208
 3292WAT      O10117   6.948   4.970   1.865
 3292WAT     H110118   6.871   4.949   1.925
 3292WAT     H210119   6.979   5.063   1.880
 3293WAT      O10120   3.166   5.426   5.714
 3293WAT     H110121   3.153   5.524   5.725
 3293WAT     H210122   3.248   5.397   5.764
 3294WAT      O10123   2.260   9.291   4.081
 3294WAT     H110124   2.219   9.203   4.104
 3294WAT     H210125   2.189   9.357   4.059
 3295WAT      O10126   6.737   8.839   5.403
 3295WAT     H110127   6.725   8.740   5.407
 3295WAT     H210128   6.834   8.861   5.399
 3296WAT      O10129   0.481   7.278   6.628
 3296WAT     H110130   0.488   7.290   6.727
 3296WAT     H210131   0.566   7.308   6.585
 3297WAT      O10132   9.131   9.337   5.183
 3297WAT     H110133   9.096   9.249   5.151
 3297WAT     H210134   9.068   9.410   5.155
 3298WAT      O10135   2.929   8.979   8.157
 3298WAT     H110136   2.844   8.986   8.104
 3298WAT     H210137   2.979   9.066   8.152
 3299WAT      O10138   8.490   0.676   9.152
 3299WAT     H110139   8.521   0.621   9.075
 3299WAT     H210140   8.568   0.700   9.209
 3300WAT      O10141   2.914   9.570   2.998
 3300WAT     H110142   2.884   9.663   2.980
 3300WAT     H210143   2.897   9.547   3.094
 3301WAT      O10144   6.629   0.878   4.190
 3301WAT     H110145   6.605   0.886   4.287
 3301WAT     H210146   6.726   0.857   4.181
 3302WAT      O10147   0.451   2.085   4.809
 3302WAT     H110148   0.393   2.029   4.750
 3302WAT     H210149   0.508   2.026   4.865
 3303WAT      O10150   8.919   0.564   3.340
 3303WAT     H110151   8.932   0.465   3.330
 3303WAT     H210152   8.919   0.588   3.437
 3304WAT      O10153   1.944   3.079   4.295
 3304WAT     H110154   1.950   3.012   4.221
 3304WAT     H210155   1.917   3.168   4.257
 3305WAT      O10156   6.989   2.293   9.727
 3305WAT     H110157   6.899   2.274   9.689
 3305WAT     H210158   7.033   2.366   9.676
 3306WAT      O10159   4.305   4.933   8.377
 3306WAT     H110160   4.262   4.853   8.336
 3306WAT     H210161   4.401   4.913   8.397
 3307WAT      O10162   1.916   2.768   0.196
 3307WAT     H110163   1.919   2.860   0.234
 3307WAT     H210164   1.845   2.714   0.241
 3308WAT      O10165   9.127   7.657   4.767
 3308WAT     H110166   9.043   7.656   4.821
 3308WAT     H210167   9.175   7.570   4.779
 3309WAT      O10168   2.929   3.610   4.193
 3309WAT     H110169   2.841   3.570   4.166
 3309WAT     H210170   2.914   3.677   4.266
 3310WAT      O10171   5.544   8.872   0.627
 3310WAT     H110172   5.459   8.890   0.579
 3310WAT     H210173   5.613   8.939   0.602
 3311WAT      O10174   2.433   7.135   6.984
 3311WAT     H110175   2.451   7.232   6.969
 3311WAT     H210176   2.386   7.096   6.904
 3312WAT      O10177   2.260   5.340   4.991
 3312WAT     H110178   2.224   5.433   4.987
 3312WAT     H210179   2.359   5.344   5.009
 3313WAT      O10180   7.890   0.409   9.175
 3313WAT     H110181   7.837   0.325   9.168
 3313WAT     H210182   7.985   0.387   9.198
 3314WAT      O10183   3.228   3.921   4.551
 3314WAT     H110184   3.249   3.910   4.454
 3314WAT     H210185   3.191   4.012   4.567
 3315WAT      O10186   3.284   7.144   4.406
 3315WAT     H110187   3.382   7.137   4.424
 3315WAT     H210188   3.269   7.190   4.319
 3316WAT      O10189   0.070   9.597   6.732
 3316WAT     H110190   0.045   9.677   6.788
 3316WAT     H210191  -0.013   9.554   6.697
 3317WAT      O10192   9.389   3.990   2.666
 3317WAT     H110193   9.373   4.070   2.723
 3317WAT     H210194   9.405   4.019   2.572
 3318WAT      O10195   2.874   7.676   3.115
 3318WAT     H110196   2.840   7.666   3.209
 3318WAT     H210197   2.823   7.616   3.054
 3319WAT      O10198   2.090   6.866   6.466
 3319WAT     H110199   2.008   6.877   6.410
 3319WAT     H210200   2.066   6.871   6.563
 3320WAT      O10201   2.260   2.342   1.516
 3320WAT     H110202   2.215   2.261   1.554
 3320WAT     H210203   2.192   2.402   1.474
 3321WAT      O10204   1.149   3.838   5.836
 3321WAT     H110205   1.109   3.775   5.903
 3321WAT     H210206   1.083   3.909   5.813
 3322WAT      O10207   1.519   8.920   4.331
 3322WAT     H110208   1.474   8.942   4.418
 3322WAT     H210209   1.486   8.982   4.260
 3323WAT      O10210   4.696   4.162   9.744
 3323WAT     H110211   4.695   4.245   9.689
 3323WAT     H210212   4.779   4.110   9.726
 3324WAT      O10213   2.771   0.140   5.657
 3324WAT     H110214   2.774   0.054   5.607
 3324WAT     H210215   2.806   0.213   5.598
 3325WAT      O10216   3.155   8.871   1.601
 3325WAT     H110217   3.060   8.867   1.631
 3325WAT     H210218   3.201   8.946   1.649
 3326WAT      O10219   9.187   2.616   1.491
 3326WAT     H110220   9.266   2.581   1.441
 3326WAT     H210221   9.103   2.588   1.444
 3327WAT      O10222   6.135   6.443   7.438
 3327WAT     H110223   6.139   6.403   7.346
 3327WAT     H210224   6.040   6.451   7.466
 3328WAT      O10225   8.852   6.235   2.004
 3328WAT     H110226   8.778   6.284   2.050
 3328WAT     H210227   8.844   6.247   1.905
 3329WAT      O10228   9.287   7.633   8.102
 3329WAT     H110229   9.210   7.618   8.165
 3329WAT     H210230   9.312   7.547   8.058
 3330WAT      O10231   2.796   0.304   3.131
 3330WAT     H110232   2.710   0.329   3.088
 3330WAT     H210233   2.786   0.217   3.180
 3331WAT      O10234   6.991   7.097   6.307
 3331WAT     H110235   7.027   7.005   6.291
 3331WAT     H210236   7.067   7.162   6.317
 3332WAT      O10237   6.937   1.315   7.155
 3332WAT     H110238   6.923   1.330   7.057
 3332WAT     H210239   6.879   1.377   7.207
 3333WAT      O10240   4.837   8.976   5.980
 3333WAT     H110241   4.865   9.034   5.903
 3333WAT     H210242   4.859   8.881   5.961
 3334WAT      O10243   1.799   6.790   1.042
 3334WAT     H110244   1.812   6.721   0.971
 3334WAT     H210245   1.768   6.875   0.999
 3335WAT      O10246   7.530   0.447   9.368
 3335WAT     H110247   7.576   0.533   9.346
 3335WAT     H210248   7.558   0.417   9.459
 3336WAT      O10249   5.346   5.274   0.778
 3336WAT     H110250   5.436   5.271   0.822
 3336WAT     H210251   5.276   5.284   0.848
 3337WAT      O10252   8.266   6.446   9.440
 3337WAT     H110253   8.285   6.539   9.471
 3337WAT     H210254   8.193   6.447   9.372
 3338WAT      O10255   7.441   6.601   1.914
 3338WAT     H110256   7.389   6.517   1.926
 3338WAT     H210257   7.450   6.648   2.001
 3339WAT      O10258   7.025   8.882   7.495
 3339WAT     H110259   6.928   8.879   7.470
 3339WAT     H210260   7.079   8.906   7.415
 3340WAT      O10261   9.674   7.858   4.345
 3340WAT     H110262   9.691   7.870   4.247
 3340WAT     H210263   9.759   7.834   4.391
 3341WAT      O10264   3.047   2.812   9.188
 3341WAT     H110265   2.995   2.869   9.124
 3341WAT     H210266   3.142   2.806   9.158
 3342WAT      O10267   5.179   3.063   4.845
 3342WAT     H110268   5.222   3.106   4.766
 3342WAT     H210269   5.250   3.030   4.907
 3343WAT      O10270   0.844   3.045   4.157
 3343WAT     H110271   0.942   3.032   4.174
 3343WAT     H210272   0.805   3.101   4.231
 3344WAT      O10273   2.291   1.993   1.867
 3344WAT     H110274   2.218   1.925   1.868
 3344WAT     H210275   2.367   1.960   1.811
 3345WAT      O10276   9.822   1.227   0.789
 3345WAT     H110277   9.752   1.202   0.856
 3345WAT     H210278   9.779   1.273   0.712
 3346WAT      O10279   1.022   2.528   3.090
 3346WAT     H110280   0.986   2.591   3.021
 3346WAT     H210281   0.955   2.456   3.108
 3347WAT      O10282   2.984   0.870   6.508
 3347WAT     H110283   2.997   0.776   6.476
 3347WAT     H210284   2.930   0.921   6.441
 3348WAT      O10285   5.113   9.832   9.496
 3348WAT     H110286   5.165   9.909   9.460
 3348WAT     H210287   5.133   9.819   9.593
 3349WAT      O10288   7.814   4.789   1.757
 3349WAT     H110289   7.904   4.785   1.801
 3349WAT     H210290   7.743   4.796   1.826
 3350WAT      O10291   1.326   7.926   2.260
 3350WAT     H110292   1.328   8.024   2.277
 3350WAT     H210293   1.414   7.886   2.285
 3351WAT      O10294   2.317   1.846   2.916
 3351WAT     H110295   2.412   1.867   2.893
 3351WAT     H210296   2.310   1.751   2.947
 3352WAT      O10297   0.957   9.438   7.971
 3352WAT     H110298   0.902   9.518   7.943
 3352WAT     H210299   1.007   9.403   7.892
 3353WAT      O10300   2.154   5.465   8.093
 3353WAT     H110301   2.188   5.549   8.052
 3353WAT     H210302   2.228   5.397   8.098
 3354WAT      O10303   2.445   0.665   6.900
 3354WAT     H110304   2.458   0.566   6.891
 3354WAT     H210305   2.381   0.697   6.830
 3355WAT      O10306   8.506   5.455   1.408
 3355WAT     H110307   8.450   5.372   1.412
 3355WAT     H210308   8.473   5.521   1.476
 3356WAT      O10309   0.290   2.036   8.366
 3356WAT     H110310   0.389   2.048   8.376
 3356WAT     H210311   0.260   2.078   8.280
 3357WAT      O10312   0.804   8.732   0.276
 3357WAT     H110313   0.764   8.745   0.367
 3357WAT     H210314   0.904   8.737   0.283
 3358WAT      O10315   1.120   1.806   6.717
 3358WAT     H110316   1.211   1.845   6.728
 3358WAT     H210317   1.110   1.727   6.777
 3359WAT      O10318   8.480   4.480   1.957
 3359WAT     H110319   8.570   4.475   2.000
 3359WAT     H210320   8.453   4.576   1.946
 3360WAT      O10321   8.878   0.791   4.882
 3360WAT     H110322   8.810   0.809   4.811
 3360WAT     H210323   8.930   0.874   4.900
 3361WAT      O10324   7.338   3.906   7.273
 3361WAT     H110325   7.245   3.915   7.237
 3361WAT     H210326   7.396   3.862   7.204
 3362WAT      O10327   0.396   0.143   5.712
 3362WAT     H110328   0.367   0.047   5.711
 3362WAT     H210329   0.318   0.201   5.689
 3363WAT      O10330   5.707   1.906   6.776
 3363WAT     H110331   5.726   2.004   6.769
 3363WAT     H210332   5.628   1.883   6.720
 3364WAT      O10333   5.451   0.963   9.526
 3364WAT     H110334   5.434   0.969   9.624
 3364WAT     H210335   5.367   0.985   9.476
 3365WAT      O10336   4.976   9.351   1.908
 3365WAT     H110337   4.974   9.374   2.006
 3365WAT     H210338   5.068   9.322   1.882
 3366WAT      O10339   3.102   1.810   0.184
 3366WAT     H110340   3.113   1.790   0.087
 3366WAT     H210341   3.055   1.734   0.229
 3367WAT      O10342   8.238   9.642   4.564
 3367WAT     H110343   8.238   9.548   4.530
 3367WAT     H210344   8.321   9.657   4.618
 3368WAT      O10345   5.338   0.401   1.898
 3368WAT     H110346   5.315   0.304   1.885
 3368WAT     H210347   5.311   0.452   1.816
 3369WAT      O10348   6.590   9.280   1.630
 3369WAT     H110349   6.497   9.266   1.663
 3369WAT     H210350   6.603   9.232   1.543
 3370WAT      O10351   2.085   5.820   4.862
 3370WAT     H110352   2.025   5.853   4.790
 3370WAT     H210353   2.142   5.895   4.896
 3371WAT      O10354   0.643   8.000   5.706
 3371WAT     H110355   0.650   8.086   5.654
 3371WAT     H210356   0.735   7.961   5.716
 3372WAT      O10357   0.624   2.269   0.036
 3372WAT     H110358   0.706   2.304   0.080
 3372WAT     H210359   0.574   2.210   0.100
 3373WAT      O10360   7.198   9.031   7.339
 3373WAT     H110361   7.275   8.984   7.297
 3373WAT     H210362   7.231   9.091   7.412
 3374WAT      O10363   1.281   3.724   7.573
 3374WAT     H110364   1.235   3.635   7.565
 3374WAT     H210365   1.310   3.738   7.667
 3375WAT      O10366   7.968   9.365   9.546
 3375WAT     H110367   7.979   9.319   9.458
 3375WAT     H210368   7.911   9.309   9.606
 3376WAT      O10369   1.303   4.445   4.617
 3376WAT     H110370   1.323   4.501   4.537
 3376WAT     H210371   1.266   4.357   4.588
 3377WAT      O10372   2.063   5.005   2.421
 3377WAT     H110373   1.995   5.059   2.371
 3377WAT     H210374   2.041   4.908   2.414
 3378WAT      O10375   8.434   9.649   5.947
 3378WAT     H110376   8.457   9.740   5.981
 3378WAT     H210377   8.514   9.589   5.955
 3379WAT      O10378   7.493   5.684   5.146
 3379WAT     H110379   7.448   5.685   5.057
 3379WAT     H210380   7.558   5.608   5.150
 3380WAT      O10381   9.796   3.389   4.134
 3380WAT     H110382   9.806   3.320   4.062
 3380WAT     H210383   9.751   3.470   4.097
 3381WAT      O10384   8.919   9.513   4.173
 3381WAT     H110385   8.922   9.520   4.273
 3381WAT     H210386   8.829   9.543   4.141
 3382WAT      O10387   7.337   9.625   2.320
 3382WAT     H110388   7.266   9.685   2.359
 3382WAT     H210389   7.385   9.674   2.247
 3383WAT      O10390   0.844   8.627   0.971
 3383WAT     H110391   0.940   8.610   0.994
 3383WAT     H210392   0.785   8.572   1.029
 3384WAT      O10393   5.827   3.656   3.563
 3384WAT     H110394   5.854   3.580   3.622
 3384WAT     H210395   5.764   3.716   3.612
 3385WAT      O10396   9.010   7.388   4.121
 3385WAT     H110397   8.922   7.416   4.158
 3385WAT     H210398   9.038   7.452   4.049
 3386WAT      O10399   1.700   9.366   3.713
 3386WAT     H110400   1.632   9.309   3.667
 3386WAT     H210401   1.780   9.377   3.654
 3387WAT      O10402   3.257   6.303   7.408
 3387WAT     H110403   3.316   6.281   7.331
 3387WAT     H210404   3.212   6.391   7.392
 3388WAT      O10405   4.629   0.073   4.701
 3388WAT     H110406   4.725   0.047   4.696
 3388WAT     H210407   4.619   0.171   4.680
 3389WAT      O10408   8.488   4.597   6.792
 3389WAT     H110409   8.487   4.526   6.863
 3389WAT     H210410   8.485   4.687   6.835
 3390WAT      O10411   8.890   8.337   8.813
 3390WAT     H110412   8.959   8.343   8.885
 3390WAT     H210413   8.835   8.254   8.825
 3391WAT      O10414   1.894   9.024   6.761
 3391WAT     H110415   1.943   9.088   6.820
 3391WAT     H210416   1.801   9.056   6.747
 3392WAT      O10417   8.865   0.686   5.404
 3392WAT     H110418   8.884   0.590   5.425
 3392WAT     H210419   8.787   0.717   5.459
 3393WAT      O10420   7.671   9.791   3.576
 3393WAT     H110421   7.674   9.867   3.512
 3393WAT     H210422   7.654   9.706   3.527
 3394WAT      O10423   7.096   7.168   1.792
 3394WAT     H110424   7.151   7.234   1.844
 3394WAT     H210425   7.027   7.127   1.851
 3395WAT      O10426   6.810   0.378   4.029
 3395WAT     H110427   6.842   0.284   4.041
 3395WAT     H210428   6.714   0.377   4.002
 3396WAT      O10429   1.720   2.399   0.354
 3396WAT     H110430   1.806   2.350   0.370
 3396WAT     H210431   1.688   2.381   0.261
 3397WAT      O10432   0.961   1.827   0.829
 3397WAT     H110433   1.060   1.833   0.844
 3397WAT     H210434   0.915   1.897   0.884
 3398WAT      O10435   7.092   0.762   4.483
 3398WAT     H110436   7.049   0.767   4.572
 3398WAT     H210437   7.141   0.674   4.474
 3399WAT      O10438   7.686   6.628   3.339
 3399WAT     H110439   7.780   6.607   3.315
 3399WAT     H210440   7.637   6.661   3.258
 3400WAT      O10441   3.958   0.983   7.270
 3400WAT     H110442   3.960   0.944   7.178
 3400WAT     H210443   4.050   0.982   7.309
 3401WAT      O10444   8.244   2.655   6.023
 3401WAT     H110445   8.237   2.695   5.932
 3401WAT     H210446   8.339   2.629   6.041
 3402WAT      O10447   5.964   9.097   7.641
 3402WAT     H110448   5.955   9.003   7.675
 3402WAT     H210449   5.875   9.127   7.605
 3403WAT      O10450   6.297   5.530   8.735
 3403WAT     H110451   6.302   5.594   8.658
 3403WAT     H210452   6.343   5.445   8.710
 3404WAT      O10453   5.360   9.750   3.174
 3404WAT     H110454   5.303   9.816   3.223
 3404WAT     H210455   5.453   9.787   3.166
 3405WAT      O10456   7.494   9.448   8.167
 3405WAT     H110457   7.473   9.483   8.259
 3405WAT     H210458   7.516   9.351   8.173
 3406WAT      O10459   8.811   2.794   7.830
 3406WAT     H110460   8.764   2.728   7.770
 3406WAT     H210461   8.820   2.756   7.921
 3407WAT      O10462   9.211   2.114   7.548
 3407WAT     H110463   9.274   2.036   7.546
 3407WAT     H210464   9.145   2.104   7.474
 3408WAT      O10465   6.852   0.197   6.314
 3408WAT     H110466   6.840   0.292   6.343
 3408WAT     H210467   6.941   0.163   6.346
 3409WAT      O10468   8.827   7.649   7.278
 3409WAT     H110469   8.899   7.668   7.345
 3409WAT     H210470   8.828   7.721   7.208
 3410WAT      O10471   9.628   2.462   3.601
 3410WAT     H110472   9.550   2.508   3.643
 3410WAT     H210473   9.596   2.392   3.538
 3411WAT      O10474   8.191   6.125   3.860
 3411WAT     H110475   8.254   6.068   3.912
 3411WAT     H210476   8.232   6.149   3.772
 3412WAT      O10477   2.420   8.721   0.206
 3412WAT     H110478   2.340   8.683   0.160
 3412WAT     H210479   2.391   8.768   0.289
 3413WAT      O10480   8.549   4.677   2.147
 3413WAT     H110481   8.630   4.620   2.163
 3413WAT     H210482   8.572   4.752   2.085
 3414WAT      O10483   7.789   0.969   6.908
 3414WAT     H110484   7.837   0.882   6.915
 3414WAT     H210485   7.691   0.953   6.908
 3415WAT      O10486   2.901   7.632   6.336
 3415WAT     H110487   2.803   7.632   6.356
 3415WAT     H210488   2.917   7.595   6.245
 3416WAT      O10489   8.046   1.587   3.328
 3416WAT     H110490   7.997   1.643   3.261
 3416WAT     H210491   8.144   1.589   3.308
 3417WAT      O10492   5.654   8.964   8.407
 3417WAT     H110493   5.595   8.884   8.421
 3417WAT     H210494   5.706   8.953   8.323
 3418WAT      O10495   9.413   5.894   4.945
 3418WAT     H110496   9.415   5.959   4.869
 3418WAT     H210497   9.364   5.935   5.022
 3419WAT      O10498   7.175   9.457   9.094
 3419WAT     H110499   7.200   9.472   8.998
 3419WAT     H210500   7.258   9.450   9.149
 3420WAT      O10501   0.039   2.197   3.610
 3420WAT     H110502   0.012   2.144   3.530
 3420WAT     H210503   0.005   2.291   3.601
 3421WAT      O10504   4.744   6.532   0.064
 3421WAT     H110505   4.707   6.440   0.075
 3421WAT     H210506   4.675   6.599   0.090
 3422WAT      O10507   8.946   2.485   0.472
 3422WAT     H110508   8.898   2.531   0.546
 3422WAT     H210509   9.014   2.547   0.432
 3423WAT      O10510   0.569   4.887   6.428
 3423WAT     H110511   0.654   4.935   6.451
 3423WAT     H210512   0.576   4.791   6.456
 3424WAT      O10513   4.132   8.849   0.179
 3424WAT     H110514   4.131   8.772   0.242
 3424WAT     H210515   4.048   8.848   0.124
 3425WAT      O10516   0.911   0.318   1.682
 3425WAT     H110517   0.879   0.274   1.598
 3425WAT     H210518   0.864   0.405   1.694
 3426WAT      O10519   3.498   1.959   9.403
 3426WAT     H110520   3.588   1.920   9.382
 3426WAT     H210521   3.489   1.971   9.502
 3427WAT      O10522   3.725   5.775   2.475
 3427WAT     H110523   3.820   5.768   2.444
 3427WAT     H210524   3.699   5.690   2.520
 3428WAT      O10525   6.367   8.543   8.152
 3428WAT     H110526   6.448   8.602   8.150
 3428WAT     H210527   6.391   8.453   8.116
 3429WAT      O10528   1.005   7.729   4.413
 3429WAT     H110529   0.985   7.771   4.502
 3429WAT     H210530   0.924   7.681   4.379
 3430WAT      O10531   2.559   1.415   7.724
 3430WAT     H110532   2.555   1.508   7.688
 3430WAT     H210533   2.467   1.387   7.752
 3431WAT      O10534   8.233   0.525   8.021
 3431WAT     H110535   8.165   0.581   7.974
 3431WAT     H210536   8.214   0.525   8.120
 3432WAT      O10537   8.225   6.901   2.473
 3432WAT     H110538   8.281   6.983   2.476
 3432WAT     H210539   8.204   6.871   2.566
 3433WAT      O10540   0.191   2.096   8.115
 3433WAT     H110541   0.108   2.040   8.120
 3433WAT     H210542   0.262   2.046   8.065
 3434WAT      O10543   1.726   4.897   4.229
 3434WAT     H110544   1.719   4.862   4.322
 3434WAT     H210545   1.635   4.902   4.187
 3435WAT      O10546   3.442   7.191   6.247
 3435WAT     H110547   3.386   7.141   6.182
 3435WAT     H210548   3.483   7.128   6.313
 3436WAT      O10549   0.004   9.265   4.264
 3436WAT     H110550  -0.048   9.182   4.282
 3436WAT     H210551   0.097   9.241   4.236
 3437WAT      O10552   6.378   4.789   1.179
 3437WAT     H110553   6.440   4.711   1.184
 3437WAT     H210554   6.354   4.806   1.084
 3438WAT      O10555   6.166   4.574   4.157
 3438WAT     H110556   6.193   4.516   4.080
 3438WAT     H210557   6.232   4.648   4.169
 3439WAT      O10558   0.454   2.852   4.890
 3439WAT     H110559   0.435   2.843   4.988
 3439WAT     H210560   0.381   2.903   4.846
 3440WAT      O10561   8.896   9.658   5.684
 3440WAT     H110562   8.927   9.728   5.748
 3440WAT     H210563   8.935   9.675   5.594
 3441WAT      O10564   1.131   1.885   3.131
 3441WAT     H110565   1.107   1.800   3.179
 3441WAT     H210566   1.230   1.897   3.132
 3442WAT      O10567   3.789   9.728   2.590
 3442WAT     H110568   3.856   9.666   2.548
 3442WAT     H210569   3.698   9.708   2.554
 3443WAT      O10570   9.358   8.378   9.240
 3443WAT     H110571   9.356   8.361   9.141
 3443WAT     H210572   9.358   8.290   9.288
 3444WAT      O10573   2.127   4.726   3.494
 3444WAT     H110574   2.108   4.777   3.410
 3444WAT     H210575   2.158   4.790   3.565
 3445WAT      O10576   2.776   6.783   3.921
 3445WAT     H110577   2.865   6.790   3.877
 3445WAT     H210578   2.765   6.858   3.986
 3446WAT      O10579   2.178   9.608   0.821
 3446WAT     H110580   2.183   9.705   0.796
 3446WAT     H210581   2.084   9.584   0.845
 3447WAT      O10582   4.654   5.316   9.475
 3447WAT     H110583   4.596   5.334   9.555
 3447WAT     H210584   4.604   5.260   9.410
 3448WAT      O10585   3.690   7.503   1.775
 3448WAT     H110586   3.615   7.511   1.709
 3448WAT     H210587   3.720   7.594   1.803
 3449WAT      O10588   8.309   0.835   1.241
 3449WAT     H110589   8.217   0.803   1.217
 3449WAT     H210590   8.340   0.901   1.172
 3450WAT      O10591   4.651   1.276   6.265
 3450WAT     H110592   4.721   1.337   6.302
 3450WAT     H210593   4.642   1.292   6.167
 3451WAT      O10594   5.469   9.532   5.086
 3451WAT     H110595   5.567   9.525   5.107
 3451WAT     H210596   5.447   9.468   5.012
 3452WAT      O10597   7.579   7.370   5.145
 3452WAT     H110598   7.643   7.366   5.069
 3452WAT     H210599   7.528   7.284   5.152
 3453WAT      O10600   6.250   5.792   0.970
 3453WAT     H110601   6.344   5.761   0.955
 3453WAT     H210602   6.192   5.757   0.896
 3454WAT      O10603   7.866   9.439   5.146
 3454WAT     H110604   7.830   9.395   5.064
 3454WAT     H210605   7.875   9.538   5.129
 3455WAT      O10606   2.007   8.147   1.621
 3455WAT     H110607   2.038   8.132   1.715
 3455WAT     H210608   2.086   8.144   1.560
 3456WAT      O10609   2.069   2.497   8.473
 3456WAT     H110610   1.978   2.476   8.508
 3456WAT     H210611   2.061   2.548   8.387
 3457WAT      O10612   6.100   4.682   7.606
 3457WAT     H110613   6.123   4.747   7.534
 3457WAT     H210614   6.097   4.730   7.694
 3458WAT      O10615   7.530   7.168   7.186
 3458WAT     H110616   7.516   7.134   7.279
 3458WAT     H210617   7.627   7.167   7.164
 3459WAT      O10618   4.312   5.777   1.262
 3459WAT     H110619   4.398   5.760   1.310
 3459WAT     H210620   4.270   5.689   1.237
 3460WAT      O10621   8.335   9.219   2.517
 3460WAT     H110622   8.428   9.226   2.479
 3460WAT     H210623   8.338   9.164   2.601
 3461WAT      O10624   4.478   2.425   3.839
 3461WAT     H110625   4.491   2.520   3.868
 3461WAT     H210626   4.384   2.397   3.859
 3462WAT      O10627   3.066   0.095   5.996
 3462WAT     H110628   3.135   0.024   6.005
 3462WAT     H210629   3.073   0.137   5.906
 3463WAT      O10630   0.769   6.373   9.127
 3463WAT     H110631   0.858   6.331   9.107
 3463WAT     H210632   0.782   6.450   9.189
 3464WAT      O10633   7.829   7.232   2.067
 3464WAT     H110634   7.805   7.137   2.044
 3464WAT     H210635   7.928   7.242   2.065
 3465WAT      O10636   2.678   4.284   3.274
 3465WAT     H110637   2.652   4.212   3.210
 3465WAT     H210638   2.656   4.256   3.368
 3466WAT      O10639   2.987   9.627   9.639
 3466WAT     H110640   2.989   9.585   9.730
 3466WAT     H210641   3.080   9.650   9.611
 3467WAT      O10642   8.306   8.476   2.097
 3467WAT     H110643   8.301   8.433   2.007
 3467WAT     H210644   8.230   8.540   2.108
 3468WAT      O10645   7.687   8.789   9.026
 3468WAT     H110646   7.760   8.792   8.958
 3468WAT     H210647   7.674   8.881   9.064
 3469WAT      O10648   9.399   6.212   9.059
 3469WAT     H110649   9.340   6.251   9.130
 3469WAT     H210650   9.354   6.132   9.019
 3470WAT      O10651   2.175   7.630   6.126
 3470WAT     H110652   2.090   7.683   6.121
 3470WAT     H210653   2.155   7.533   6.123
 3471WAT      O10654   4.077   8.570   2.933
 3471WAT     H110655   4.172   8.594   2.953
 3471WAT     H210656   4.053   8.603   2.842
 3472WAT      O10657   4.356   0.377   7.076
 3472WAT     H110658   4.285   0.313   7.047
 3472WAT     H210659   4.440   0.326   7.097
 3473WAT      O10660   4.788   0.486   5.350
 3473WAT     H110661   4.886   0.483   5.333
 3473WAT     H210662   4.742   0.414   5.299
 3474WAT      O10663   1.971   7.136   0.816
 3474WAT     H110664   2.046   7.075   0.841
 3474WAT     H210665   1.982   7.223   0.863
 3475WAT      O10666   1.610   2.105   2.411
 3475WAT     H110667   1.647   2.149   2.329
 3475WAT     H210668   1.684   2.059   2.460
 3476WAT      O10669   6.437   7.881   0.650
 3476WAT     H110670   6.418   7.979   0.649
 3476WAT     H210671   6.386   7.838   0.725
 3477WAT      O10672   3.253   3.401   3.030
 3477WAT     H110673   3.323   3.417   2.960
 3477WAT     H210674   3.211   3.312   3.015
 3478WAT      O10675   2.829   2.181   2.576
 3478WAT     H110676   2.875   2.100   2.538
 3478WAT     H210677   2.732   2.178   2.552
 3479WAT      O10678   1.896   0.934   5.045
 3479WAT     H110679   1.931   0.865   5.109
 3479WAT     H210680   1.953   0.935   4.963
 3480WAT      O10681   6.344   6.675   4.164
 3480WAT     H110682   6.262   6.714   4.122
 3480WAT     H210683   6.358   6.582   4.130
 3481WAT      O10684   7.652   1.265   7.074
 3481WAT     H110685   7.557   1.256   7.046
 3481WAT     H210686   7.667   1.216   7.160
 3482WAT      O10687   8.627   8.429   0.547
 3482WAT     H110688   8.579   8.402   0.631
 3482WAT     H210689   8.564   8.479   0.488
 3483WAT      O10690   0.866   9.561   6.451
 3483WAT     H110691   0.799   9.589   6.382
 3483WAT     H210692   0.821   9.556   6.540
 3484WAT      O10693   0.700   1.641   5.004
 3484WAT     H110694   0.718   1.567   4.939
 3484WAT     H210695   0.721   1.609   5.096
 3485WAT      O10696   2.463   0.439   3.239
 3485WAT     H110697   2.534   0.508   3.255
 3485WAT     H210698   2.495   0.373   3.172
 3486WAT      O10699   0.942   0.920   7.694
 3486WAT     H110700   1.005   0.952   7.765
 3486WAT     H210701   0.852   0.962   7.708
 3487WAT      O10702   4.259   8.624   1.075
 3487WAT     H110703   4.190   8.620   1.004
 3487WAT     H210704   4.311   8.709   1.067
 3488WAT      O10705   1.007   3.516   5.647
 3488WAT     H110706   0.937   3.444   5.650
 3488WAT     H210707   0.971   3.599   5.690
 3489WAT      O10708   5.882   1.426   1.604
 3489WAT     H110709   5.918   1.498   1.544
 3489WAT     H210710   5.881   1.339   1.555
 3490WAT      O10711   3.111   8.088   7.062
 3490WAT     H110712   3.013   8.074   7.076
 3490WAT     H210713   3.155   8.001   7.040
 3491WAT      O10714   9.613   3.746   3.519
 3491WAT     H110715   9.520   3.777   3.501
 3491WAT     H210716   9.615   3.697   3.606
 3492WAT      O10717   3.380   8.705   6.693
 3492WAT     H110718   3.317   8.659   6.631
 3492WAT     H210719   3.427   8.637   6.750
 3493WAT      O10720   6.077   9.258   1.204
 3493WAT     H110721   6.129   9.212   1.275
 3493WAT     H210722   6.063   9.196   1.127
 3494WAT      O10723   5.604   5.053   2.156
 3494WAT     H110724   5.635   5.145   2.132
 3494WAT     H210725   5.669   4.985   2.121
 3495WAT      O10726   5.775   9.714   9.062
 3495WAT     H110727   5.726   9.671   9.138
 3495WAT     H210728   5.733   9.688   8.976
 3496WAT      O10729   0.838   1.969   9.294
 3496WAT     H110730   0.841   1.974   9.194
 3496WAT     H210731   0.770   1.902   9.322
 3497WAT      O10732   1.030   7.981   7.165
 3497WAT     H110733   1.001   8.046   7.095
 3497WAT     H210734   1.127   7.995   7.185
 3498WAT      O10735   8.807   9.832   3.963
 3498WAT     H110736   8.781   9.769   4.037
 3498WAT     H210737   8.863   9.783   3.896
 3499WAT      O10738   1.155   6.505   9.266
 3499WAT     H110739   1.137   6.416   9.224
 3499WAT     H210740   1.252   6.512   9.289
 3500WAT      O10741   1.554   1.186   1.186
 3500WAT     H110742   1.556   1.102   1.130
 3500WAT     H210743   1.645   1.203   1.223
 3501WAT      O10744   1.801   0.636   1.345
 3501WAT     H110745   1.760   0.644   1.435
 3501WAT     H210746   1.873   0.705   1.335
 3502WAT      O10747   4.045   5.176   8.751
 3502WAT     H110748   4.025   5.085   8.789
 3502WAT     H210749   3.980   5.242   8.787
 3503WAT      O10750   3.888   3.325   2.304
 3503WAT     H110751   3.955   3.250   2.303
 3503WAT     H210752   3.930   3.407   2.265
 3504WAT      O10753   7.589   2.474   3.249
 3504WAT     H110754   7.601   2.495   3.152
 3504WAT     H210755   7.624   2.382   3.267
 3505WAT      O10756   0.327   1.804   6.353
 3505WAT     H110757   0.400   1.742   6.325
 3505WAT     H210758   0.309   1.870   6.280
 3506WAT      O10759   2.725   6.281   9.751
 3506WAT     H110760   2.705   6.325   9.663
 3506WAT     H210761   2.743   6.350   9.820
 3507WAT      O10762   8.347   2.506   7.866
 3507WAT     H110763   8.407   2.570   7.819
 3507WAT     H210764   8.326   2.429   7.806
 3508WAT      O10765   7.390   4.460   8.743
 3508WAT     H110766   7.382   4.399   8.822
 3508WAT     H210767   7.467   4.432   8.686
 3509WAT      O10768   7.829   3.488   4.932
 3509WAT     H110769   7.734   3.496   4.901
 3509WAT     H210770   7.891   3.515   4.858
 3510WAT      O10771   5.568   6.392   5.747
 3510WAT     H110772   5.593   6.367   5.653
 3510WAT     H210773   5.578   6.491   5.758
 3511WAT      O10774   6.653   5.532   0.022
 3511WAT     H110775   6.662   5.580   0.109
 3511WAT     H210776   6.561   5.494   0.013
 3512WAT      O10777   7.840   2.843   6.806
 3512WAT     H110778   7.813   2.887   6.892
 3512WAT     H210779   7.895   2.906   6.752
 3513WAT      O10780   7.142   9.624   6.909
 3513WAT     H110781   7.042   9.616   6.911
 3513WAT     H210782   7.181   9.537   6.880
 3514WAT      O10783   2.703   9.076   5.170
 3514WAT     H110784   2.648   9.134   5.230
 3514WAT     H210785   2.752   9.009   5.225
 3515WAT      O10786   9.066   0.359   7.037
 3515WAT     H110787   9.015   0.440   7.006
 3515WAT     H210788   9.006   0.279   7.032
 3516WAT      O10789   1.401   9.640   8.250
 3516WAT     H110790   1.391   9.691   8.335
 3516WAT     H210791   1.360   9.691   8.174
 3517WAT      O10792   7.331   1.352   0.886
 3517WAT     H110793   7.372   1.432   0.841
 3517WAT     H210794   7.233   1.351   0.867
 3518WAT      O10795   1.943   1.730   6.525
 3518WAT     H110796   1.974   1.756   6.434
 3518WAT     H210797   1.880   1.801   6.560
 3519WAT      O10798   0.080   7.301   7.652
 3519WAT     H110799   0.055   7.398   7.659
 3519WAT     H210800   0.128   7.272   7.735
 3520WAT      O10801   5.022   9.089   6.228
 3520WAT     H110802   5.082   9.043   6.163
 3520WAT     H210803   4.942   9.033   6.246
 3521WAT      O10804   9.142   8.589   3.240
 3521WAT     H110805   9.185   8.561   3.326
 3521WAT     H210806   9.044   8.571   3.245
 3522WAT      O10807   3.760   9.159   1.251
 3522WAT     H110808   3.785   9.247   1.291
 3522WAT     H210809   3.666   9.137   1.276
 3523WAT      O10810   2.905   2.007   9.843
 3523WAT     H110811   2.884   2.099   9.876
 3523WAT     H210812   2.838   1.942   9.880
 3524WAT      O10813   6.053   3.121   7.353
 3524WAT     H110814   6.006   3.184   7.415
 3524WAT     H210815   5.987   3.054   7.318
 3525WAT      O10816   6.986   9.299   0.702
 3525WAT     H110817   7.022   9.381   0.657
 3525WAT     H210818   6.888   9.310   0.717
 3526WAT      O10819   6.189   0.006   3.543
 3526WAT     H110820   6.198   0.106   3.539
 3526WAT     H210821   6.094  -0.020   3.531
 3527WAT      O10822   6.583   3.332   0.126
 3527WAT     H110823   6.647   3.404   0.153
 3527WAT     H210824   6.496   3.374   0.099
 3528WAT      O10825   7.014   1.780   1.659
 3528WAT     H110826   7.067   1.841   1.599
 3528WAT     H210827   6.969   1.710   1.603
 3529WAT      O10828   3.492   9.496   9.226
 3529WAT     H110829   3.430   9.467   9.153
 3529WAT     H210830   3.529   9.587   9.205
 3530WAT      O10831   1.568   4.466   4.431
 3530WAT     H110832   1.647   4.475   4.371
 3530WAT     H210833   1.502   4.538   4.410
 3531WAT      O10834   7.820   7.019   2.460
 3531WAT     H110835   7.778   7.053   2.376
 3531WAT     H210836   7.882   6.943   2.439
 3532WAT      O10837   1.261   9.678   6.816
 3532WAT     H110838   1.165   9.655   6.801
 3532WAT     H210839   1.280   9.676   6.914
 3533WAT      O10840   4.929   9.393   5.111
 3533WAT     H110841   4.883   9.364   5.027
 3533WAT     H210842   4.868   9.380   5.189
 3534WAT      O10843   2.289   1.684   1.807
 3534WAT     H110844   2.204   1.708   1.854
 3534WAT     H210845   2.292   1.729   1.718
 3535WAT      O10846   1.799   9.276   2.585
 3535WAT     H110847   1.765   9.360   2.626
 3535WAT     H210848   1.785   9.279   2.486
 3536WAT      O10849   5.668   5.373   8.283
 3536WAT     H110850   5.717   5.296   8.322
 3536WAT     H210851   5.608   5.414   8.352
 3537WAT      O10852   5.605   5.394   7.422
 3537WAT     H110853   5.553   5.426   7.342
 3537WAT     H210854   5.550   5.329   7.474
 3538WAT      O10855   0.881   2.218   1.149
 3538WAT     H110856   0.954   2.168   1.195
 3538WAT     H210857   0.794   2.201   1.196
 3539WAT      O10858   5.507   6.098   1.918
 3539WAT     H110859   5.598   6.062   1.939
 3539WAT     H210860   5.438   6.032   1.948
 3540WAT      O10861   5.114   8.727   4.075
 3540WAT     H110862   5.141   8.657   4.010
 3540WAT     H210863   5.171   8.721   4.157
 3541WAT      O10864   2.466   8.037   7.679
 3541WAT     H110865   2.545   8.057   7.622
 3541WAT     H210866   2.464   8.101   7.756
 3542WAT      O10867   8.844   0.885   3.847
 3542WAT     H110868   8.835   0.787   3.859
 3542WAT     H210869   8.887   0.924   3.929
 3543WAT      O10870   2.636   7.125   2.457
 3543WAT     H110871   2.617   7.152   2.551
 3543WAT     H210872   2.552   7.133   2.402
 3544WAT      O10873   1.495   1.307   6.133
 3544WAT     H110874   1.523   1.211   6.127
 3544WAT     H210875   1.400   1.316   6.104
 3545WAT      O10876   2.393   4.029   8.181
 3545WAT     H110877   2.406   4.118   8.223
 3545WAT     H210878   2.296   4.005   8.182
 3546WAT      O10879   7.479   6.988   5.840
 3546WAT     H110880   7.399   6.929   5.834
 3546WAT     H210881   7.462   7.073   5.789
 3547WAT      O10882   4.088   0.230   8.740
 3547WAT     H110883   4.110   0.325   8.720
 3547WAT     H210884   4.002   0.205   8.694
 3548WAT      O10885   1.168   8.571   3.765
 3548WAT     H110886   1.186   8.669   3.757
 3548WAT     H210887   1.235   8.520   3.710
 3549WAT      O10888   2.423   1.087   6.911
 3549WAT     H110889   2.344   1.058   6.857
 3549WAT     H210890   2.425   1.187   6.917
 3550WAT      O10891   8.919   6.453   3.937
 3550WAT     H110892   8.902   6.355   3.932
 3550WAT     H210893   8.856   6.501   3.875
 3551WAT      O10894   4.148   2.076   8.390
 3551WAT     H110895   4.143   2.092   8.291
 3551WAT     H210896   4.074   2.016   8.418
 3552WAT      O10897   0.309   4.856   5.971
 3552WAT     H110898   0.377   4.827   5.903
 3552WAT     H210899   0.338   4.824   6.062
 3553WAT      O10900   4.757   0.332   9.839
 3553WAT     H110901   4.710   0.353   9.754
 3553WAT     H210902   4.792   0.238   9.835
 3554WAT      O10903   5.562   5.775   4.751
 3554WAT     H110904   5.514   5.855   4.789
 3554WAT     H210905   5.636   5.806   4.692
 3555WAT      O10906   6.717   9.773   0.036
 3555WAT     H110907   6.682   9.719  -0.041
 3555WAT     H210908   6.743   9.863   0.004
 3556WAT      O10909   6.878   3.936   0.502
 3556WAT     H110910   6.784   3.927   0.537
 3556WAT     H210911   6.925   3.849   0.511
 3557WAT      O10912   8.632   2.839   7.302
 3557WAT     H110913   8.641   2.845   7.203
 3557WAT     H210914   8.672   2.753   7.334
 3558WAT      O10915   0.357   8.584   9.767
 3558WAT     H110916   0.317   8.532   9.692
 3558WAT     H210917   0.339   8.538   9.854
 3559WAT      O10918   7.253   8.320   8.441
 3559WAT     H110919   7.326   8.264   8.403
 3559WAT     H210920   7.220   8.278   8.526
 3560WAT      O10921   8.157   1.696   7.772
 3560WAT     H110922   8.085   1.637   7.809
 3560WAT     H210923   8.162   1.684   7.672
 3561WAT      O10924   6.181   9.354   5.155
 3561WAT     H110925   6.138   9.432   5.201
 3561WAT     H210926   6.182   9.276   5.217
 3562WAT      O10927   9.223   2.984   6.044
 3562WAT     H110928   9.303   3.032   6.081
 3562WAT     H210929   9.149   2.985   6.111
 3563WAT      O10930   6.646   8.223   5.732
 3563WAT     H110931   6.608   8.241   5.823
 3563WAT     H210932   6.746   8.221   5.737
 3564WAT      O10933   4.837   0.967   1.108
 3564WAT     H110934   4.919   0.955   1.164
 3564WAT     H210935   4.853   0.929   1.017
 3565WAT      O10936   6.667   2.827   6.073
 3565WAT     H110937   6.610   2.845   6.154
 3565WAT     H210938   6.654   2.733   6.043
 3566WAT      O10939   1.952   3.388   7.775
 3566WAT     H110940   2.006   3.335   7.841
 3566WAT     H210941   1.965   3.485   7.792
 3567WAT      O10942   9.099   2.913   4.372
 3567WAT     H110943   9.131   2.966   4.293
 3567WAT     H210944   9.168   2.844   4.396
 3568WAT      O10945   8.104   0.815   0.610
 3568WAT     H110946   8.045   0.742   0.645
 3568WAT     H210947   8.199   0.782   0.608
 3569WAT      O10948   0.152   5.731   6.340
 3569WAT     H110949   0.163   5.784   6.256
 3569WAT     H210950   0.103   5.647   6.321
 3570WAT      O10951   4.174   2.440   4.210
 3570WAT     H110952   4.106   2.394   4.267
 3570WAT     H210953   4.257   2.456   4.263
 3571WAT      O10954   8.550   6.825   7.827
 3571WAT     H110955   8.631   6.868   7.869
 3571WAT     H210956   8.553   6.838   7.728
 3572WAT      O10957   4.227   2.163   3.321
 3572WAT     H110958   4.199   2.186   3.414
 3572WAT     H210959   4.321   2.194   3.306
 3573WAT      O10960   7.865   7.061   1.594
 3573WAT     H110961   7.781   7.107   1.567
 3573WAT     H210962   7.848   7.004   1.674
 3574WAT      O10963   9.127   2.524   2.188
 3574WAT     H110964   9.096   2.611   2.151
 3574WAT     H210965   9.218   2.503   2.152
 3575WAT      O10966   6.334   0.527   0.371
 3575WAT     H110967   6.354   0.616   0.413
 3575WAT     H210968   6.358   0.454   0.434
 3576WAT      O10969   0.909   9.690   2.294
 3576WAT     H110970   0.859   9.674   2.209
 3576WAT     H210971   0.944   9.603   2.329
 3577WAT      O10972   6.621   6.694   8.981
 3577WAT     H110973   6.672   6.663   9.062
 3577WAT     H210974   6.681   6.745   8.921
 3578WAT      O10975   0.759   8.305   8.929
 3578WAT     H110976   0.812   8.277   9.008
 3578WAT     H210977   0.807   8.279   8.845
 3579WAT      O10978   8.518   1.119   3.594
 3579WAT     H110979   8.547   1.035   3.548
 3579WAT     H210980   8.443   1.161   3.543
 3580WAT      O10981   5.609   7.653   9.022
 3580WAT     H110982   5.624   7.750   9.003
 3580WAT     H210983   5.675   7.622   9.091
 3581WAT      O10984   7.944   0.685   0.781
 3581WAT     H110985   7.886   0.604   0.773
 3581WAT     H210986   7.966   0.702   0.877
 3582WAT      O10987   7.583   3.973   4.849
 3582WAT     H110988   7.607   3.912   4.925
 3582WAT     H210989   7.486   3.965   4.828
 3583WAT      O10990   6.094   2.676   5.285
 3583WAT     H110991   6.004   2.715   5.306
 3583WAT     H210992   6.103   2.588   5.331
 3584WAT      O10993   5.004   1.265   0.289
 3584WAT     H110994   5.067   1.336   0.257
 3584WAT     H210995   5.056   1.183   0.313
 3585WAT      O10996   8.118   3.635   4.022
 3585WAT     H110997   8.162   3.725   4.022
 3585WAT     H210998   8.104   3.605   3.928
 3586WAT      O10999   1.597   9.680   3.075
 3586WAT     H111000   1.541   9.656   3.154
 3586WAT     H211001   1.611   9.779   3.074
 3587WAT      O11002   6.193   4.751   6.537
 3587WAT     H111003   6.287   4.743   6.504
 3587WAT     H211004   6.176   4.680   6.606
 3588WAT      O11005   6.902   2.094   1.419
 3588WAT     H111006   6.962   2.029   1.466
 3588WAT     H211007   6.947   2.127   1.336
 3589WAT      O11008   6.588   6.712   6.569
 3589WAT     H111009   6.667   6.763   6.536
 3589WAT     H211010   6.549   6.758   6.649
 3590WAT      O11011   5.248   9.652   7.548
 3590WAT     H111012   5.248   9.633   7.450
 3590WAT     H211013   5.333   9.619   7.589
 3591WAT      O11014   5.029   6.590   8.358
 3591WAT     H111015   4.963   6.580   8.284
 3591WAT     H211016   4.990   6.557   8.444
 3592WAT      O11017   5.536   8.181   0.211
 3592WAT     H111018   5.630   8.209   0.190
 3592WAT     H211019   5.478   8.195   0.131
 3593WAT      O11020   5.323   8.619   3.446
 3593WAT     H111021   5.399   8.556   3.432
 3593WAT     H211022   5.240   8.581   3.403
 3594WAT      O11023   7.245   6.993   4.106
 3594WAT     H111024   7.339   7.003   4.074
 3594WAT     H211025   7.245   6.965   4.202
 3595WAT      O11026   6.577   1.342   4.989
 3595WAT     H111027   6.481   1.359   5.010
 3595WAT     H211028   6.626   1.317   5.073
 3596WAT      O11029   6.837   1.742   2.213
 3596WAT     H111030   6.755   1.777   2.168
 3596WAT     H211031   6.843   1.643   2.198
 3597WAT      O11032   6.412   2.253   9.796
 3597WAT     H111033   6.459   2.291   9.875
 3597WAT     H211034   6.463   2.175   9.760
 3598WAT      O11035   7.330   0.153   5.363
 3598WAT     H111036   7.407   0.191   5.413
 3598WAT     H211037   7.358   0.071   5.314
 3599WAT      O11038   4.077   4.375   2.527
 3599WAT     H111039   4.151   4.407   2.469
 3599WAT     H211040   4.062   4.277   2.511
 3600WAT      O11041   6.450   6.426   8.417
 3600WAT     H111042   6.518   6.421   8.490
 3600WAT     H211043   6.358   6.422   8.457
 3601WAT      O11044   2.950   2.281   8.032
 3601WAT     H111045   3.024   2.299   8.097
 3601WAT     H211046   2.959   2.341   7.953
 3602WAT      O11047   7.988   6.814   2.330
 3602WAT     H111048   8.063   6.833   2.394
 3602WAT     H211049   7.953   6.721   2.347
 3603WAT      O11050   0.622   4.978   5.637
 3603WAT     H111051   0.585   4.894   5.677
 3603WAT     H211052   0.581   5.057   5.683
 3604WAT      O11053   6.923   9.814   5.584
 3604WAT     H111054   7.017   9.850   5.582
 3604WAT     H211055   6.915   9.740   5.518
 3605WAT      O11056   8.221   9.180   3.558
 3605WAT     H111057   8.246   9.276   3.568
 3605WAT     H211058   8.284   9.123   3.612
 3606WAT      O11059   6.095   7.177   4.308
 3606WAT     H111060   6.057   7.086   4.293
 3606WAT     H211061   6.189   7.169   4.339
 3607WAT      O11062   2.800   8.197   7.887
 3607WAT     H111063   2.757   8.108   7.905
 3607WAT     H211064   2.782   8.223   7.792
 3608WAT      O11065   7.318   3.090   2.359
 3608WAT     H111066   7.361   3.141   2.285
 3608WAT     H211067   7.333   3.137   2.446
 3609WAT      O11068   2.874   7.472   8.398
 3609WAT     H111069   2.876   7.470   8.298
 3609WAT     H211070   2.796   7.527   8.428
 3610WAT      O11071   3.198   3.959   2.783
 3610WAT     H111072   3.151   4.039   2.744
 3610WAT     H211073   3.257   3.988   2.858
 3611WAT      O11074   2.421   8.688   7.078
 3611WAT     H111075   2.473   8.602   7.081
 3611WAT     H211076   2.426   8.725   6.985
 3612WAT      O11077   9.444   4.145   5.923
 3612WAT     H111078   9.512   4.116   5.856
 3612WAT     H211079   9.408   4.064   5.970
 3613WAT      O11080   6.375   1.871   2.334
 3613WAT     H111081   6.328   1.799   2.282
 3613WAT     H211082   6.344   1.869   2.429
 3614WAT      O11083   1.816   2.775   5.356
 3614WAT     H111084   1.838   2.721   5.438
 3614WAT     H211085   1.754   2.723   5.297
 3615WAT      O11086   3.288   0.306   3.851
 3615WAT     H111087   3.292   0.316   3.752
 3615WAT     H211088   3.246   0.218   3.874
 3616WAT      O11089   1.313   9.648   1.638
 3616WAT     H111090   1.262   9.593   1.571
 3616WAT     H211091   1.376   9.708   1.589
 3617WAT      O11092   2.722   4.936   5.892
 3617WAT     H111093   2.737   5.009   5.826
 3617WAT     H211094   2.737   4.971   5.984
 3618WAT      O11095   0.709   2.279   5.501
 3618WAT     H111096   0.672   2.318   5.416
 3618WAT     H211097   0.775   2.207   5.478
 3619WAT      O11098   0.865   1.134   7.112
 3619WAT     H111099   0.773   1.147   7.148
 3619WAT     H211100   0.909   1.223   7.100
 3620WAT      O11101   0.925   6.326   0.321
 3620WAT     H111102   0.917   6.233   0.355
 3620WAT     H211103   0.924   6.325   0.221
 3621WAT      O11104   8.892   3.348   4.408
 3621WAT     H111105   8.991   3.357   4.417
 3621WAT     H211106   8.857   3.290   4.481
 3622WAT      O11107   2.000   9.635   7.324
 3622WAT     H111108   2.077   9.598   7.377
 3622WAT     H211109   1.922   9.648   7.384
 3623WAT      O11110   5.052   1.117   5.074
 3623WAT     H111111   4.976   1.057   5.050
 3623WAT     H211112   5.019   1.211   5.083
 3624WAT      O11113   2.197   0.479   0.009
 3624WAT     H111114   2.244   0.397  -0.024
 3624WAT     H211115   2.219   0.556  -0.050
 3625WAT      O11116   3.106   5.125   8.196
 3625WAT     H111117   3.134   5.034   8.225
 3625WAT     H211118   3.160   5.194   8.242
 3626WAT      O11119   8.320   9.136   8.087
 3626WAT     H111120   8.258   9.134   8.165
 3626WAT     H211121   8.343   9.043   8.059
 3627WAT      O11122   6.489   4.115   6.275
 3627WAT     H111123   6.543   4.059   6.338
 3627WAT     H211124   6.535   4.202   6.259
 3628WAT      O11125   4.738   6.475   9.692
 3628WAT     H111126   4.742   6.563   9.644
 3628WAT     H211127   4.749   6.490   9.790
 3629WAT      O11128   3.781   6.108   1.469
 3629WAT     H111129   3.743   6.024   1.507
 3629WAT     H211130   3.838   6.154   1.537
 3630WAT      O11131   3.983   7.520   9.604
 3630WAT     H111132   4.046   7.596   9.589
 3630WAT     H211133   3.890   7.556   9.612
 3631WAT      O11134   5.336   5.261   4.189
 3631WAT     H111135   5.397   5.237   4.114
 3631WAT     H211136   5.331   5.185   4.254
 3632WAT      O11137   2.796   2.946   0.308
 3632WAT     H111138   2.717   2.956   0.369
 3632WAT     H211139   2.874   2.913   0.360
 3633WAT      O11140   8.801   5.545   2.168
 3633WAT     H111141   8.880   5.607   2.167
 3633WAT     H211142   8.807   5.482   2.092
 3634WAT      O11143   7.943   1.875   7.609
 3634WAT     H111144   7.938   1.817   7.527
 3634WAT     H211145   8.038   1.883   7.638
 3635WAT      O11146   9.164   5.733   8.966
 3635WAT     H111147   9.253   5.744   9.011
 3635WAT     H211148   9.116   5.821   8.966
 3636WAT      O11149   0.385   4.960   2.821
 3636WAT     H111150   0.404   5.056   2.800
 3636WAT     H211151   0.422   4.938   2.911
 3637WAT      O11152   5.413   7.008   8.044
 3637WAT     H111153   5.332   6.975   8.093
 3637WAT     H211154   5.445   7.093   8.086
 3638WAT      O11155   8.569   2.347   4.103
 3638WAT     H111156   8.499   2.334   4.174
 3638WAT     H211157   8.578   2.445   4.084
 3639WAT      O11158   4.676   8.889   6.926
 3639WAT     H111159   4.627   8.942   6.996
 3639WAT     H211160   4.773   8.914   6.928
 3640WAT      O11161   6.323   8.069   5.916
 3640WAT     H111162   6.248   8.135   5.911
 3640WAT     H211163   6.297   7.993   5.974
 3641WAT      O11164   6.533   0.395   6.004
 3641WAT     H111165   6.597   0.470   6.021
 3641WAT     H211166   6.519   0.343   6.088
 3642WAT      O11167   0.471   3.360   1.129
 3642WAT     H111168   0.488   3.292   1.200
 3642WAT     H211169   0.532   3.344   1.052
 3643WAT      O11170   1.481   8.912   3.212
 3643WAT     H111171   1.483   9.011   3.195
 3643WAT     H211172   1.521   8.893   3.301
 3644WAT      O11173   2.775   6.715   9.062
 3644WAT     H111174   2.688   6.755   9.032
 3644WAT     H211175   2.821   6.672   8.984
 3645WAT      O11176   4.625   0.169   9.293
 3645WAT     H111177   4.609   0.250   9.236
 3645WAT     H211178   4.537   0.129   9.320
 3646WAT      O11179   6.636   8.102   9.214
 3646WAT     H111180   6.560   8.041   9.192
 3646WAT     H211181   6.643   8.113   9.313
 3647WAT      O11182   9.528   9.137   0.340
 3647WAT     H111183   9.485   9.123   0.429
 3647WAT     H211184   9.625   9.111   0.346
 3648WAT      O11185   6.819   5.443   7.374
 3648WAT     H111186   6.910   5.427   7.335
 3648WAT     H211187   6.808   5.541   7.394
 3649WAT      O11188   5.401   6.622   2.187
 3649WAT     H111189   5.406   6.542   2.247
 3649WAT     H211190   5.406   6.592   2.092
 3650WAT      O11191   5.098   3.341   9.132
 3650WAT     H111192   5.094   3.400   9.212
 3650WAT     H211193   5.109   3.397   9.050
 3651WAT      O11194   4.376   2.250   4.862
 3651WAT     H111195   4.365   2.286   4.954
 3651WAT     H211196   4.291   2.262   4.811
 3652WAT      O11197   4.281   6.957   6.375
 3652WAT     H111198   4.328   7.026   6.319
 3652WAT     H211199   4.287   6.983   6.471
 3653WAT      O11200   5.177   4.745   0.559
 3653WAT     H111201   5.223   4.834   0.561
 3653WAT     H211202   5.145   4.723   0.652
 3654WAT      O11203   1.090   4.487   2.415
 3654WAT     H111204   1.003   4.442   2.434
 3654WAT     H211205   1.156   4.420   2.381
 3655WAT      O11206   5.542   0.467   5.419
 3655WAT     H111207   5.507   0.476   5.325
 3655WAT     H211208   5.638   0.439   5.416
 3656WAT      O11209   4.149   2.191   3.608
 3656WAT     H111210   4.215   2.265   3.621
 3656WAT     H211211   4.060   2.230   3.584
 3657WAT      O11212   0.397   6.472   1.979
 3657WAT     H111213   0.395   6.376   2.007
 3657WAT     H211214   0.417   6.478   1.881
 3658WAT      O11215   1.032   7.381   9.120
 3658WAT     H111216   1.044   7.282   9.111
 3658WAT     H211217   0.942   7.407   9.085
 3659WAT      O11218   7.909   0.902   9.063
 3659WAT     H111219   7.835   0.929   9.001
 3659WAT     H211220   7.878   0.827   9.121
 3660WAT      O11221   2.532   6.314   7.308
 3660WAT     H111222   2.478   6.320   7.392
 3660WAT     H211223   2.625   6.284   7.330
 3661WAT      O11224   1.598   0.760   1.838
 3661WAT     H111225   1.582   0.805   1.750
 3661WAT     H211226   1.648   0.821   1.898
 3662WAT      O11227   8.901   0.741   7.719
 3662WAT     H111228   8.878   0.789   7.804
 3662WAT     H211229   8.818   0.697   7.683
 3663WAT      O11230   3.691   9.780   9.725
 3663WAT     H111231   3.749   9.862   9.723
 3663WAT     H211232   3.618   9.792   9.792
 3664WAT      O11233   9.569   6.136   1.974
 3664WAT     H111234   9.554   6.062   2.040
 3664WAT     H211235   9.481   6.166   1.938
 3665WAT      O11236   6.353   6.958   3.987
 3665WAT     H111237   6.431   6.958   4.049
 3665WAT     H211238   6.323   7.052   3.970
 3666WAT      O11239   8.278   4.558   1.237
 3666WAT     H111240   8.371   4.527   1.218
 3666WAT     H211241   8.271   4.656   1.218
 3667WAT      O11242   7.391   5.863   0.550
 3667WAT     H111243   7.449   5.796   0.597
 3667WAT     H211244   7.319   5.893   0.612
 3668WAT      O11245   1.972   3.459   2.540
 3668WAT     H111246   1.940   3.366   2.520
 3668WAT     H211247   1.984   3.469   2.639
 3669WAT      O11248   5.464   2.850   9.265
 3669WAT     H111249   5.526   2.777   9.237
 3669WAT     H211250   5.381   2.847   9.208
 3670WAT      O11251   6.851   9.099   9.869
 3670WAT     H111252   6.912   9.175   9.848
 3670WAT     H211253   6.850   9.084   9.968
 3671WAT      O11254   6.942   1.034   3.044
 3671WAT     H111255   6.944   1.103   3.116
 3671WAT     H211256   6.928   0.944   3.084
 3672WAT      O11257   7.964   1.320   0.927
 3672WAT     H111258   7.867   1.343   0.932
 3672WAT     H211259   8.017   1.383   0.984
 3673WAT      O11260   9.681   6.097   3.170
 3673WAT     H111261   9.634   6.059   3.250
 3673WAT     H211262   9.732   6.025   3.124
 3674WAT      O11263   3.751   0.450   0.403
 3674WAT     H111264   3.833   0.482   0.356
 3674WAT     H211265   3.670   0.478   0.351
 3675WAT      O11266   5.016   3.529   1.216
 3675WAT     H111267   5.043   3.435   1.193
 3675WAT     H211268   4.929   3.551   1.172
 3676WAT      O11269   4.577   8.014   2.068
 3676WAT     H111270   4.586   7.920   2.100
 3676WAT     H211271   4.592   8.077   2.145
 3677WAT      O11272   2.712   1.395   3.379
 3677WAT     H111273   2.799   1.407   3.426
 3677WAT     H211274   2.641   1.447   3.427
 3678WAT      O11275   5.137   4.628   7.838
 3678WAT     H111276   5.176   4.546   7.880
 3678WAT     H211277   5.185   4.650   7.754
 3679WAT      O11278   5.707   5.293   1.429
 3679WAT     H111279   5.660   5.374   1.466
 3679WAT     H211280   5.805   5.303   1.442
 3680WAT      O11281   6.469   7.140   9.473
 3680WAT     H111282   6.515   7.056   9.442
 3680WAT     H211283   6.386   7.115   9.524
 3681WAT      O11284   5.146   1.540   7.157
 3681WAT     H111285   5.086   1.620   7.162
 3681WAT     H211286   5.123   1.476   7.230
 3682WAT      O11287   9.550   4.044   9.867
 3682WAT     H111288   9.453   4.038   9.842
 3682WAT     H211289   9.563   4.117   9.934
 3683WAT      O11290   9.057   0.040   1.476
 3683WAT     H111291   9.097   0.017   1.387
 3683WAT     H211292   9.093   0.128   1.507
 3684WAT      O11293   1.594   0.291   1.576
 3684WAT     H111294   1.499   0.278   1.604
 3684WAT     H211295   1.649   0.313   1.657
 3685WAT      O11296   3.122   4.897   9.873
 3685WAT     H111297   3.142   4.959   9.798
 3685WAT     H211298   3.159   4.806   9.853
 3686WAT      O11299   8.351   2.097   8.073
 3686WAT     H111300   8.428   2.036   8.058
 3686WAT     H211301   8.373   2.162   8.147
 3687WAT      O11302   4.166   3.391   2.841
 3687WAT     H111303   4.195   3.315   2.898
 3687WAT     H211304   4.213   3.387   2.753
 3688WAT      O11305   5.754   4.026   3.364
 3688WAT     H111306   5.729   4.118   3.334
 3688WAT     H211307   5.834   3.994   3.312
 3689WAT      O11308   1.211   2.836   2.115
 3689WAT     H111309   1.270   2.825   2.195
 3689WAT     H211310   1.244   2.912   2.059
 3690WAT      O11311   5.601   2.088   9.422
 3690WAT     H111312   5.572   2.139   9.503
 3690WAT     H211313   5.628   1.995   9.449
 3691WAT      O11314   4.840   6.323   8.011
 3691WAT     H111315   4.825   6.342   8.108
 3691WAT     H211316   4.938   6.323   7.992
 3692WAT      O11317   2.060   3.988   4.821
 3692WAT     H111318   2.091   4.025   4.908
 3692WAT     H211319   1.961   4.001   4.812
 3693WAT      O11320   6.399   4.777   1.641
 3693WAT     H111321   6.361   4.689   1.614
 3693WAT     H211322   6.393   4.841   1.564
 3694WAT      O11323   5.566   1.670   3.870
 3694WAT     H111324   5.514   1.603   3.815
 3694WAT     H211325   5.618   1.729   3.808
 3695WAT      O11326   3.793   7.909   4.196
 3695WAT     H111327   3.784   7.921   4.098
 3695WAT     H211328   3.767   7.816   4.221
 3696WAT      O11329   8.983   9.450   1.080
 3696WAT     H111330   8.951   9.356   1.095
 3696WAT     H211331   9.047   9.476   1.153
 3697WAT      O11332   9.050   2.626   8.302
 3697WAT     H111333   9.008   2.548   8.348
 3697WAT     H211334   9.067   2.699   8.368
 3698WAT      O11335   0.945   2.073   3.220
 3698WAT     H111336   0.919   2.049   3.313
 3698WAT     H211337   1.010   2.006   3.185
 3699WAT      O11338   5.264   6.212   7.510
 3699WAT     H111339   5.355   6.190   7.474
 3699WAT     H211340   5.245   6.309   7.496
 3700WAT      O11341   4.697   3.797   1.501
 3700WAT     H111342   4.660   3.875   1.551
 3700WAT     H211343   4.767   3.753   1.557
 3701WAT      O11344   3.592   2.740   2.857
 3701WAT     H111345   3.596   2.735   2.757
 3701WAT     H211346   3.657   2.809   2.889
 3702WAT      O11347   7.280   9.320   7.101
 3702WAT     H111348   7.237   9.322   7.011
 3702WAT     H211349   7.222   9.368   7.167
 3703WAT      O11350   4.165   3.686   5.089
 3703WAT     H111351   4.079   3.659   5.132
 3703WAT     H211352   4.168   3.786   5.082
 3704WAT      O11353   2.861   8.809   2.985
 3704WAT     H111354   2.809   8.766   2.912
 3704WAT     H211355   2.949   8.842   2.950
 3705WAT      O11356   7.295   7.012   1.689
 3705WAT     H111357   7.214   7.060   1.724
 3705WAT     H211358   7.268   6.954   1.612
 3706WAT      O11359   3.044   7.796   5.969
 3706WAT     H111360   3.018   7.724   6.033
 3706WAT     H211361   3.139   7.781   5.940
 3707WAT      O11362   4.117   5.802   6.095
 3707WAT     H111363   4.147   5.768   6.006
 3707WAT     H211364   4.035   5.753   6.124
 3708WAT      O11365   9.608   3.255   8.903
 3708WAT     H111366   9.704   3.263   8.929
 3708WAT     H211367   9.596   3.288   8.809
 3709WAT      O11368   1.951   4.331   0.742
 3709WAT     H111369   1.973   4.411   0.798
 3709WAT     H211370   1.865   4.291   0.773
 3710WAT      O11371   7.978   1.665   3.585
 3710WAT     H111372   8.009   1.644   3.493
 3710WAT     H211373   7.889   1.711   3.581
 3711WAT      O11374   9.457   9.833   2.267
 3711WAT     H111375   9.424   9.921   2.303
 3711WAT     H211376   9.434   9.826   2.170
 3712WAT      O11377   6.517   8.714   4.244
 3712WAT     H111378   6.542   8.696   4.339
 3712WAT     H211379   6.580   8.782   4.206
 3713WAT      O11380   7.000   4.142   6.902
 3713WAT     H111381   7.085   4.122   6.951
 3713WAT     H211382   6.926   4.158   6.968
 3714WAT      O11383   0.574   0.528   1.794
 3714WAT     H111384   0.650   0.590   1.815
 3714WAT     H211385   0.567   0.515   1.695
 3715WAT      O11386   3.538   3.269   8.938
 3715WAT     H111387   3.545   3.293   8.841
 3715WAT     H211388   3.497   3.345   8.988
 3716WAT      O11389   4.323   3.627   3.949
 3716WAT     H111390   4.317   3.650   4.046
 3716WAT     H211391   4.351   3.708   3.898
 3717WAT      O11392   2.295   2.452   9.556
 3717WAT     H111393   2.375   2.410   9.512
 3717WAT     H211394   2.299   2.437   9.654
 3718WAT      O11395   7.003   5.326   4.350
 3718WAT     H111396   7.012   5.304   4.252
 3718WAT     H211397   7.077   5.387   4.378
 3719WAT      O11398   9.544   8.774   9.010
 3719WAT     H111399   9.469   8.841   9.015
 3719WAT     H211400   9.610   8.793   9.083
 3720WAT      O11401   0.359   2.247   2.444
 3720WAT     H111402   0.380   2.295   2.359
 3720WAT     H211403   0.440   2.195   2.473
 3721WAT      O11404   3.756   4.761   1.609
 3721WAT     H111405   3.790   4.844   1.654
 3721WAT     H211406   3.733   4.693   1.677
 3722WAT      O11407   4.655   7.266   2.508
 3722WAT     H111408   4.599   7.200   2.457
 3722WAT     H211409   4.661   7.351   2.456
 3723WAT      O11410   6.520   8.505   9.069
 3723WAT     H111411   6.590   8.483   9.001
 3723WAT     H211412   6.563   8.515   9.159
 3724WAT      O11413   5.799   9.456   4.070
 3724WAT     H111414   5.745   9.496   4.144
 3724WAT     H211415   5.742   9.393   4.017
 3725WAT      O11416   8.322   6.012   8.915
 3725WAT     H111417   8.361   5.934   8.866
 3725WAT     H211418   8.392   6.083   8.927
 3726WAT      O11419   6.426   5.561   1.841
 3726WAT     H111420   6.526   5.554   1.845
 3726WAT     H211421   6.389   5.482   1.793
 3727WAT      O11422   4.876   3.436   0.654
 3727WAT     H111423   4.793   3.467   0.699
 3727WAT     H211424   4.852   3.396   0.565
 3728WAT      O11425   0.853   2.209   9.771
 3728WAT     H111426   0.773   2.267   9.787
 3728WAT     H211427   0.843   2.123   9.821
 3729WAT      O11428   3.333   0.036   0.874
 3729WAT     H111429   3.352  -0.032   0.803
 3729WAT     H211430   3.235   0.037   0.894
 3730WAT      O11431   4.644   5.662   1.197
 3730WAT     H111432   4.734   5.624   1.217
 3730WAT     H211433   4.578   5.628   1.264
 3731WAT      O11434   2.163   1.748   6.885
 3731WAT     H111435   2.179   1.761   6.787
 3731WAT     H211436   2.142   1.836   6.927
 3732WAT      O11437   3.042   8.871   6.598
 3732WAT     H111438   3.080   8.854   6.688
 3732WAT     H211439   3.081   8.954   6.559
 3733WAT      O11440   8.550   9.815   0.955
 3733WAT     H111441   8.573   9.734   1.008
 3733WAT     H211442   8.633   9.854   0.914
 3734WAT      O11443   3.783   0.413   5.791
 3734WAT     H111444   3.793   0.356   5.710
 3734WAT     H211445   3.873   0.430   5.832
 3735WAT      O11446   3.781   3.305   3.433
 3735WAT     H111447   3.778   3.243   3.354
 3735WAT     H211448   3.875   3.330   3.453
 3736WAT      O11449   5.979   2.176   6.743
 3736WAT     H111450   5.960   2.161   6.840
 3736WAT     H211451   5.893   2.190   6.693
 3737WAT      O11452   5.954   4.808   9.283
 3737WAT     H111453   5.979   4.751   9.362
 3737WAT     H211454   6.036   4.837   9.235
 3738WAT      O11455   1.325   8.487   5.412
 3738WAT     H111456   1.332   8.420   5.338
 3738WAT     H211457   1.335   8.441   5.500
 3739WAT      O11458   3.793   5.724   2.951
 3739WAT     H111459   3.745   5.812   2.945
 3739WAT     H211460   3.873   5.725   2.892
 3740WAT      O11461   8.822   8.975   2.304
 3740WAT     H111462   8.908   8.925   2.316
 3740WAT     H211463   8.823   9.057   2.360
 3741WAT      O11464   5.577   8.411   2.973
 3741WAT     H111465   5.505   8.394   2.905
 3741WAT     H211466   5.558   8.495   3.022
 3742WAT      O11467   3.936   2.273   8.478
 3742WAT     H111468   3.982   2.193   8.438
 3742WAT     H211469   3.936   2.263   8.578
 3743WAT      O11470   7.112   3.931   7.947
 3743WAT     H111471   7.031   3.934   7.888
 3743WAT     H211472   7.179   3.867   7.909
 3744WAT      O11473   2.142   6.263   3.899
 3744WAT     H111474   2.115   6.358   3.884
 3744WAT     H211475   2.061   6.204   3.901
 3745WAT      O11476   6.752   2.892   0.472
 3745WAT     H111477   6.711   2.879   0.382
 3745WAT     H211478   6.765   2.990   0.490
 3746WAT      O11479   1.315   9.052   5.356
 3746WAT     H111480   1.410   9.067   5.328
 3746WAT     H211481   1.291   8.956   5.340
 3747WAT      O11482   2.319   9.793   6.273
 3747WAT     H111483   2.336   9.747   6.360
 3747WAT     H211484   2.375   9.876   6.267
 3748WAT      O11485   9.749   1.625   6.194
 3748WAT     H111486   9.804   1.585   6.121
 3748WAT     H211487   9.773   1.722   6.205
 3749WAT      O11488   5.061   7.886   2.412
 3749WAT     H111489   5.138   7.906   2.352
 3749WAT     H211490   5.091   7.890   2.508
 3750WAT      O11491   5.571   1.092   4.381
 3750WAT     H111492   5.593   1.159   4.310
 3750WAT     H211493   5.655   1.057   4.421
 3751WAT      O11494   8.209   7.857   1.967
 3751WAT     H111495   8.167   7.912   1.895
 3751WAT     H211496   8.163   7.769   1.972
 3752WAT      O11497   9.296   2.380   7.884
 3752WAT     H111498   9.215   2.349   7.933
 3752WAT     H211499   9.377   2.365   7.941
 3753WAT      O11500   7.511   4.918   8.577
 3753WAT     H111501   7.474   4.847   8.637
 3753WAT     H211502   7.584   4.879   8.521
 3754WAT      O11503   4.009   8.929   7.225
 3754WAT     H111504   3.950   8.861   7.270
 3754WAT     H211505   3.957   8.976   7.154
 3755WAT      O11506   9.310   3.634   3.849
 3755WAT     H111507   9.355   3.668   3.931
 3755WAT     H211508   9.273   3.543   3.866
 3756WAT      O11509   7.057   2.005   6.160
 3756WAT     H111510   7.150   2.014   6.124
 3756WAT     H211511   7.060   1.963   6.251
 3757WAT      O11512   2.754   7.423   9.583
 3757WAT     H111513   2.727   7.455   9.674
 3757WAT     H211514   2.702   7.340   9.560
 3758WAT      O11515   7.865   2.374   4.205
 3758WAT     H111516   7.852   2.460   4.155
 3758WAT     H211517   7.934   2.388   4.276
 3759WAT      O11518   8.263   1.540   2.977
 3759WAT     H111519   8.260   1.456   3.030
 3759WAT     H211520   8.350   1.586   2.992
 3760WAT      O11521   1.577   6.826   6.612
 3760WAT     H111522   1.553   6.904   6.554
 3760WAT     H211523   1.503   6.807   6.676
 3761WAT      O11524   0.601   7.081   3.915
 3761WAT     H111525   0.601   7.055   3.818
 3761WAT     H211526   0.615   7.180   3.923
 3762WAT      O11527   2.143   9.084   5.543
 3762WAT     H111528   2.146   9.007   5.479
 3762WAT     H211529   2.182   9.057   5.631
 3763WAT      O11530   7.409   6.803   8.755
 3763WAT     H111531   7.482   6.836   8.814
 3763WAT     H211532   7.336   6.871   8.750
 3764WAT      O11533   6.973   8.625   1.347
 3764WAT     H111534   6.878   8.612   1.375
 3764WAT     H211535   7.027   8.658   1.424
 3765WAT      O11536   2.085   8.713   6.178
 3765WAT     H111537   2.060   8.656   6.100
 3765WAT     H211538   2.181   8.740   6.172
 3766WAT      O11539   7.334   9.760   1.318
 3766WAT     H111540   7.275   9.826   1.364
 3766WAT     H211541   7.407   9.807   1.269
 3767WAT      O11542   6.449   2.095   1.196
 3767WAT     H111543   6.532   2.130   1.152
 3767WAT     H211544   6.474   2.022   1.260
 3768WAT      O11545   6.762   3.285   8.067
 3768WAT     H111546   6.714   3.202   8.094
 3768WAT     H211547   6.806   3.270   7.979
 3769WAT      O11548   8.835   6.666   2.750
 3769WAT     H111549   8.861   6.717   2.832
 3769WAT     H211550   8.912   6.661   2.687
 3770WAT      O11551   2.962   4.992   4.689
 3770WAT     H111552   2.893   5.053   4.651
 3770WAT     H211553   3.049   5.041   4.698
 3771WAT      O11554   6.575   3.830   1.771
 3771WAT     H111555   6.584   3.830   1.671
 3771WAT     H211556   6.550   3.922   1.802
 3772WAT      O11557   4.461   4.571   6.070
 3772WAT     H111558   4.557   4.563   6.096
 3772WAT     H211559   4.409   4.496   6.111
 3773WAT      O11560   5.645   6.203   3.687
 3773WAT     H111561   5.689   6.116   3.665
 3773WAT     H211562   5.560   6.211   3.635
 3774WAT      O11563   6.469   5.142   4.027
 3774WAT     H111564   6.497   5.168   4.120
 3774WAT     H211565   6.401   5.069   4.031
 3775WAT      O11566   1.155   4.172   8.976
 3775WAT     H111567   1.213   4.176   8.895
 3775WAT     H211568   1.060   4.157   8.949
 3776WAT      O11569   7.398   1.082   4.421
 3776WAT     H111570   7.338   1.051   4.347
 3776WAT     H211571   7.422   1.004   4.479
 3777WAT      O11572   6.565   8.764   0.358
 3777WAT     H111573   6.523   8.828   0.294
 3777WAT     H211574   6.606   8.814   0.434
 3778WAT      O11575   6.397   6.711   6.960
 3778WAT     H111576   6.490   6.743   6.941
 3778WAT     H211577   6.392   6.612   6.946
 3779WAT      O11578   6.663   5.889   1.168
 3779WAT     H111579   6.662   5.904   1.069
 3779WAT     H211580   6.758   5.878   1.199
 3780WAT      O11581   0.219   9.279   3.958
 3780WAT     H111582   0.149   9.213   3.931
 3780WAT     H211583   0.226   9.281   4.058
 3781WAT      O11584   6.372   5.411   7.051
 3781WAT     H111585   6.313   5.334   7.074
 3781WAT     H211586   6.440   5.424   7.123
 3782WAT      O11587   5.688   3.405   3.578
 3782WAT     H111588   5.651   3.489   3.539
 3782WAT     H211589   5.640   3.384   3.664
 3783WAT      O11590   3.067   8.512   8.133
 3783WAT     H111591   3.165   8.526   8.125
 3783WAT     H211592   3.036   8.449   8.061
 3784WAT      O11593   6.390   1.241   5.838
 3784WAT     H111594   6.386   1.307   5.914
 3784WAT     H211595   6.446   1.163   5.865
 3785WAT      O11596   9.531   9.275   6.935
 3785WAT     H111597   9.505   9.260   7.030
 3785WAT     H211598   9.577   9.363   6.927
 3786WAT      O11599   6.481   9.305   7.345
 3786WAT     H111600   6.579   9.303   7.322
 3786WAT     H211601   6.442   9.215   7.329
 3787WAT      O11602   6.258   8.586   0.184
 3787WAT     H111603   6.290   8.550   0.271
 3787WAT     H211604   6.174   8.539   0.157
 3788WAT      O11605   1.780   6.283   7.118
 3788WAT     H111606   1.849   6.328   7.061
 3788WAT     H211607   1.721   6.226   7.061
 3789WAT      O11608   6.877   4.050   6.235
 3789WAT     H111609   6.955   4.091   6.188
 3789WAT     H211610   6.800   4.044   6.172
 3790WAT      O11611   8.878   9.712   0.735
 3790WAT     H111612   8.840   9.675   0.820
 3790WAT     H211613   8.955   9.772   0.756
 3791WAT      O11614   7.451   2.739   5.184
 3791WAT     H111615   7.524   2.767   5.122
 3791WAT     H211616   7.489   2.689   5.261
 3792WAT      O11617   7.860   0.587   0.485
 3792WAT     H111618   7.801   0.513   0.453
 3792WAT     H211619   7.894   0.639   0.406
 3793WAT      O11620   8.989   2.308   2.876
 3793WAT     H111621   9.071   2.365   2.872
 3793WAT     H211622   9.015   2.212   2.865
 3794WAT      O11623   2.793   3.665   6.932
 3794WAT     H111624   2.867   3.614   6.976
 3794WAT     H211625   2.796   3.761   6.961
 3795WAT      O11626   0.041   6.167   8.733
 3795WAT     H111627   0.124   6.206   8.773
 3795WAT     H211628  -0.002   6.235   8.673
 3796WAT      O11629   2.849   2.691   1.375
 3796WAT     H111630   2.807   2.649   1.455
 3796WAT     H211631   2.937   2.731   1.400
 3797WAT      O11632   7.673   8.240   9.483
 3797WAT     H111633   7.759   8.242   9.533
 3797WAT     H211634   7.687   8.275   9.391
 3798WAT      O11635   6.130   0.647   4.233
 3798WAT     H111636   6.035   0.660   4.261
 3798WAT     H211637   6.134   0.579   4.159
 3799WAT      O11638   9.529   4.490   3.963
 3799WAT     H111639   9.468   4.530   4.031
 3799WAT     H211640   9.580   4.563   3.917
 3800WAT      O11641   5.371   3.451   2.630
 3800WAT     H111642   5.371   3.550   2.617
 3800WAT     H211643   5.420   3.408   2.555
 3801WAT      O11644   2.506   6.338   9.063
 3801WAT     H111645   2.456   6.423   9.077
 3801WAT     H211646   2.553   6.313   9.148
 3802WAT      O11647   3.805   7.727   4.850
 3802WAT     H111648   3.718   7.775   4.852
 3802WAT     H211649   3.860   7.760   4.772
 3803WAT      O11650   8.788   8.031   3.567
 3803WAT     H111651   8.842   8.105   3.528
 3803WAT     H211652   8.848   7.967   3.614
 3804WAT      O11653   0.630   9.676   2.675
 3804WAT     H111654   0.630   9.622   2.591
 3804WAT     H211655   0.571   9.756   2.662
 3805WAT      O11656   8.372   3.545   1.241
 3805WAT     H111657   8.302   3.534   1.170
 3805WAT     H211658   8.353   3.483   1.317
 3806WAT      O11659   4.707   1.189   9.408
 3806WAT     H111660   4.759   1.146   9.334
 3806WAT     H211661   4.771   1.223   9.478
 3807WAT      O11662   8.309   7.090   5.104
 3807WAT     H111663   8.328   7.187   5.120
 3807WAT     H211664   8.336   7.037   5.185
 3808WAT      O11665   4.157   4.613   0.835
 3808WAT     H111666   4.248   4.641   0.804
 3808WAT     H211667   4.142   4.517   0.810
 3809WAT      O11668   8.205   8.558   4.539
 3809WAT     H111669   8.215   8.630   4.608
 3809WAT     H211670   8.197   8.470   4.584
 3810WAT      O11671   9.426   4.280   3.274
 3810WAT     H111672   9.420   4.224   3.357
 3810WAT     H211673   9.358   4.353   3.278
 3811WAT      O11674   3.990   2.363   1.577
 3811WAT     H111675   4.018   2.413   1.659
 3811WAT     H211676   3.929   2.289   1.602
 3812WAT      O11677   3.493   9.000   8.074
 3812WAT     H111678   3.476   9.098   8.063
 3812WAT     H211679   3.551   8.967   8.000
 3813WAT      O11680   3.570   1.406   5.469
 3813WAT     H111681   3.483   1.393   5.420
 3813WAT     H211682   3.597   1.502   5.465
 3814WAT      O11683   9.413   2.572   3.763
 3814WAT     H111684   9.366   2.509   3.824
 3814WAT     H211685   9.352   2.648   3.740
 3815WAT      O11686   1.819   9.239   8.819
 3815WAT     H111687   1.837   9.189   8.904
 3815WAT     H211688   1.906   9.269   8.780
 3816WAT      O11689   6.101   3.968   7.419
 3816WAT     H111690   6.025   3.972   7.484
 3816WAT     H211691   6.187   3.978   7.469
 3817WAT      O11692   8.099   0.009   1.055
 3817WAT     H111693   8.064   0.095   1.018
 3817WAT     H211694   8.104  -0.060   0.982
 3818WAT      O11695   5.987   3.986   1.284
 3818WAT     H111696   5.961   4.034   1.200
 3818WAT     H211697   5.993   3.888   1.265
 3819WAT      O11698   9.393   1.015   6.781
 3819WAT     H111699   9.378   1.101   6.732
 3819WAT     H211700   9.319   1.002   6.848
 3820WAT      O11701   3.132   9.172   1.951
 3820WAT     H111702   3.042   9.129   1.962
 3820WAT     H211703   3.122   9.271   1.950
 3821WAT      O11704   3.437   9.344   6.231
 3821WAT     H111705   3.453   9.262   6.177
 3821WAT     H211706   3.506   9.351   6.303
 3822WAT      O11707   0.118   8.532   9.273
 3822WAT     H111708   0.212   8.558   9.292
 3822WAT     H211709   0.097   8.446   9.320
 3823WAT      O11710   6.261   0.012   2.690
 3823WAT     H111711   6.289   0.069   2.767
 3823WAT     H211712   6.174   0.046   2.654
 3824WAT      O11713   2.968   2.358   1.279
 3824WAT     H111714   2.948   2.322   1.188
 3824WAT     H211715   3.007   2.449   1.272
 3825WAT      O11716   1.563   7.544   5.993
 3825WAT     H111717   1.609   7.542   5.905
 3825WAT     H211718   1.594   7.623   6.046
 3826WAT      O11719   5.508   9.389   0.793
 3826WAT     H111720   5.412   9.372   0.771
 3826WAT     H211721   5.518   9.401   0.891
 3827WAT      O11722   8.862   4.442   1.876
 3827WAT     H111723   8.899   4.441   1.783
 3827WAT     H211724   8.840   4.349   1.904
 3828WAT      O11725   9.198   0.041   9.408
 3828WAT     H111726   9.249   0.120   9.373
 3828WAT     H211727   9.109   0.071   9.443
 3829WAT      O11728   5.850   0.793   2.078
 3829WAT     H111729   5.862   0.794   1.978
 3829WAT     H211730   5.938   0.807   2.122
 3830WAT      O11731   9.421   2.539   1.306
 3830WAT     H111732   9.348   2.541   1.237
 3830WAT     H211733   9.433   2.631   1.343
 3831WAT      O11734   1.473   8.501   6.992
 3831WAT     H111735   1.543   8.566   6.961
 3831WAT     H211736   1.516   8.414   7.014
 3832WAT      O11737   2.889   7.587   3.372
 3832WAT     H111738   2.904   7.552   3.464
 3832WAT     H211739   2.965   7.560   3.313
 3833WAT      O11740   3.433   1.305   4.508
 3833WAT     H111741   3.499   1.277   4.439
 3833WAT     H211742   3.360   1.359   4.466
 3834WAT      O11743   5.605   5.974   9.302
 3834WAT     H111744   5.619   5.876   9.293
 3834WAT     H211745   5.528   5.991   9.363
 3835WAT      O11746   1.005   3.251   8.371
 3835WAT     H111747   0.976   3.329   8.427
 3835WAT     H211748   1.035   3.284   8.282
 3836WAT      O11749   5.267   8.896   6.437
 3836WAT     H111750   5.225   8.829   6.498
 3836WAT     H211751   5.273   8.858   6.344
 3837WAT      O11752   1.468   5.512   1.959
 3837WAT     H111753   1.492   5.539   2.052
 3837WAT     H211754   1.484   5.414   1.947
 3838WAT      O11755   7.132   8.744   2.011
 3838WAT     H111756   7.216   8.793   1.985
 3838WAT     H211757   7.155   8.673   2.077
 3839WAT      O11758   5.918   7.699   6.928
 3839WAT     H111759   6.011   7.668   6.947
 3839WAT     H211760   5.868   7.627   6.881
 3840WAT      O11761   6.829   2.014   8.184
 3840WAT     H111762   6.885   2.084   8.140
 3840WAT     H211763   6.875   1.926   8.178
 3841WAT      O11764   5.854   7.812   6.477
 3841WAT     H111765   5.772   7.793   6.424
 3841WAT     H211766   5.830   7.865   6.558
 3842WAT      O11767   0.670   3.994   5.782
 3842WAT     H111768   0.726   4.019   5.703
 3842WAT     H211769   0.576   3.977   5.752
 3843WAT      O11770   0.208   0.235   3.861
 3843WAT     H111771   0.195   0.328   3.827
 3843WAT     H211772   0.244   0.177   3.788
 3844WAT      O11773   7.817   7.582   9.114
 3844WAT     H111774   7.736   7.528   9.088
 3844WAT     H211775   7.882   7.522   9.160
 3845WAT      O11776   0.871   9.799   9.875
 3845WAT     H111777   0.944   9.765   9.934
 3845WAT     H211778   0.911   9.836   9.791
 3846WAT      O11779   3.524   9.744   5.443
 3846WAT     H111780   3.592   9.812   5.469
 3846WAT     H211781   3.437   9.789   5.425
 3847WAT      O11782   7.596   2.627   9.206
 3847WAT     H111783   7.573   2.717   9.244
 3847WAT     H211784   7.691   2.606   9.226
 3848WAT      O11785   8.562   3.610   2.335
 3848WAT     H111786   8.640   3.595   2.274
 3848WAT     H211787   8.479   3.625   2.280
 3849WAT      O11788   9.149   4.417   7.195
 3849WAT     H111789   9.223   4.355   7.221
 3849WAT     H211790   9.184   4.511   7.196
 3850WAT      O11791   8.878   6.791   7.685
 3850WAT     H111792   8.867   6.699   7.723
 3850WAT     H211793   8.847   6.858   7.753
 3851WAT      O11794   1.028   7.661   1.628
 3851WAT     H111795   1.110   7.706   1.665
 3851WAT     H211796   0.947   7.714   1.653
 3852WAT      O11797   5.786   5.583   4.021
 3852WAT     H111798   5.820   5.669   4.059
 3852WAT     H211799   5.719   5.543   4.083
 3853WAT      O11800   8.955   8.601   5.079
 3853WAT     H111801   8.959   8.531   5.150
 3853WAT     H211802   8.932   8.559   4.991
 3854WAT      O11803   6.743   1.969   8.685
 3854WAT     H111804   6.816   1.981   8.617
 3854WAT     H211805   6.783   1.936   8.771
 3855WAT      O11806   2.547   4.503   1.549
 3855WAT     H111807   2.504   4.415   1.527
 3855WAT     H211808   2.632   4.487   1.599
 3856WAT      O11809   1.981   0.448   0.188
 3856WAT     H111810   2.048   0.457   0.115
 3856WAT     H211811   1.971   0.352   0.213
 3857WAT      O11812   4.180   1.532   8.980
 3857WAT     H111813   4.275   1.558   8.963
 3857WAT     H211814   4.149   1.573   9.066
 3858WAT      O11815   7.563   4.510   0.172
 3858WAT     H111816   7.582   4.591   0.226
 3858WAT     H211817   7.536   4.537   0.079
 3859WAT      O11818   1.820   7.311   2.641
 3859WAT     H111819   1.854   7.222   2.671
 3859WAT     H211820   1.888   7.382   2.662
 3860WAT      O11821   7.608   3.096   5.538
 3860WAT     H111822   7.660   3.046   5.608
 3860WAT     H211823   7.510   3.086   5.556
 3861WAT      O11824   4.094   5.661   8.417
 3861WAT     H111825   4.128   5.744   8.371
 3861WAT     H211826   4.001   5.677   8.448
 3862WAT      O11827   2.451   7.150   3.046
 3862WAT     H111828   2.429   7.095   3.126
 3862WAT     H211829   2.463   7.090   2.967
 3863WAT      O11830   0.115   5.794   3.268
 3863WAT     H111831   0.052   5.762   3.339
 3863WAT     H211832   0.180   5.721   3.247
 3864WAT      O11833   1.154   4.469   7.916
 3864WAT     H111834   1.177   4.566   7.913
 3864WAT     H211835   1.160   4.430   7.824
 3865WAT      O11836   6.726   3.976   7.347
 3865WAT     H111837   6.734   4.033   7.429
 3865WAT     H211838   6.690   3.886   7.371
 3866WAT      O11839   6.801   4.811   5.965
 3866WAT     H111840   6.710   4.843   5.939
 3866WAT     H211841   6.858   4.889   5.991
 3867WAT      O11842   1.924   1.687   3.532
 3867WAT     H111843   1.876   1.720   3.450
 3867WAT     H211844   1.875   1.717   3.614
 3868WAT      O11845   4.439   3.690   9.361
 3868WAT     H111846   4.368   3.718   9.426
 3868WAT     H211847   4.511   3.640   9.409
 3869WAT      O11848   5.757   6.183   4.376
 3869WAT     H111849   5.763   6.275   4.415
 3869WAT     H211850   5.674   6.138   4.409
 3870WAT      O11851   1.134   0.420   8.316
 3870WAT     H111852   1.166   0.328   8.337
 3870WAT     H211853   1.090   0.420   8.227
 3871WAT      O11854   6.437   9.584   8.650
 3871WAT     H111855   6.405   9.660   8.593
 3871WAT     H211856   6.385   9.502   8.627
 3872WAT      O11857   3.831   7.474   1.058
 3872WAT     H111858   3.857   7.528   0.979
 3872WAT     H211859   3.800   7.534   1.131
 3873WAT      O11860   2.379   0.466   0.252
 3873WAT     H111861   2.462   0.459   0.197
 3873WAT     H211862   2.299   0.445   0.195
 3874WAT      O11863   6.382   8.351   5.992
 3874WAT     H111864   6.472   8.309   5.986
 3874WAT     H211865   6.362   8.399   5.906
 3875WAT      O11866   3.084   0.024   5.409
 3875WAT     H111867   3.046   0.041   5.318
 3875WAT     H211868   3.013   0.035   5.477
 3876WAT      O11869   9.769   3.740   6.353
 3876WAT     H111870   9.798   3.764   6.445
 3876WAT     H211871   9.802   3.649   6.330
 3877WAT      O11872   5.042   8.745   4.409
 3877WAT     H111873   5.130   8.717   4.372
 3877WAT     H211874   5.049   8.751   4.509
 3878WAT      O11875   0.730   8.644   6.055
 3878WAT     H111876   0.816   8.619   6.099
 3878WAT     H211877   0.747   8.668   5.959
 3879WAT      O11878   3.811   9.255   8.687
 3879WAT     H111879   3.714   9.265   8.665
 3879WAT     H211880   3.842   9.163   8.662
 3880WAT      O11881   7.858   5.483   5.484
 3880WAT     H111882   7.938   5.427   5.505
 3880WAT     H211883   7.848   5.554   5.555
 3881WAT      O11884   6.684   8.019   1.378
 3881WAT     H111885   6.778   8.020   1.343
 3881WAT     H211886   6.635   8.099   1.343
 3882WAT      O11887   4.671   3.286   3.873
 3882WAT     H111888   4.708   3.267   3.964
 3882WAT     H211889   4.746   3.286   3.806
 3883WAT      O11890   1.620   2.682   1.455
 3883WAT     H111891   1.659   2.753   1.514
 3883WAT     H211892   1.694   2.623   1.422
 3884WAT      O11893   8.484   1.154   4.016
 3884WAT     H111894   8.389   1.135   4.038
 3884WAT     H211895   8.518   1.086   3.951
 3885WAT      O11896   6.813   0.254   7.094
 3885WAT     H111897   6.770   0.164   7.088
 3885WAT     H211898   6.890   0.258   7.031
 3886WAT      O11899   1.485   4.310   5.308
 3886WAT     H111900   1.549   4.304   5.384
 3886WAT     H211901   1.526   4.362   5.233
 3887WAT      O11902   6.983   6.825   4.368
 3887WAT     H111903   6.895   6.872   4.360
 3887WAT     H211904   6.972   6.745   4.427
 3888WAT      O11905   9.609   9.797   5.912
 3888WAT     H111906   9.520   9.776   5.953
 3888WAT     H211907   9.601   9.879   5.855
 3889WAT      O11908   7.326   3.941   4.765
 3889WAT     H111909   7.240   3.991   4.775
 3889WAT     H211910   7.315   3.868   4.698
 3890WAT      O11911   0.814   7.741   5.525
 3890WAT     H111912   0.846   7.793   5.603
 3890WAT     H211913   0.812   7.799   5.444
 3891WAT      O11914   6.315   5.421   7.701
 3891WAT     H111915   6.359   5.474   7.628
 3891WAT     H211916   6.245   5.362   7.661
 3892WAT      O11917   1.387   0.878   7.537
 3892WAT     H111918   1.377   0.957   7.597
 3892WAT     H211919   1.395   0.795   7.592
 3893WAT      O11920   9.329   0.865   2.998
 3893WAT     H111921   9.244   0.911   3.024
 3893WAT     H211922   9.406   0.928   3.008
 3894WAT      O11923   9.300   3.762   9.535
 3894WAT     H111924   9.390   3.722   9.553
 3894WAT     H211925   9.242   3.752   9.616
 3895WAT      O11926   2.896   8.870   1.716
 3895WAT     H111927   2.910   8.817   1.800
 3895WAT     H211928   2.802   8.905   1.714
 3896WAT      O11929   4.197   8.824   1.548
 3896WAT     H111930   4.134   8.890   1.590
 3896WAT     H211931   4.163   8.731   1.562
 3897WAT      O11932   0.513   8.330   8.771
 3897WAT     H111933   0.593   8.316   8.829
 3897WAT     H211934   0.529   8.289   8.681
 3898WAT      O11935   4.554   1.099   5.667
 3898WAT     H111936   4.521   1.029   5.604
 3898WAT     H211937   4.508   1.186   5.648
 3899WAT      O11938   8.581   6.664   6.029
 3899WAT     H111939   8.622   6.740   6.079
 3899WAT     H211940   8.635   6.582   6.043
 3900WAT      O11941   3.035   3.023   8.670
 3900WAT     H111942   3.020   3.118   8.643
 3900WAT     H211943   3.131   2.998   8.656
 3901WAT      O11944   1.578   1.773   0.851
 3901WAT     H111945   1.677   1.782   0.853
 3901WAT     H211946   1.546   1.738   0.939
 3902WAT      O11947   1.598   3.156   3.428
 3902WAT     H111948   1.603   3.223   3.354
 3902WAT     H211949   1.669   3.174   3.496
 3903WAT      O11950   1.273   5.897   4.776
 3903WAT     H111951   1.304   5.804   4.794
 3903WAT     H211952   1.350   5.961   4.791
 3904WAT      O11953   3.976   6.835   9.393
 3904WAT     H111954   3.899   6.847   9.330
 3904WAT     H211955   4.059   6.873   9.353
 3905WAT      O11956   7.735   2.454   7.709
 3905WAT     H111957   7.786   2.540   7.704
 3905WAT     H211958   7.694   2.445   7.800
 3906WAT      O11959   0.125   3.738   2.574
 3906WAT     H111960   0.163   3.824   2.607
 3906WAT     H211961   0.194   3.690   2.519
 3907WAT      O11962   9.806   9.139   0.630
 3907WAT     H111963   9.786   9.099   0.540
 3907WAT     H211964   9.821   9.066   0.696
 3908WAT      O11965   2.130   8.538   7.634
 3908WAT     H111966   2.133   8.443   7.665
 3908WAT     H211967   2.220   8.566   7.601
 3909WAT      O11968   5.977   1.296   3.718
 3909WAT     H111969   6.017   1.207   3.700
 3909WAT     H211970   5.988   1.355   3.638
 3910WAT      O11971   3.358   4.817   6.004
 3910WAT     H111972   3.267   4.826   5.965
 3910WAT     H211973   3.427   4.826   5.932
 3911WAT      O11974   0.650   9.745   3.553
 3911WAT     H111975   0.690   9.658   3.524
 3911WAT     H211976   0.697   9.820   3.506
 3912WAT      O11977   5.323   0.580   3.225
 3912WAT     H111978   5.379   0.652   3.185
 3912WAT     H211979   5.236   0.573   3.176
 3913WAT      O11980   2.444   6.017   2.046
 3913WAT     H111981   2.364   5.972   2.006
 3913WAT     H211982   2.494   6.065   1.974
 3914WAT      O11983   8.537   8.595   4.979
 3914WAT     H111984   8.582   8.541   5.050
 3914WAT     H211985   8.533   8.543   4.894
 3915WAT      O11986   5.577   5.786   9.544
 3915WAT     H111987   5.601   5.776   9.448
 3915WAT     H211988   5.514   5.862   9.556
 3916WAT      O11989   0.979   4.459   4.554
 3916WAT     H111990   0.988   4.486   4.458
 3916WAT     H211991   0.928   4.373   4.560
 3917WAT      O11992   1.237   7.061   5.124
 3917WAT     H111993   1.145   7.023   5.121
 3917WAT     H211994   1.294   7.017   5.055
 3918WAT      O11995   5.970   0.308   4.097
 3918WAT     H111996   5.951   0.327   4.194
 3918WAT     H211997   5.924   0.376   4.041
 3919WAT      O11998   2.995   8.279   5.374
 3919WAT     H111999   2.933   8.348   5.336
 3919WAT     H212000   2.990   8.197   5.318
 3920WAT      O12001   5.579   8.541   9.838
 3920WAT     H112002   5.494   8.510   9.797
 3920WAT     H212003   5.639   8.578   9.768
 3921WAT      O12004   0.211   4.379   1.631
 3921WAT     H112005   0.135   4.375   1.696
 3921WAT     H212006   0.200   4.459   1.572
 3922WAT      O12007   6.092   5.771   9.669
 3922WAT     H112008   6.038   5.854   9.677
 3922WAT     H212009   6.072   5.727   9.581
 3923WAT      O12010   3.574   0.701   0.552
 3923WAT     H112011   3.513   0.743   0.619
 3923WAT     H212012   3.558   0.603   0.548
 3924WAT      O12013   0.682   4.545   6.770
 3924WAT     H112014   0.772   4.584   6.785
 3924WAT     H212015   0.679   4.452   6.806
 3925WAT      O12016   8.358   4.960   9.752
 3925WAT     H112017   8.284   4.995   9.694
 3925WAT     H212018   8.439   5.018   9.742
 3926WAT      O12019   3.817   7.906   7.857
 3926WAT     H112020   3.832   7.902   7.758
 3926WAT     H212021   3.721   7.886   7.877
 3927WAT      O12022   8.821   3.009   7.381
 3927WAT     H112023   8.745   2.948   7.359
 3927WAT     H212024   8.791   3.104   7.368
 3928WAT      O12025   2.578   0.258   9.208
 3928WAT     H112026   2.508   0.298   9.149
 3928WAT     H212027   2.634   0.194   9.156
 3929WAT      O12028   2.022   8.764   5.835
 3929WAT     H112029   2.004   8.674   5.877
 3929WAT     H212030   2.027   8.754   5.735
 3930WAT      O12031   6.124   9.387   3.401
 3930WAT     H112032   6.094   9.332   3.479
 3930WAT     H212033   6.192   9.453   3.432
 3931WAT      O12034   7.530   1.964   8.743
 3931WAT     H112035   7.594   1.887   8.751
 3931WAT     H212036   7.468   1.948   8.667
 3932WAT      O12037   3.812   4.678   5.729
 3932WAT     H112038   3.766   4.747   5.674
 3932WAT     H212039   3.847   4.606   5.670
 3933WAT      O12040   4.695   0.957   8.003
 3933WAT     H112041   4.618   1.014   8.030
 3933WAT     H212042   4.688   0.934   7.906
 3934WAT      O12043   8.471   2.448   5.610
 3934WAT     H112044   8.543   2.500   5.657
 3934WAT     H212045   8.481   2.351   5.630
 3935WAT      O12046   3.293   0.857   5.308
 3935WAT     H112047   3.222   0.921   5.338
 3935WAT     H212048   3.284   0.842   5.209
 3936WAT      O12049   7.608   3.013   6.337
 3936WAT     H112050   7.673   3.076   6.294
 3936WAT     H212051   7.658   2.934   6.373
 3937WAT      O12052   1.815   0.007   6.091
 3937WAT     H112053   1.897   0.025   6.037
 3937WAT     H212054   1.834  -0.063   6.160
 3938WAT      O12055   2.402   0.143   4.889
 3938WAT     H112056   2.431   0.236   4.914
 3938WAT     H212057   2.316   0.148   4.839
 3939WAT      O12058   2.303   9.233   4.865
 3939WAT     H112059   2.388   9.254   4.817
 3939WAT     H212060   2.246   9.173   4.809
 3940WAT      O12061   0.944   1.172   4.194
 3940WAT     H112062   1.019   1.111   4.169
 3940WAT     H212063   0.865   1.154   4.134
 3941WAT      O12064   0.626   2.116   0.325
 3941WAT     H112065   0.590   2.030   0.290
 3941WAT     H212066   0.634   2.111   0.425
 3942WAT      O12067   2.202   4.619   1.656
 3942WAT     H112068   2.215   4.595   1.752
 3942WAT     H212069   2.285   4.662   1.620
 3943WAT      O12070   2.586   6.575   3.992
 3943WAT     H112071   2.616   6.504   3.927
 3943WAT     H212072   2.645   6.655   3.983
 3944WAT      O12073   3.190   5.481   0.032
 3944WAT     H112074   3.234   5.570   0.021
 3944WAT     H212075   3.090   5.492   0.029
 3945WAT      O12076   2.847   8.058   0.399
 3945WAT     H112077   2.754   8.037   0.429
 3945WAT     H212078   2.903   8.083   0.479
 3946WAT      O12079   5.874   1.361   1.865
 3946WAT     H112080   5.869   1.262   1.875
 3946WAT     H212081   5.866   1.386   1.769
 3947WAT      O12082   8.406   9.520   9.591
 3947WAT     H112083   8.369   9.585   9.525
 3947WAT     H212084   8.466   9.568   9.655
 3948WAT      O12085   3.765   8.379   8.876
 3948WAT     H112086   3.774   8.279   8.876
 3948WAT     H212087   3.672   8.404   8.848
 3949WAT      O12088   1.767   9.177   1.963
 3949WAT     H112089   1.675   9.176   2.003
 3949WAT     H212090   1.802   9.271   1.963
 3950WAT      O12091   0.024   2.199   4.650
 3950WAT     H112092  -0.055   2.138   4.663
 3950WAT     H212093   0.030   2.264   4.725
 3951WAT      O12094   2.298   6.944   2.229
 3951WAT     H112095   2.207   6.971   2.260
 3951WAT     H212096   2.299   6.846   2.208
 3952WAT      O12097   6.057   3.780   3.502
 3952WAT     H112098   6.106   3.746   3.421
 3952WAT     H212099   5.970   3.732   3.511
 3953WAT      O12100   3.566   5.789   8.796
 3953WAT     H112101   3.615   5.731   8.861
 3953WAT     H212102   3.631   5.850   8.750
 3954WAT      O12103   9.548   5.964   2.169
 3954WAT     H112104   9.486   5.912   2.227
 3954WAT     H212105   9.600   6.028   2.225
 3955WAT      O12106   3.958   8.267   8.224
 3955WAT     H112107   3.988   8.249   8.318
 3955WAT     H212108   3.862   8.242   8.213
 3956WAT      O12109   4.942   3.430   6.542
 3956WAT     H112110   5.027   3.419   6.489
 3956WAT     H212111   4.864   3.409   6.484
 3957WAT      O12112   6.681   9.379   5.096
 3957WAT     H112113   6.641   9.351   5.183
 3957WAT     H212114   6.611   9.423   5.039
 3958WAT      O12115   9.399   1.404   1.644
 3958WAT     H112116   9.467   1.337   1.676
 3958WAT     H212117   9.390   1.396   1.545
 3959WAT      O12118   0.954   0.403   0.816
 3959WAT     H112119   0.934   0.486   0.763
 3959WAT     H212120   0.881   0.389   0.883
 3960WAT      O12121   1.815   7.023   2.159
 3960WAT     H112122   1.911   6.995   2.165
 3960WAT     H212123   1.763   6.953   2.110
 3961WAT      O12124   8.478   7.516   9.145
 3961WAT     H112125   8.563   7.519   9.197
 3961WAT     H212126   8.487   7.449   9.071
 3962WAT      O12127   8.308   8.718   6.736
 3962WAT     H112128   8.320   8.815   6.715
 3962WAT     H212129   8.330   8.702   6.832
 3963WAT      O12130   7.643   3.846   5.469
 3963WAT     H112131   7.579   3.776   5.439
 3963WAT     H212132   7.593   3.929   5.492
 3964WAT      O12133   7.723   9.255   1.556
 3964WAT     H112134   7.656   9.232   1.626
 3964WAT     H212135   7.754   9.349   1.569
 3965WAT      O12136   9.105   4.284   6.897
 3965WAT     H112137   9.124   4.264   6.993
 3965WAT     H212138   9.084   4.381   6.886
 3966WAT      O12139   4.245   8.388   5.828
 3966WAT     H112140   4.177   8.324   5.790
 3966WAT     H212141   4.275   8.450   5.755
 3967WAT      O12142   2.154   7.781   2.300
 3967WAT     H112143   2.174   7.879   2.304
 3967WAT     H212144   2.121   7.757   2.209
 3968WAT      O12145   7.598   1.724   3.858
 3968WAT     H112146   7.514   1.776   3.873
 3968WAT     H212147   7.580   1.626   3.871
 3969WAT      O12148   7.505   1.975   9.260
 3969WAT     H112149   7.492   1.984   9.358
 3969WAT     H212150   7.420   1.942   9.218
 3970WAT      O12151   3.043   7.235   3.200
 3970WAT     H112152   2.949   7.259   3.178
 3970WAT     H212153   3.051   7.212   3.297
 3971WAT      O12154   1.872   6.622   2.445
 3971WAT     H112155   1.827   6.704   2.481
 3971WAT     H212156   1.971   6.632   2.455
 3972WAT      O12157   5.123   3.661   7.041
 3972WAT     H112158   5.199   3.625   6.986
 3972WAT     H212159   5.045   3.599   7.035
 3973WAT      O12160   2.581   7.925   3.131
 3973WAT     H112161   2.623   8.002   3.082
 3973WAT     H212162   2.644   7.893   3.202
 3974WAT      O12163   4.774   2.330   6.885
 3974WAT     H112164   4.782   2.271   6.804
 3974WAT     H212165   4.711   2.288   6.950
 3975WAT      O12166   5.226   0.556   4.111
 3975WAT     H112167   5.223   0.530   4.208
 3975WAT     H212168   5.176   0.642   4.099
 3976WAT      O12169   7.955   9.792   6.866
 3976WAT     H112170   7.900   9.865   6.825
 3976WAT     H212171   7.944   9.795   6.966
 3977WAT      O12172   4.612   3.857   9.619
 3977WAT     H112173   4.550   3.926   9.581
 3977WAT     H212174   4.705   3.893   9.619
 3978WAT      O12175   7.917   5.682   2.326
 3978WAT     H112176   7.962   5.746   2.390
 3978WAT     H212177   7.825   5.662   2.359
 3979WAT      O12178   2.371   9.052   2.496
 3979WAT     H112179   2.387   9.140   2.541
 3979WAT     H212180   2.334   9.068   2.404
 3980WAT      O12181   7.925   6.274   7.013
 3980WAT     H112182   7.960   6.228   7.095
 3980WAT     H212183   7.827   6.292   7.024
 3981WAT      O12184   4.069   7.358   0.634
 3981WAT     H112185   4.065   7.438   0.574
 3981WAT     H212186   4.147   7.301   0.609
 3982WAT      O12187   4.851   0.655   5.071
 3982WAT     H112188   4.833   0.693   5.162
 3982WAT     H212189   4.944   0.618   5.068
 3983WAT      O12190   7.477   9.618   6.238
 3983WAT     H112191   7.423   9.571   6.307
 3983WAT     H212192   7.559   9.565   6.216
 3984WAT      O12193   1.120   8.625   9.185
 3984WAT     H112194   1.053   8.572   9.236
 3984WAT     H212195   1.129   8.716   9.225
 3985WAT      O12196   5.061   3.804   4.808
 3985WAT     H112197   5.085   3.745   4.886
 3985WAT     H212198   5.011   3.884   4.842
 3986WAT      O12199   4.084   5.813   5.799
 3986WAT     H112200   4.009   5.878   5.785
 3986WAT     H212201   4.088   5.750   5.722
 3987WAT      O12202   3.880   2.734   1.097
 3987WAT     H112203   3.871   2.719   1.196
 3987WAT     H212204   3.969   2.702   1.066
 3988WAT      O12205   8.871   4.711   1.368
 3988WAT     H112206   8.954   4.723   1.315
 3988WAT     H212207   8.859   4.615   1.392
 3989WAT      O12208   6.071   7.348   7.653
 3989WAT     H112209   6.161   7.367   7.613
 3989WAT     H212210   6.073   7.259   7.697
 3990WAT      O12211   1.436   3.319   0.492
 3990WAT     H112212   1.507   3.369   0.442
 3990WAT     H212213   1.348   3.363   0.478
 3991WAT      O12214   5.355   2.172   3.781
 3991WAT     H112215   5.436   2.135   3.736
 3991WAT     H212216   5.305   2.098   3.825
 3992WAT      O12217   5.266   7.473   3.795
 3992WAT     H112218   5.263   7.473   3.695
 3992WAT     H212219   5.270   7.567   3.828
 3993WAT      O12220   6.815   6.681   2.912
 3993WAT     H112221   6.763   6.660   2.995
 3993WAT     H212222   6.817   6.600   2.853
 3994WAT      O12223   1.832   2.404   8.880
 3994WAT     H112224   1.917   2.414   8.932
 3994WAT     H212225   1.821   2.308   8.855
 3995WAT      O12226   8.701   6.842   0.397
 3995WAT     H112227   8.648   6.926   0.396
 3995WAT     H212228   8.653   6.771   0.346
 3996WAT      O12229   2.962   8.565   4.313
 3996WAT     H112230   2.990   8.639   4.253
 3996WAT     H212231   2.888   8.513   4.270
 3997WAT      O12232   7.281   2.150   4.799
 3997WAT     H112233   7.273   2.227   4.862
 3997WAT     H212234   7.359   2.165   4.738
 3998WAT      O12235   2.873   2.935   1.715
 3998WAT     H112236   2.808   2.916   1.641
 3998WAT     H212237   2.870   3.032   1.738
 3999WAT      O12238   8.428   5.533   6.207
 3999WAT     H112239   8.438   5.443   6.249
 3999WAT     H212240   8.436   5.604   6.277
 4000WAT      O12241   8.063   8.177   7.989
 4000WAT     H112242   8.089   8.269   8.019
 4000WAT     H212243   8.045   8.119   8.068
 4001WAT      O12244   2.669   2.197   4.553
 4001WAT     H112245   2.665   2.116   4.612
 4001WAT     H212246   2.671   2.168   4.457
 4002WAT      O12247   0.081   2.981   8.001
 4002WAT     H112248   0.022   2.912   8.043
 4002WAT     H212249   0.078   3.065   8.055
 4003WAT      O12250   1.644   2.306   0.610
 4003WAT     H112251   1.552   2.274   0.587
 4003WAT     H212252   1.681   2.360   0.534
 4004WAT      O12253   2.000   3.951   7.132
 4004WAT     H112254   1.907   3.986   7.120
 4004WAT     H212255   1.998   3.852   7.144
 4005WAT      O12256   8.102   4.707   5.971
 4005WAT     H112257   8.162   4.738   6.045
 4005WAT     H212258   8.145   4.727   5.883
 4006WAT      O12259   3.672   6.650   6.632
 4006WAT     H112260   3.604   6.587   6.671
 4006WAT     H212261   3.706   6.710   6.705
 4007WAT      O12262   9.596   1.378   3.948
 4007WAT     H112263   9.502   1.373   3.913
 4007WAT     H212264   9.641   1.459   3.910
 4008WAT      O12265   8.984   4.260   4.721
 4008WAT     H112266   9.075   4.297   4.707
 4008WAT     H212267   8.987   4.160   4.712
 4009WAT      O12268   4.551   5.766   8.601
 4009WAT     H112269   4.467   5.808   8.637
 4009WAT     H212270   4.582   5.695   8.663
 4010WAT      O12271   0.702   1.797   9.781
 4010WAT     H112272   0.683   1.787   9.878
 4010WAT     H212273   0.709   1.895   9.758
 4011WAT      O12274   6.222   6.842   7.600
 4011WAT     H112275   6.258   6.767   7.654
 4011WAT     H212276   6.208   6.812   7.506
 4012WAT      O12277   5.988   5.488   5.743
 4012WAT     H112278   6.022   5.550   5.673
 4012WAT     H212279   6.043   5.404   5.743
 4013WAT      O12280   0.737   8.424   7.587
 4013WAT     H112281   0.788   8.465   7.511
 4013WAT     H212282   0.639   8.440   7.574
 4014WAT      O12283   4.257   0.523   4.388
 4014WAT     H112284   4.356   0.512   4.381
 4014WAT     H212285   4.229   0.513   4.484
 4015WAT      O12286   5.485   1.152   4.914
 4015WAT     H112287   5.392   1.162   4.879
 4015WAT     H212288   5.499   1.218   4.989
 4016WAT      O12289   1.805   5.025   1.657
 4016WAT     H112290   1.801   5.083   1.575
 4016WAT     H212291   1.852   5.075   1.730
 4017WAT      O12292   5.148   6.141   3.380
 4017WAT     H112293   5.227   6.082   3.397
 4017WAT     H212294   5.123   6.136   3.283
 4018WAT      O12295   5.691   1.518   5.120
 4018WAT     H112296   5.773   1.563   5.157
 4018WAT     H212297   5.702   1.419   5.125
 4019WAT      O12298   8.009   1.337   8.061
 4019WAT     H112299   7.983   1.430   8.033
 4019WAT     H212300   7.934   1.296   8.113
 4020WAT      O12301   6.784   0.666   9.318
 4020WAT     H112302   6.839   0.683   9.236
 4020WAT     H212303   6.796   0.571   9.347
 4021WAT      O12304   8.981   0.128   3.502
 4021WAT     H112305   9.078   0.110   3.489
 4021WAT     H212306   8.963   0.147   3.599
 4022WAT      O12307   9.851   7.150   5.609
 4022WAT     H112308   9.788   7.225   5.592
 4022WAT     H212309   9.945   7.181   5.598
 4023WAT      O12310   7.154   1.378   5.012
 4023WAT     H112311   7.214   1.415   4.941
 4023WAT     H212312   7.066   1.426   5.009
 4024WAT      O12313   0.099   4.160   6.989
 4024WAT     H112314   0.123   4.118   6.901
 4024WAT     H212315   0.157   4.121   7.061
 4025WAT      O12316   4.719   9.315   1.951
 4025WAT     H112317   4.671   9.356   1.874
 4025WAT     H212318   4.818   9.323   1.937
 4026WAT      O12319   8.556   2.025   6.996
 4026WAT     H112320   8.592   2.003   6.906
 4026WAT     H212321   8.628   2.069   7.051
 4027WAT      O12322   6.817   2.369   0.450
 4027WAT     H112323   6.833   2.393   0.354
 4027WAT     H212324   6.816   2.453   0.505
 4028WAT      O12325   9.187   1.683   8.372
 4028WAT     H112326   9.107   1.650   8.321
 4028WAT     H212327   9.206   1.622   8.449
 4029WAT      O12328   4.643   5.467   1.706
 4029WAT     H112329   4.651   5.476   1.805
 4029WAT     H212330   4.560   5.514   1.676
 4030WAT      O12331   4.538   7.487   5.984
 4030WAT     H112332   4.486   7.478   6.069
 4030WAT     H212333   4.520   7.577   5.944
 4031WAT      O12334   5.225   2.978   6.594
 4031WAT     H112335   5.259   2.904   6.653
 4031WAT     H212336   5.155   3.030   6.643
 4032WAT      O12337   1.579   8.727   6.740
 4032WAT     H112338   1.616   8.722   6.833
 4032WAT     H212339   1.646   8.772   6.680
 4033WAT      O12340   0.577   9.610   0.162
 4033WAT     H112341   0.664   9.566   0.182
 4033WAT     H212342   0.510   9.586   0.232
 4034WAT      O12343   5.952   7.283   1.456
 4034WAT     H112344   5.913   7.325   1.538
 4034WAT     H212345   5.983   7.355   1.394
 4035WAT      O12346   4.969   2.404   8.699
 4035WAT     H112347   5.044   2.401   8.765
 4035WAT     H212348   4.905   2.477   8.725
 4036WAT      O12349   1.158   4.368   7.661
 4036WAT     H112350   1.143   4.269   7.660
 4036WAT     H212351   1.133   4.407   7.572
 4037WAT      O12352   4.391   7.412   4.141
 4037WAT     H112353   4.345   7.414   4.229
 4037WAT     H212354   4.349   7.480   4.080
 4038WAT      O12355   6.242   6.251   1.193
 4038WAT     H112356   6.156   6.275   1.148
 4038WAT     H212357   6.278   6.167   1.153
 4039WAT      O12358   2.552   7.927   5.071
 4039WAT     H112359   2.582   8.010   5.118
 4039WAT     H212360   2.577   7.847   5.125
 4040WAT      O12361   5.479   2.583   9.532
 4040WAT     H112362   5.578   2.592   9.531
 4040WAT     H212363   5.437   2.674   9.538
 4041WAT      O12364   5.151   0.003   9.808
 4041WAT     H112365   5.166   0.102   9.800
 4041WAT     H212366   5.177  -0.027   9.900
 4042WAT      O12367   7.721   0.661   4.994
 4042WAT     H112368   7.725   0.638   5.091
 4042WAT     H212369   7.812   0.688   4.963
 4043WAT      O12370   5.633   1.013   5.645
 4043WAT     H112371   5.595   0.943   5.585
 4043WAT     H212372   5.559   1.053   5.700
 4044WAT      O12373   0.669   5.394   5.464
 4044WAT     H112374   0.690   5.425   5.371
 4044WAT     H212375   0.576   5.356   5.466
 4045WAT      O12376   8.255   6.419   7.957
 4045WAT     H112377   8.217   6.334   7.921
 4045WAT     H212378   8.192   6.494   7.936
 4046WAT      O12379   7.009   1.070   0.147
 4046WAT     H112380   7.052   0.995   0.097
 4046WAT     H212381   6.911   1.050   0.158
 4047WAT      O12382   7.609   5.620   4.403
 4047WAT     H112383   7.666   5.598   4.324
 4047WAT     H212384   7.608   5.719   4.417
 4048WAT      O12385   7.978   9.390   2.279
 4048WAT     H112386   7.923   9.472   2.295
 4048WAT     H212387   8.004   9.386   2.183
 4049WAT      O12388   5.399   2.071   6.446
 4049WAT     H112389   5.489   2.096   6.411
 4049WAT     H212390   5.351   2.015   6.378
 4050WAT      O12391   0.823   4.668   4.667
 4050WAT     H112392   0.890   4.609   4.623
 4050WAT     H212393   0.744   4.678   4.607
 4051WAT      O12394   9.886   1.162   3.315
 4051WAT     H112395   9.835   1.191   3.234
 4051WAT     H212396   9.957   1.230   3.335
 4052WAT      O12397   1.854   1.743   6.924
 4052WAT     H112398   1.947   1.728   6.889
 4052WAT     H212399   1.789   1.737   6.848
 4053WAT      O12400   8.357   4.230   9.752
 4053WAT     H112401   8.285   4.300   9.747
 4053WAT     H212402   8.314   4.140   9.765
 4054WAT      O12403   9.821   4.324   9.223
 4054WAT     H112404   9.765   4.284   9.296
 4054WAT     H212405   9.786   4.294   9.134
 4055WAT      O12406   5.950   5.612   3.636
 4055WAT     H112407   5.996   5.688   3.683
 4055WAT     H212408   5.963   5.623   3.537
 4056WAT      O12409   6.147   9.576   0.949
 4056WAT     H112410   6.080   9.644   0.977
 4056WAT     H212411   6.216   9.565   1.021
 4057WAT      O12412   8.743   9.025   0.663
 4057WAT     H112413   8.662   8.967   0.655
 4057WAT     H212414   8.825   8.972   0.640
 4058WAT      O12415   4.275   4.440   8.588
 4058WAT     H112416   4.362   4.429   8.637
 4058WAT     H212417   4.269   4.370   8.516
 4059WAT      O12418   5.374   4.638   4.170
 4059WAT     H112419   5.332   4.588   4.095
 4059WAT     H212420   5.421   4.574   4.231
 4060WAT      O12421   2.143   1.568   9.092
 4060WAT     H112422   2.101   1.485   9.055
 4060WAT     H212423   2.188   1.547   9.178
 4061WAT      O12424   8.115   8.112   5.742
 4061WAT     H112425   8.173   8.192   5.758
 4061WAT     H212426   8.096   8.104   5.644
 4062WAT      O12427   9.625   6.312   0.158
 4062WAT     H112428   9.531   6.291   0.184
 4062WAT     H212429   9.670   6.228   0.126
 4063WAT      O12430   5.147   2.731   7.708
 4063WAT     H112431   5.082   2.737   7.632
 4063WAT     H212432   5.098   2.714   7.793
 4064WAT      O12433   3.844   8.134   4.317
 4064WAT     H112434   3.747   8.145   4.338
 4064WAT     H212435   3.857   8.048   4.266
 4065WAT      O12436   0.466   6.994   1.018
 4065WAT     H112437   0.502   7.082   1.048
 4065WAT     H212438   0.368   7.002   0.999
 4066WAT      O12439   0.639   0.762   0.505
 4066WAT     H112440   0.674   0.854   0.518
 4066WAT     H212441   0.542   0.759   0.529
 4067WAT      O12442   2.573   6.130   3.970
 4067WAT     H112443   2.587   6.219   3.926
 4067WAT     H212444   2.541   6.145   4.064
 4068WAT      O12445   1.833   2.132   1.073
 4068WAT     H112446   1.793   2.158   0.985
 4068WAT     H212447   1.844   2.032   1.076
 4069WAT      O12448   1.464   9.034   7.367
 4069WAT     H112449   1.391   9.032   7.436
 4069WAT     H212450   1.550   9.062   7.410
 4070WAT      O12451   8.412   5.588   3.168
 4070WAT     H112452   8.414   5.650   3.247
 4070WAT     H212453   8.327   5.536   3.170
 4071WAT      O12454   9.786   5.552   2.086
 4071WAT     H112455   9.716   5.623   2.098
 4071WAT     H212456   9.841   5.546   2.168
 4072WAT      O12457   7.868   6.362   5.700
 4072WAT     H112458   7.866   6.435   5.770
 4072WAT     H212459   7.797   6.380   5.632
 4073WAT      O12460   1.672   3.918   0.173
 4073WAT     H112461   1.633   3.998   0.128
 4073WAT     H212462   1.727   3.866   0.107
 4074WAT      O12463   4.266   2.367   8.741
 4074WAT     H112464   4.199   2.441   8.743
 4074WAT     H212465   4.260   2.319   8.653
 4075WAT      O12466   4.442   3.849   2.535
 4075WAT     H112467   4.420   3.946   2.541
 4075WAT     H212468   4.540   3.837   2.522
 4076WAT      O12469   2.825   1.216   1.901
 4076WAT     H112470   2.752   1.284   1.885
 4076WAT     H212471   2.892   1.254   1.965
 4077WAT      O12472   6.405   4.824   2.620
 4077WAT     H112473   6.412   4.916   2.580
 4077WAT     H212474   6.454   4.759   2.563
 4078WAT      O12475   8.191   8.859   5.401
 4078WAT     H112476   8.101   8.894   5.377
 4078WAT     H212477   8.209   8.775   5.349
 4079WAT      O12478   5.846   9.298   7.228
 4079WAT     H112479   5.795   9.212   7.235
 4079WAT     H212480   5.821   9.357   7.305
 4080WAT      O12481   1.568   5.604   2.525
 4080WAT     H112482   1.552   5.702   2.527
 4080WAT     H212483   1.665   5.586   2.514
 4081WAT      O12484   3.532   6.787   8.162
 4081WAT     H112485   3.595   6.858   8.130
 4081WAT     H212486   3.439   6.811   8.136
 4082WAT      O12487   5.012   1.379   6.969
 4082WAT     H112488   5.068   1.432   7.033
 4082WAT     H212489   4.924   1.359   7.011
 4083WAT      O12490   3.405   9.709   8.916
 4083WAT     H112491   3.444   9.642   8.853
 4083WAT     H212492   3.467   9.720   8.995
 4084WAT      O12493   6.732   2.306   5.939
 4084WAT     H112494   6.778   2.250   6.007
 4084WAT     H212495   6.786   2.305   5.854
 4085WAT      O12496   6.135   1.213   4.867
 4085WAT     H112497   6.156   1.119   4.894
 4085WAT     H212498   6.051   1.214   4.813
 4086WAT      O12499   8.697   8.547   1.823
 4086WAT     H112500   8.669   8.452   1.810
 4086WAT     H212501   8.659   8.581   1.909
 4087WAT      O12502   4.426   2.191   2.836
 4087WAT     H112503   4.419   2.099   2.800
 4087WAT     H212504   4.521   2.210   2.863
 4088WAT      O12505   0.702   0.853   5.354
 4088WAT     H112506   0.731   0.766   5.315
 4088WAT     H212507   0.609   0.874   5.323
 4089WAT      O12508   0.579   6.083   8.705
 4089WAT     H112509   0.537   6.123   8.787
 4089WAT     H212510   0.652   6.142   8.673
 4090WAT      O12511   2.172   0.962   9.428
 4090WAT     H112512   2.082   1.005   9.420
 4090WAT     H212513   2.160   0.865   9.449
 4091WAT      O12514   0.065   4.155   7.937
 4091WAT     H112515   0.132   4.166   7.863
 4091WAT     H212516   0.094   4.080   7.997
 4092WAT      O12517   4.808   7.184   0.700
 4092WAT     H112518   4.776   7.269   0.740
 4092WAT     H212519   4.901   7.166   0.731
 4093WAT      O12520   1.781   3.216   3.068
 4093WAT     H112521   1.878   3.206   3.090
 4093WAT     H212522   1.740   3.283   3.130
 4094WAT      O12523   3.685   7.970   5.393
 4094WAT     H112524   3.693   8.002   5.299
 4094WAT     H212525   3.680   8.049   5.455
 4095WAT      O12526   0.300   4.256   0.618
 4095WAT     H112527   0.337   4.163   0.611
 4095WAT     H212528   0.222   4.266   0.556
 4096WAT      O12529   2.770   9.219   2.997
 4096WAT     H112530   2.700   9.148   2.997
 4096WAT     H212531   2.778   9.258   2.905
 4097WAT      O12532   0.613   5.920   4.685
 4097WAT     H112533   0.514   5.925   4.671
 4097WAT     H212534   0.632   5.908   4.783
 4098WAT      O12535   6.872   8.414   4.040
 4098WAT     H112536   6.868   8.499   3.987
 4098WAT     H212537   6.947   8.420   4.106
 4099WAT      O12538   3.416   7.369   1.743
 4099WAT     H112539   3.383   7.319   1.663
 4099WAT     H212540   3.366   7.455   1.751
 4100WAT      O12541   9.769   8.243   6.465
 4100WAT     H112542   9.715   8.190   6.399
 4100WAT     H212543   9.832   8.303   6.415
 4101WAT      O12544   9.488   7.561   9.029
 4101WAT     H112545   9.570   7.503   9.027
 4101WAT     H212546   9.425   7.532   8.957
 4102WAT      O12547   3.543   4.351   9.716
 4102WAT     H112548   3.494   4.383   9.797
 4102WAT     H212549   3.488   4.283   9.668
 4103WAT      O12550   5.327   9.745   9.030
 4103WAT     H112551   5.317   9.686   9.110
 4103WAT     H212552   5.279   9.831   9.046
 4104WAT      O12553   7.576   3.601   5.840
 4104WAT     H112554   7.542   3.509   5.819
 4104WAT     H212555   7.531   3.667   5.781
 4105WAT      O12556   2.114   5.740   1.226
 4105WAT     H112557   2.139   5.756   1.131
 4105WAT     H212558   2.065   5.820   1.262
 4106WAT      O12559   6.525   5.853   2.694
 4106WAT     H112560   6.459   5.779   2.704
 4106WAT     H212561   6.503   5.908   2.613
 4107WAT      O12562   7.336   4.942   5.087
 4107WAT     H112563   7.304   5.031   5.119
 4107WAT     H212564   7.283   4.870   5.132
 4108WAT      O12565   5.464   1.524   3.304
 4108WAT     H112566   5.545   1.510   3.248
 4108WAT     H212567   5.384   1.538   3.244
 4109WAT      O12568   0.325   8.567   2.697
 4109WAT     H112569   0.228   8.571   2.672
 4109WAT     H212570   0.353   8.653   2.738
 4110WAT      O12571   0.846   7.032   4.361
 4110WAT     H112572   0.935   7.075   4.345
 4110WAT     H212573   0.801   7.016   4.273
 4111WAT      O12574   5.963   6.294   7.679
 4111WAT     H112575   5.920   6.363   7.622
 4111WAT     H212576   5.971   6.208   7.629
 4112WAT      O12577   0.653   1.245   9.101
 4112WAT     H112578   0.742   1.272   9.064
 4112WAT     H212579   0.658   1.149   9.129
 4113WAT      O12580   6.491   9.218   3.094
 4113WAT     H112581   6.472   9.121   3.079
 4113WAT     H212582   6.411   9.261   3.136
 4114WAT      O12583   5.350   3.130   9.096
 4114WAT     H112584   5.345   3.229   9.110
 4114WAT     H212585   5.340   3.110   8.998
 4115WAT      O12586   2.285   5.985   6.322
 4115WAT     H112587   2.243   6.041   6.393
 4115WAT     H212588   2.356   6.038   6.275
 4116WAT      O12589   0.450   9.660   6.199
 4116WAT     H112590   0.394   9.721   6.254
 4116WAT     H212591   0.459   9.696   6.106
 4117WAT      O12592   6.735   2.294   9.650
 4117WAT     H112593   6.689   2.368   9.699
 4117WAT     H212594   6.673   2.216   9.641
 4118WAT      O12595   7.236   9.140   2.612
 4118WAT     H112596   7.140   9.114   2.606
 4118WAT     H212597   7.249   9.230   2.569
 4119WAT      O12598   5.095   0.650   8.234
 4119WAT     H112599   5.126   0.655   8.329
 4119WAT     H212600   5.008   0.600   8.230
 4120WAT      O12601   9.053   4.305   4.103
 4120WAT     H112602   8.963   4.262   4.101
 4120WAT     H212603   9.081   4.329   4.010
 4121WAT      O12604   5.610   1.828   6.038
 4121WAT     H112605   5.525   1.829   5.986
 4121WAT     H212606   5.598   1.772   6.120
 4122WAT      O12607   1.983   0.188   3.426
 4122WAT     H112608   1.926   0.267   3.402
 4122WAT     H212609   2.078   0.218   3.437
 4123WAT      O12610   6.974   4.519   8.345
 4123WAT     H112611   7.009   4.450   8.281
 4123WAT     H212612   6.976   4.481   8.438
 4124WAT      O12613   3.084   8.836   5.471
 4124WAT     H112614   3.134   8.750   5.459
 4124WAT     H212615   3.090   8.865   5.566
 4125WAT      O12616   3.892   9.801   6.543
 4125WAT     H112617   3.822   9.756   6.599
 4125WAT     H212618   3.856   9.816   6.451
 4126WAT      O12619   1.062   2.419   6.915
 4126WAT     H112620   0.982   2.441   6.860
 4126WAT     H212621   1.062   2.475   6.998
 4127WAT      O12622   8.686   1.842   1.406
 4127WAT     H112623   8.744   1.778   1.456
 4127WAT     H212624   8.592   1.806   1.403
 4128WAT      O12625   3.812   5.299   8.194
 4128WAT     H112626   3.865   5.311   8.278
 4128WAT     H212627   3.874   5.291   8.116
 4129WAT      O12628   2.435   7.328   7.630
 4129WAT     H112629   2.338   7.348   7.615
 4129WAT     H212630   2.486   7.343   7.545
 4130WAT      O12631   8.469   5.048   9.213
 4130WAT     H112632   8.450   4.952   9.233
 4130WAT     H212633   8.552   5.076   9.262
 4131WAT      O12634   4.981   8.635   6.469
 4131WAT     H112635   5.038   8.632   6.387
 4131WAT     H212636   4.909   8.704   6.458
 4132WAT      O12637   1.338   1.273   7.480
 4132WAT     H112638   1.411   1.238   7.538
 4132WAT     H212639   1.273   1.325   7.535
 4133WAT      O12640   1.527   9.306   5.432
 4133WAT     H112641   1.602   9.368   5.456
 4133WAT     H212642   1.562   9.213   5.419
 4134WAT      O12643   3.032   3.957   3.099
 4134WAT     H112644   3.120   3.992   3.133
 4134WAT     H212645   3.029   3.858   3.111
 4135WAT      O12646   9.356   7.909   1.028
 4135WAT     H112647   9.285   7.969   1.064
 4135WAT     H212648   9.428   7.965   0.985
 4136WAT      O12649   8.457   3.171   1.296
 4136WAT     H112650   8.549   3.202   1.317
 4136WAT     H212651   8.391   3.240   1.325
 4137WAT      O12652   6.764   9.818   1.734
 4137WAT     H112653   6.771   9.904   1.783
 4137WAT     H212654   6.668   9.791   1.727
 4138WAT      O12655   0.150   0.600   4.657
 4138WAT     H112656   0.210   0.648   4.593
 4138WAT     H212657   0.109   0.521   4.611
 4139WAT      O12658   3.345   7.976   1.953
 4139WAT     H112659   3.437   8.005   1.980
 4139WAT     H212660   3.339   7.975   1.853
 4140WAT      O12661   0.843   0.775   7.318
 4140WAT     H112662   0.822   0.776   7.415
 4140WAT     H212663   0.913   0.843   7.298
 4141WAT      O12664   7.225   5.793   3.361
 4141WAT     H112665   7.217   5.723   3.290
 4141WAT     H212666   7.300   5.855   3.337
 4142WAT      O12667   7.806   5.299   7.281
 4142WAT     H112668   7.748   5.231   7.238
 4142WAT     H212669   7.782   5.308   7.378
 4143WAT      O12670   0.245   1.179   2.240
 4143WAT     H112671   0.271   1.274   2.228
 4143WAT     H212672   0.191   1.169   2.324
 4144WAT      O12673   4.215   2.247   9.766
 4144WAT     H112674   4.279   2.243   9.842
 4144WAT     H212675   4.225   2.165   9.709
 4145WAT      O12676   5.197   8.833   5.653
 4145WAT     H112677   5.127   8.824   5.723
 4145WAT     H212678   5.177   8.913   5.596
 4146WAT      O12679   0.460   6.557   6.873
 4146WAT     H112680   0.365   6.553   6.904
 4146WAT     H212681   0.481   6.649   6.840
 4147WAT      O12682   7.647   8.820   3.788
 4147WAT     H112683   7.737   8.779   3.776
 4147WAT     H212684   7.647   8.913   3.752
 4148WAT      O12685   0.548   3.184   7.964
 4148WAT     H112686   0.563   3.277   7.932
 4148WAT     H212687   0.629   3.153   8.015
 4149WAT      O12688   6.880   6.536   5.372
 4149WAT     H112689   6.957   6.511   5.431
 4149WAT     H212690   6.841   6.622   5.403
 4150WAT      O12691   3.663   1.012   4.662
 4150WAT     H112692   3.572   0.975   4.643
 4150WAT     H212693   3.658   1.112   4.668
 4151WAT      O12694   9.536   4.437   6.944
 4151WAT     H112695   9.545   4.432   6.845
 4151WAT     H212696   9.503   4.350   6.980
 4152WAT      O12697   6.893   4.447   3.223
 4152WAT     H112698   6.827   4.379   3.252
 4152WAT     H212699   6.945   4.480   3.302
 4153WAT      O12700   7.563   4.100   5.543
 4153WAT     H112701   7.610   4.164   5.604
 4153WAT     H212702   7.473   4.077   5.581
 4154WAT      O12703   9.619   0.368   2.616
 4154WAT     H112704   9.646   0.359   2.520
 4154WAT     H212705   9.684   0.427   2.664
 4155WAT      O12706   6.574   5.632   4.772
 4155WAT     H112707   6.535   5.661   4.859
 4155WAT     H212708   6.646   5.694   4.744
 4156WAT      O12709   5.005   9.822   4.947
 4156WAT     H112710   5.058   9.863   5.022
 4156WAT     H212711   4.932   9.766   4.985
 4157WAT      O12712   3.773   2.825   1.961
 4157WAT     H112713   3.717   2.822   2.044
 4157WAT     H212714   3.790   2.731   1.930
 4158WAT      O12715   7.524   6.118   6.644
 4158WAT     H112716   7.514   6.042   6.707
 4158WAT     H212717   7.542   6.202   6.695
 4159WAT      O12718   2.252   2.488   0.580
 4159WAT     H112719   2.186   2.414   0.562
 4159WAT     H212720   2.239   2.522   0.673
 4160WAT      O12721   9.428   2.891   0.758
 4160WAT     H112722   9.510   2.847   0.794
 4160WAT     H212723   9.409   2.974   0.810
 4161WAT      O12724   7.725   0.218   3.820
 4161WAT     H112725   7.784   0.140   3.800
 4161WAT     H212726   7.765   0.301   3.782
 4162WAT      O12727   2.975   5.211   3.321
 4162WAT     H112728   2.925   5.238   3.403
 4162WAT     H212729   2.949   5.118   3.295
 4163WAT      O12730   0.847   7.237   7.134
 4163WAT     H112731   0.848   7.316   7.195
 4163WAT     H212732   0.838   7.153   7.189
 4164WAT      O12733   8.409   6.277   5.635
 4164WAT     H112734   8.366   6.362   5.664
 4164WAT     H212735   8.493   6.298   5.585
 4165WAT      O12736   9.691   4.232   0.745
 4165WAT     H112737   9.752   4.252   0.821
 4165WAT     H212738   9.655   4.139   0.755
 4166WAT      O12739   4.042   7.152   0.280
 4166WAT     H112740   4.120   7.131   0.221
 4166WAT     H212741   4.056   7.112   0.370
 4167WAT      O12742   4.106   5.554   2.158
 4167WAT     H112743   4.206   5.565   2.159
 4167WAT     H212744   4.081   5.478   2.218
 4168WAT      O12745   0.903   8.996   6.780
 4168WAT     H112746   0.982   9.045   6.817
 4168WAT     H212747   0.841   9.062   6.737
 4169WAT      O12748   5.456   1.474   6.594
 4169WAT     H112749   5.421   1.394   6.545
 4169WAT     H212750   5.398   1.552   6.576
 4170WAT      O12751   3.775   5.152   1.183
 4170WAT     H112752   3.830   5.090   1.127
 4170WAT     H212753   3.754   5.108   1.270
 4171WAT      O12754   0.666   0.426   6.628
 4171WAT     H112755   0.698   0.338   6.594
 4171WAT     H212756   0.569   0.419   6.653
 4172WAT      O12757   7.019   5.713   5.912
 4172WAT     H112758   7.118   5.719   5.926
 4172WAT     H212759   7.001   5.675   5.821
 4173WAT      O12760   5.774   0.335   5.041
 4173WAT     H112761   5.833   0.372   5.113
 4173WAT     H212762   5.714   0.265   5.080
 4174WAT      O12763   1.554   1.486   7.388
 4174WAT     H112764   1.581   1.553   7.320
 4174WAT     H212765   1.552   1.395   7.347
 4175WAT      O12766   4.810   5.632   9.032
 4175WAT     H112767   4.743   5.610   9.104
 4175WAT     H212768   4.766   5.624   8.943
 4176WAT      O12769   8.064   8.575   2.032
 4176WAT     H112770   8.074   8.643   1.959
 4176WAT     H212771   7.968   8.549   2.041
 4177WAT      O12772   1.193   0.432   1.877
 4177WAT     H112773   1.156   0.510   1.928
 4177WAT     H212774   1.136   0.351   1.894
 4178WAT      O12775   4.587   2.771   6.354
 4178WAT     H112776   4.605   2.779   6.256
 4178WAT     H212777   4.488   2.771   6.369
 4179WAT      O12778   7.243   7.635   3.181
 4179WAT     H112779   7.267   7.688   3.262
 4179WAT     H212780   7.206   7.546   3.209
 4180WAT      O12781   3.760   4.356   4.715
 4180WAT     H112782   3.810   4.360   4.802
 4180WAT     H212783   3.742   4.261   4.691
 4181WAT      O12784   3.791   6.711   6.048
 4181WAT     H112785   3.836   6.746   5.966
 4181WAT     H212786   3.742   6.786   6.094
 4182WAT      O12787   5.135   8.221   2.082
 4182WAT     H112788   5.132   8.250   2.178
 4182WAT     H212789   5.057   8.260   2.033
 4183WAT      O12790   8.753   7.194   4.303
 4183WAT     H112791   8.659   7.228   4.302
 4183WAT     H212792   8.785   7.190   4.398
 4184WAT      O12793   2.049   7.855   1.094
 4184WAT     H112794   2.140   7.896   1.089
 4184WAT     H212795   2.050   7.782   1.162
 4185WAT      O12796   8.761   6.327   7.428
 4185WAT     H112797   8.720   6.279   7.350
 4185WAT     H212798   8.806   6.410   7.395
 4186WAT      O12799   4.702   9.385   4.039
 4186WAT     H112800   4.612   9.344   4.023
 4186WAT     H212801   4.703   9.478   4.003
 4187WAT      O12802   5.110   0.551   5.118
 4187WAT     H112803   5.183   0.601   5.164
 4187WAT     H212804   5.103   0.458   5.156
 4188WAT      O12805   2.601   7.677   5.166
 4188WAT     H112806   2.503   7.660   5.172
 4188WAT     H212807   2.652   7.597   5.197
 4189WAT      O12808   5.632   6.513   9.196
 4189WAT     H112809   5.727   6.516   9.166
 4189WAT     H212810   5.602   6.418   9.203
 4190WAT      O12811   4.366   4.160   3.103
 4190WAT     H112812   4.272   4.160   3.067
 4190WAT     H212813   4.401   4.067   3.106
 4191WAT      O12814   6.493   3.471   1.446
 4191WAT     H112815   6.412   3.485   1.389
 4191WAT     H212816   6.572   3.512   1.402
 4192WAT      O12817   9.463   0.740   7.600
 4192WAT     H112818   9.434   0.693   7.683
 4192WAT     H212819   9.549   0.701   7.567
 4193WAT      O12820   6.404   3.311   0.986
 4193WAT     H112821   6.382   3.221   1.023
 4193WAT     H212822   6.322   3.369   0.988
 4194WAT      O12823   4.587   8.703   9.225
 4194WAT     H112824   4.628   8.656   9.147
 4194WAT     H212825   4.559   8.795   9.199
 4195WAT      O12826   5.022   3.453   7.305
 4195WAT     H112827   4.979   3.468   7.215
 4195WAT     H212828   5.115   3.419   7.293
 4196WAT      O12829   8.308   1.571   3.894
 4196WAT     H112830   8.231   1.594   3.836
 4196WAT     H212831   8.343   1.654   3.938
 4197WAT      O12832   1.169   5.543   3.016
 4197WAT     H112833   1.130   5.485   2.944
 4197WAT     H212834   1.235   5.606   2.975
 4198WAT      O12835   5.468   9.529   3.468
 4198WAT     H112836   5.557   9.484   3.473
 4198WAT     H212837   5.418   9.496   3.389
 4199WAT      O12838   5.035   2.902   8.953
 4199WAT     H112839   4.960   2.863   8.899
 4199WAT     H212840   4.997   2.963   9.023
 4200WAT      O12841   8.678   2.607   7.443
 4200WAT     H112842   8.756   2.575   7.497
 4200WAT     H212843   8.611   2.533   7.436
 4201WAT      O12844   7.015   6.446   7.251
 4201WAT     H112845   6.994   6.415   7.344
 4201WAT     H212846   6.940   6.423   7.190
 4202WAT      O12847   6.806   1.161   4.019
 4202WAT     H112848   6.856   1.232   3.969
 4202WAT     H212849   6.816   1.073   3.972
 4203WAT      O12850   5.636   4.386   9.485
 4203WAT     H112851   5.609   4.451   9.556
 4203WAT     H212852   5.648   4.295   9.526
 4204WAT      O12853   8.782   7.781   6.724
 4204WAT     H112854   8.750   7.866   6.763
 4204WAT     H212855   8.704   7.728   6.690
 4205WAT      O12856   7.819   9.673   2.572
 4205WAT     H112857   7.726   9.708   2.561
 4205WAT     H212858   7.848   9.628   2.487
 4206WAT      O12859   2.159   9.817   1.566
 4206WAT     H112860   2.060   9.811   1.555
 4206WAT     H212861   2.181   9.891   1.630
 4207WAT      O12862   4.340   1.039   3.993
 4207WAT     H112863   4.391   0.991   3.921
 4207WAT     H212864   4.255   0.991   4.011
 4208WAT      O12865   3.813   4.798   8.665
 4208WAT     H112866   3.831   4.804   8.763
 4208WAT     H212867   3.864   4.870   8.617
 4209WAT      O12868   4.662   5.899   4.181
 4209WAT     H112869   4.709   5.822   4.224
 4209WAT     H212870   4.626   5.960   4.251
 4210WAT      O12871   9.866   3.422   9.686
 4210WAT     H112872   9.845   3.371   9.603
 4210WAT     H212873   9.787   3.479   9.710
 4211WAT      O12874   3.954   8.935   5.286
 4211WAT     H112875   4.029   8.940   5.221
 4211WAT     H212876   3.916   9.026   5.300
 4212WAT      O12877   6.332   1.947   8.209
 4212WAT     H112878   6.255   1.978   8.264
 4212WAT     H212879   6.376   2.026   8.167
 4213WAT      O12880   3.967   4.620   6.707
 4213WAT     H112881   3.930   4.662   6.624
 4213WAT     H212882   3.891   4.595   6.767
 4214WAT      O12883   4.506   4.034   5.412
 4214WAT     H112884   4.580   4.019   5.347
 4214WAT     H212885   4.543   4.033   5.505
 4215WAT      O12886   2.811   2.286   0.472
 4215WAT     H112887   2.842   2.207   0.524
 4215WAT     H212888   2.716   2.272   0.443
 4216WAT      O12889   1.310   4.132   0.088
 4216WAT     H112890   1.388   4.190   0.110
 4216WAT     H212891   1.270   4.096   0.172
 4217WAT      O12892   2.176   5.054   1.630
 4217WAT     H112893   2.117   5.024   1.555
 4217WAT     H212894   2.229   5.133   1.600
 4218WAT      O12895   9.180   2.165   1.076
 4218WAT     H112896   9.136   2.229   1.013
 4218WAT     H212897   9.232   2.098   1.025
 4219WAT      O12898   0.640   6.716   3.547
 4219WAT     H112899   0.640   6.750   3.641
 4219WAT     H212900   0.557   6.746   3.501
 4220WAT      O12901   6.122   8.319   6.110
 4220WAT     H112902   6.160   8.297   6.020
 4220WAT     H212903   6.154   8.252   6.177
 4221WAT      O12904   3.254   1.500   4.880
 4221WAT     H112905   3.331   1.540   4.930
 4221WAT     H212906   3.204   1.573   4.833
 4222WAT      O12907   0.969   1.779   0.111
 4222WAT     H112908   0.971   1.689   0.066
 4222WAT     H212909   0.940   1.768   0.206
 4223WAT      O12910   4.305   4.494   3.560
 4223WAT     H112911   4.294   4.466   3.465
 4223WAT     H212912   4.262   4.426   3.620
 4224WAT      O12913   1.502   1.241   2.831
 4224WAT     H112914   1.596   1.256   2.801
 4224WAT     H212915   1.453   1.186   2.762
 4225WAT      O12916   4.097   1.895   0.542
 4225WAT     H112917   4.125   1.814   0.490
 4225WAT     H212918   4.129   1.887   0.636
 4226WAT      O12919   3.323   5.879   0.219
 4226WAT     H112920   3.355   5.822   0.143
 4226WAT     H212921   3.288   5.821   0.292
 4227WAT      O12922   5.382   5.619   9.163
 4227WAT     H112923   5.340   5.564   9.236
 4227WAT     H212924   5.327   5.701   9.147
 4228WAT      O12925   3.133   1.652   3.640
 4228WAT     H112926   3.177   1.734   3.676
 4228WAT     H212927   3.042   1.643   3.680
 4229WAT      O12928   9.239   9.184   8.727
 4229WAT     H112929   9.297   9.164   8.805
 4229WAT     H212930   9.146   9.202   8.758
 4230WAT      O12931   6.591   1.355   8.630
 4230WAT     H112932   6.636   1.320   8.712
 4230WAT     H212933   6.621   1.449   8.612
 4231WAT      O12934   4.899   6.558   7.616
 4231WAT     H112935   4.895   6.472   7.564
 4231WAT     H212936   4.826   6.619   7.586
 4232WAT      O12937   6.903   3.169   6.290
 4232WAT     H112938   6.871   3.099   6.354
 4232WAT     H212939   6.942   3.246   6.342
 4233WAT      O12940   3.772   7.808   2.568
 4233WAT     H112941   3.717   7.767   2.495
 4233WAT     H212942   3.724   7.888   2.605
 4234WAT      O12943   9.021   5.209   8.112
 4234WAT     H112944   8.953   5.270   8.154
 4234WAT     H212945   8.979   5.120   8.094
 4235WAT      O12946   7.993   7.076   9.013
 4235WAT     H112947   8.075   7.120   8.978
 4235WAT     H212948   7.966   7.118   9.100
 4236WAT      O12949   1.708   6.325   9.633
 4236WAT     H112950   1.784   6.363   9.685
 4236WAT     H212951   1.628   6.317   9.693
 4237WAT      O12952   7.707   5.546   0.462
 4237WAT     H112953   7.648   5.476   0.502
 4237WAT     H212954   7.735   5.519   0.371
 4238WAT      O12955   3.514   3.535   3.818
 4238WAT     H112956   3.514   3.581   3.729
 4238WAT     H212957   3.439   3.468   3.820
 4239WAT      O12958   4.080   4.214   6.518
 4239WAT     H112959   4.103   4.118   6.508
 4239WAT     H212960   4.163   4.269   6.524
 4240WAT      O12961   1.319   5.914   9.463
 4240WAT     H112962   1.294   6.008   9.439
 4240WAT     H212963   1.383   5.915   9.540
 4241WAT      O12964   3.273   2.866   8.399
 4241WAT     H112965   3.274   2.903   8.492
 4241WAT     H212966   3.197   2.907   8.348
 4242WAT      O12967   3.472   9.190   5.506
 4242WAT     H112968   3.405   9.122   5.475
 4242WAT     H212969   3.441   9.281   5.478
 4243WAT      O12970   7.522   7.151   8.681
 4243WAT     H112971   7.432   7.190   8.665
 4243WAT     H212972   7.545   7.156   8.778
 4244WAT      O12973   2.329   0.542   4.680
 4244WAT     H112974   2.387   0.548   4.599
 4244WAT     H212975   2.298   0.634   4.706
 4245WAT      O12976   4.934   7.849   9.132
 4245WAT     H112977   4.835   7.863   9.138
 4245WAT     H212978   4.980   7.899   9.206
 4246WAT      O12979   5.290   1.682   6.247
 4246WAT     H112980   5.388   1.666   6.233
 4246WAT     H212981   5.238   1.630   6.180
 4247WAT      O12982   0.283   1.310   3.917
 4247WAT     H112983   0.280   1.398   3.870
 4247WAT     H212984   0.261   1.322   4.014
 4248WAT      O12985   8.436   4.132   8.678
 4248WAT     H112986   8.452   4.067   8.603
 4248WAT     H212987   8.506   4.120   8.748
 4249WAT      O12988   4.516   6.274   2.783
 4249WAT     H112989   4.566   6.299   2.700
 4249WAT     H212990   4.456   6.349   2.809
 4250WAT      O12991   4.855   8.428   0.502
 4250WAT     H112992   4.937   8.485   0.494
 4250WAT     H212993   4.828   8.396   0.411
 4251WAT      O12994   8.569   5.006   6.772
 4251WAT     H112995   8.632   4.954   6.714
 4251WAT     H212996   8.538   4.949   6.847
 4252WAT      O12997   2.534   7.649   2.528
 4252WAT     H112998   2.634   7.654   2.519
 4252WAT     H212999   2.491   7.656   2.438
 4253WAT      O13000   3.683   2.334   8.445
 4253WAT     H113001   3.653   2.307   8.354
 4253WAT     H213002   3.783   2.342   8.446
 4254WAT      O13003   3.136   7.079   6.294
 4254WAT     H113004   3.200   7.074   6.218
 4254WAT     H213005   3.093   6.990   6.307
 4255WAT      O13006   4.678   8.969   1.877
 4255WAT     H113007   4.764   9.018   1.862
 4255WAT     H213008   4.696   8.870   1.875
 4256WAT      O13009   7.467   2.209   2.687
 4256WAT     H113010   7.378   2.163   2.684
 4256WAT     H213011   7.454   2.308   2.691
 4257WAT      O13012   0.123   5.631   3.591
 4257WAT     H113013   0.067   5.690   3.533
 4257WAT     H213014   0.074   5.545   3.606
 4258WAT      O13015   2.705   7.338   6.290
 4258WAT     H113016   2.630   7.273   6.277
 4258WAT     H213017   2.670   7.424   6.328
 4259WAT      O13018   3.961   1.920   8.158
 4259WAT     H113019   3.975   2.002   8.104
 4259WAT     H213020   4.050   1.880   8.182
 4260WAT      O13021   9.479   0.889   7.889
 4260WAT     H113022   9.568   0.868   7.930
 4260WAT     H213023   9.450   0.812   7.832
 4261WAT      O13024   1.106   5.440   5.886
 4261WAT     H113025   1.110   5.540   5.895
 4261WAT     H213026   1.036   5.404   5.948
 4262WAT      O13027   1.888   4.447   3.337
 4262WAT     H113028   1.907   4.529   3.283
 4262WAT     H213029   1.815   4.395   3.292
 4263WAT      O13030   8.672   1.461   6.994
 4263WAT     H113031   8.660   1.555   7.028
 4263WAT     H213032   8.687   1.464   6.895
 4264WAT      O13033   3.006   1.391   0.430
 4264WAT     H113034   2.939   1.316   0.438
 4264WAT     H213035   2.957   1.478   0.426
 4265WAT      O13036   2.197   2.227   4.475
 4265WAT     H113037   2.192   2.278   4.561
 4265WAT     H213038   2.289   2.234   4.437
 4266WAT      O13039   1.515   5.348   0.187
 4266WAT     H113040   1.490   5.442   0.161
 4266WAT     H213041   1.491   5.285   0.113
 4267WAT      O13042   8.995   3.414   2.671
 4267WAT     H113043   8.895   3.402   2.672
 4267WAT     H213044   9.038   3.325   2.659
 4268WAT      O13045   0.869   0.397   3.235
 4268WAT     H113046   0.774   0.367   3.247
 4268WAT     H213047   0.924   0.320   3.200
 4269WAT      O13048   6.303   9.392   0.129
 4269WAT     H113049   6.365   9.377   0.052
 4269WAT     H213050   6.353   9.433   0.205
 4270WAT      O13051   2.654   1.061   2.264
 4270WAT     H113052   2.694   1.051   2.355
 4270WAT     H213053   2.653   1.158   2.238
 4271WAT      O13054   7.688   1.857   5.472
 4271WAT     H113055   7.642   1.787   5.527
 4271WAT     H213056   7.782   1.869   5.506
 4272WAT      O13057   6.253   3.724   0.110
 4272WAT     H113058   6.183   3.680   0.054
 4272WAT     H213059   6.256   3.822   0.090
 4273WAT      O13060   8.154   2.446   2.901
 4273WAT     H113061   8.119   2.353   2.899
 4273WAT     H213062   8.127   2.494   2.817
 4274WAT      O13063   0.582   1.666   2.356
 4274WAT     H113064   0.509   1.725   2.322
 4274WAT     H213065   0.621   1.613   2.281
 4275WAT      O13066   0.022   9.393   8.423
 4275WAT     H113067   0.036   9.439   8.335
 4275WAT     H213068   0.100   9.335   8.444
 4276WAT      O13069   2.289   0.926   1.071
 4276WAT     H113070   2.370   0.928   1.012
 4276WAT     H213071   2.284   0.838   1.117
 4277WAT      O13072   2.900   2.742   0.792
 4277WAT     H113073   2.826   2.803   0.762
 4277WAT     H213074   2.963   2.726   0.716
 4278WAT      O13075   4.260   1.250   9.450
 4278WAT     H113076   4.236   1.182   9.519
 4278WAT     H213077   4.311   1.206   9.376
 4279WAT      O13078   5.417   0.811   3.111
 4279WAT     H113079   5.426   0.827   3.013
 4279WAT     H213080   5.347   0.871   3.149
 4280WAT      O13081   0.329   6.464   6.343
 4280WAT     H113082   0.297   6.400   6.413
 4280WAT     H213083   0.305   6.428   6.252
 4281WAT      O13084   8.793   5.316   8.254
 4281WAT     H113085   8.748   5.401   8.227
 4281WAT     H213086   8.799   5.312   8.354
 4282WAT      O13087   9.784   5.768   2.519
 4282WAT     H113088   9.818   5.813   2.602
 4282WAT     H213089   9.833   5.803   2.439
 4283WAT      O13090   0.978   1.467   9.646
 4283WAT     H113091   0.900   1.502   9.594
 4283WAT     H213092   0.961   1.373   9.674
 4284WAT      O13093   6.671   6.837   1.515
 4284WAT     H113094   6.716   6.764   1.464
 4284WAT     H213095   6.726   6.859   1.596
 4285WAT      O13096   2.696   1.001   7.244
 4285WAT     H113097   2.769   1.059   7.207
 4285WAT     H213098   2.641   0.965   7.169
 4286WAT      O13099   0.199   7.851   5.326
 4286WAT     H113100   0.100   7.857   5.338
 4286WAT     H213101   0.227   7.913   5.252
 4287WAT      O13102   8.041   8.927   8.667
 4287WAT     H113103   8.047   8.870   8.585
 4287WAT     H213104   8.018   9.021   8.641
 4288WAT      O13105   7.478   3.820   7.031
 4288WAT     H113106   7.460   3.766   6.949
 4288WAT     H213107   7.560   3.876   7.016
 4289WAT      O13108   6.382   2.913   2.042
 4289WAT     H113109   6.469   2.891   2.086
 4289WAT     H213110   6.365   3.011   2.047
 4290WAT      O13111   6.328   3.497   2.594
 4290WAT     H113112   6.261   3.434   2.556
 4290WAT     H213113   6.284   3.584   2.616
 4291WAT      O13114   5.170   8.395   4.081
 4291WAT     H113115   5.218   8.384   4.168
 4291WAT     H213116   5.182   8.312   4.026
 4292WAT      O13117   2.314   9.497   3.598
 4292WAT     H113118   2.337   9.594   3.589
 4292WAT     H213119   2.397   9.445   3.618
 4293WAT      O13120   8.195   6.925   4.283
 4293WAT     H113121   8.262   6.925   4.209
 4293WAT     H213122   8.131   6.849   4.270
 4294WAT      O13123   2.084   6.493   8.086
 4294WAT     H113124   2.045   6.402   8.075
 4294WAT     H213125   2.025   6.561   8.041
 4295WAT      O13126   2.380   0.592   2.723
 4295WAT     H113127   2.284   0.607   2.698
 4295WAT     H213128   2.397   0.494   2.732
 4296WAT      O13129   7.236   8.415   6.126
 4296WAT     H113130   7.153   8.467   6.149
 4296WAT     H213131   7.288   8.397   6.210
 4297WAT      O13132   8.914   0.961   8.964
 4297WAT     H113133   8.904   1.014   9.048
 4297WAT     H213134   8.826   0.920   8.941
 4298WAT      O13135   6.051   9.403   0.050
 4298WAT     H113136   6.146   9.426   0.071
 4298WAT     H213137   5.999   9.393   0.135
 4299WAT      O13138   0.192   2.031   5.426
 4299WAT     H113139   0.097   2.048   5.450
 4299WAT     H213140   0.198   2.006   5.329
 4300WAT      O13141   3.846   8.381   9.566
 4300WAT     H113142   3.923   8.383   9.629
 4300WAT     H213143   3.850   8.298   9.511
 4301WAT      O13144   4.807   4.621   9.497
 4301WAT     H113145   4.782   4.574   9.412
 4301WAT     H213146   4.897   4.664   9.486
 4302WAT      O13147   2.068   0.584   0.402
 4302WAT     H113148   2.161   0.614   0.380
 4302WAT     H213149   2.029   0.536   0.324
 4303WAT      O13150   5.866   6.438   5.098
 4303WAT     H113151   5.847   6.340   5.109
 4303WAT     H213152   5.797   6.491   5.149
 4304WAT      O13153   9.365   2.043   9.814
 4304WAT     H113154   9.450   2.095   9.802
 4304WAT     H213155   9.301   2.068   9.742
 4305WAT      O13156   8.012   0.036   2.483
 4305WAT     H113157   7.935   0.014   2.542
 4305WAT     H213158   8.094   0.052   2.539
 4306WAT      O13159   2.605   0.358   6.377
 4306WAT     H113160   2.548   0.432   6.341
 4306WAT     H213161   2.630   0.377   6.472
 4307WAT      O13162   5.711   5.712   6.676
 4307WAT     H113163   5.659   5.730   6.759
 4307WAT     H213164   5.649   5.682   6.603
 4308WAT      O13165   7.792   4.295   7.128
 4308WAT     H113166   7.839   4.290   7.216
 4308WAT     H213167   7.736   4.213   7.116
 4309WAT      O13168   1.606   1.670   5.223
 4309WAT     H113169   1.607   1.594   5.288
 4309WAT     H213170   1.523   1.666   5.168
 4310WAT      O13171   3.792   6.047   4.773
 4310WAT     H113172   3.704   6.082   4.806
 4310WAT     H213173   3.815   6.091   4.686
 4311WAT      O13174   8.346   7.287   6.031
 4311WAT     H113175   8.256   7.293   6.077
 4311WAT     H213176   8.378   7.380   6.012
 4312WAT      O13177   8.659   3.774   4.805
 4312WAT     H113178   8.593   3.814   4.869
 4312WAT     H213179   8.615   3.703   4.750
 4313WAT      O13180   8.268   1.057   1.440
 4313WAT     H113181   8.238   0.962   1.436
 4313WAT     H213182   8.233   1.107   1.361
 4314WAT      O13183   4.442   1.773   9.279
 4314WAT     H113184   4.519   1.754   9.219
 4314WAT     H213185   4.432   1.698   9.345
 4315WAT      O13186   8.487   8.970   9.168
 4315WAT     H113187   8.578   8.929   9.181
 4315WAT     H213188   8.468   9.032   9.245
 4316WAT      O13189   9.480   3.449   7.895
 4316WAT     H113190   9.549   3.400   7.843
 4316WAT     H213191   9.478   3.545   7.866
 4317WAT      O13192   2.482   6.695   7.295
 4317WAT     H113193   2.428   6.777   7.276
 4317WAT     H213194   2.457   6.660   7.385
 4318WAT      O13195   6.421   2.817   5.719
 4318WAT     H113196   6.507   2.765   5.716
 4318WAT     H213197   6.362   2.788   5.644
 4319WAT      O13198   0.564   6.390   4.377
 4319WAT     H113199   0.595   6.395   4.471
 4319WAT     H213200   0.601   6.467   4.325
 4320WAT      O13201   7.319   3.299   3.594
 4320WAT     H113202   7.378   3.306   3.513
 4320WAT     H213203   7.253   3.374   3.594
 4321WAT      O13204   1.069   7.160   4.249
 4321WAT     H113205   1.122   7.227   4.301
 4321WAT     H213206   1.131   7.093   4.208
 4322WAT      O13207   1.294   4.370   9.127
 4322WAT     H113208   1.229   4.314   9.075
 4322WAT     H213209   1.314   4.454   9.076
 4323WAT      O13210   4.029   6.614   0.009
 4323WAT     H113211   3.931   6.610  -0.010
 4323WAT     H213212   4.060   6.526   0.044
 4324WAT      O13213   6.129   6.272   0.032
 4324WAT     H113214   6.150   6.264  -0.066
 4324WAT     H213215   6.180   6.349   0.070
 4325WAT      O13216   0.831   3.711   0.057
 4325WAT     H113217   0.920   3.707   0.102
 4325WAT     H213218   0.819   3.629   0.001
 4326WAT      O13219   4.161   4.067   7.877
 4326WAT     H113220   4.165   4.022   7.788
 4326WAT     H213221   4.164   4.166   7.865
 4327WAT      O13222   4.357   1.864   8.469
 4327WAT     H113223   4.307   1.949   8.451
 4327WAT     H213224   4.363   1.850   8.568
 4328WAT      O13225   3.975   2.837   7.028
 4328WAT     H113226   3.980   2.923   6.977
 4328WAT     H213227   3.883   2.825   7.064
 4329WAT      O13228   7.076   6.771   1.890
 4329WAT     H113229   6.989   6.785   1.938
 4329WAT     H213230   7.147   6.829   1.930
 4330WAT      O13231   9.020   1.335   6.695
 4330WAT     H113232   9.025   1.235   6.701
 4330WAT     H213233   9.043   1.364   6.602
 4331WAT      O13234   9.038   5.828   4.457
 4331WAT     H113235   9.016   5.745   4.406
 4331WAT     H213236   9.007   5.908   4.405
 4332WAT      O13237   3.940   6.606   3.788
 4332WAT     H113238   3.965   6.560   3.702
 4332WAT     H213239   4.000   6.684   3.803
 4333WAT      O13240   1.086   7.864   4.773
 4333WAT     H113241   1.016   7.807   4.729
 4333WAT     H213242   1.043   7.948   4.807
 4334WAT      O13243   5.502   1.654   1.719
 4334WAT     H113244   5.503   1.555   1.733
 4334WAT     H213245   5.564   1.698   1.785
 4335WAT      O13246   1.393   8.203   2.170
 4335WAT     H113247   1.470   8.161   2.124
 4335WAT     H213248   1.424   8.248   2.254
 4336WAT      O13249   9.309   6.137   2.450
 4336WAT     H113250   9.307   6.215   2.387
 4336WAT     H213251   9.255   6.062   2.412
 4337WAT      O13252   9.709   1.060   8.775
 4337WAT     H113253   9.719   1.145   8.723
 4337WAT     H213254   9.794   1.007   8.769
 4338WAT      O13255   7.626   8.488   0.849
 4338WAT     H113256   7.689   8.463   0.776
 4338WAT     H213257   7.548   8.425   0.849
 4339WAT      O13258   4.057   1.313   6.944
 4339WAT     H113259   4.054   1.408   6.912
 4339WAT     H213260   4.024   1.252   6.872
 4340WAT      O13261   5.280   3.793   1.855
 4340WAT     H113262   5.183   3.770   1.863
 4340WAT     H213263   5.335   3.710   1.856
 4341WAT      O13264   5.320   7.513   1.074
 4341WAT     H113265   5.262   7.594   1.085
 4341WAT     H213266   5.413   7.542   1.052
 4342WAT      O13267   6.224   2.438   8.476
 4342WAT     H113268   6.202   2.358   8.532
 4342WAT     H213269   6.301   2.415   8.415
 4343WAT      O13270   6.362   6.566   5.795
 4343WAT     H113271   6.324   6.475   5.811
 4343WAT     H213272   6.347   6.592   5.700
 4344WAT      O13273   8.187   2.145   9.033
 4344WAT     H113274   8.105   2.101   8.996
 4344WAT     H213275   8.262   2.079   9.037
 4345WAT      O13276   9.846   6.471   9.781
 4345WAT     H113277   9.839   6.373   9.759
 4345WAT     H213278   9.823   6.525   9.700
 4346WAT      O13279   0.724   5.211   9.091
 4346WAT     H113280   0.733   5.282   9.161
 4346WAT     H213281   0.676   5.249   9.012
 4347WAT      O13282   5.159   5.233   4.524
 4347WAT     H113283   5.232   5.187   4.575
 4347WAT     H213284   5.135   5.179   4.443
 4348WAT      O13285   2.011   6.155   1.559
 4348WAT     H113286   2.109   6.155   1.578
 4348WAT     H213287   1.962   6.117   1.637
 4349WAT      O13288   4.903   2.006   1.411
 4349WAT     H113289   4.970   2.049   1.350
 4349WAT     H213290   4.919   1.907   1.414
 4350WAT      O13291   8.128   3.237   8.187
 4350WAT     H113292   8.060   3.243   8.114
 4350WAT     H213293   8.081   3.218   8.274
 4351WAT      O13294   8.223   2.375   3.585
 4351WAT     H113295   8.131   2.373   3.546
 4351WAT     H213296   8.246   2.468   3.613
 4352WAT      O13297   6.718   1.587   3.179
 4352WAT     H113298   6.793   1.524   3.157
 4352WAT     H213299   6.636   1.560   3.128
 4353WAT      O13300   8.901   3.776   7.019
 4353WAT     H113301   8.882   3.874   7.023
 4353WAT     H213302   8.831   3.730   6.964
 4354WAT      O13303   4.581   6.943   8.920
 4354WAT     H113304   4.613   7.031   8.955
 4354WAT     H213305   4.570   6.949   8.821
 4355WAT      O13306   4.671   4.888   9.340
 4355WAT     H113307   4.710   4.914   9.428
 4355WAT     H213308   4.607   4.812   9.352
 4356WAT      O13309   7.271   1.913   9.102
 4356WAT     H113310   7.197   1.958   9.053
 4356WAT     H213311   7.265   1.814   9.087
 4357WAT      O13312   1.189   3.449   6.155
 4357WAT     H113313   1.192   3.350   6.162
 4357WAT     H213314   1.252   3.490   6.221
 4358WAT      O13315   2.165   9.044   3.360
 4358WAT     H113316   2.193   9.100   3.438
 4358WAT     H213317   2.228   8.966   3.351
 4359WAT      O13318   1.165   0.092   3.932
 4359WAT     H113319   1.091   0.160   3.929
 4359WAT     H213320   1.145   0.019   3.867
 4360WAT      O13321   4.756   4.350   7.921
 4360WAT     H113322   4.823   4.354   7.847
 4360WAT     H213323   4.801   4.370   8.008
 4361WAT      O13324   0.171   7.573   6.982
 4361WAT     H113325   0.162   7.519   7.066
 4361WAT     H213326   0.232   7.651   6.998
 4362WAT      O13327   0.801   3.830   6.759
 4362WAT     H113328   0.814   3.755   6.694
 4362WAT     H213329   0.860   3.816   6.838
 4363WAT      O13330   1.661   3.758   9.838
 4363WAT     H113331   1.606   3.836   9.807
 4363WAT     H213332   1.607   3.674   9.829
 4364WAT      O13333   8.953   7.064   1.212
 4364WAT     H113334   8.965   6.965   1.214
 4364WAT     H213335   9.028   7.106   1.161
 4365WAT      O13336   8.454   8.860   5.952
 4365WAT     H113337   8.498   8.777   5.988
 4365WAT     H213338   8.523   8.931   5.938
 4366WAT      O13339   5.057   8.214   1.682
 4366WAT     H113340   5.043   8.256   1.593
 4366WAT     H213341   5.154   8.191   1.693
 4367WAT      O13342   5.605   6.148   6.890
 4367WAT     H113343   5.664   6.221   6.924
 4367WAT     H213344   5.615   6.139   6.791
 4368WAT      O13345   3.270   4.760   1.975
 4368WAT     H113346   3.181   4.800   1.996
 4368WAT     H213347   3.258   4.667   1.940
 4369WAT      O13348   1.110   3.648   1.558
 4369WAT     H113349   1.050   3.570   1.540
 4369WAT     H213350   1.117   3.704   1.475
 4370WAT      O13351   0.736   2.746   8.849
 4370WAT     H113352   0.779   2.798   8.923
 4370WAT     H213353   0.798   2.739   8.772
 4371WAT      O13354   5.806   5.274   6.464
 4371WAT     H113355   5.717   5.227   6.463
 4371WAT     H213356   5.806   5.343   6.537
 4372WAT      O13357   8.795   6.780   7.429
 4372WAT     H113358   8.804   6.697   7.375
 4372WAT     H213359   8.853   6.774   7.510
 4373WAT      O13360   0.955   6.404   7.118
 4373WAT     H113361   1.055   6.414   7.118
 4373WAT     H213362   0.925   6.362   7.203
 4374WAT      O13363   5.977   9.623   7.838
 4374WAT     H113364   5.996   9.721   7.830
 4374WAT     H213365   5.944   9.588   7.751
 4375WAT      O13366   5.671   1.833   9.720
 4375WAT     H113367   5.723   1.759   9.762
 4375WAT     H213368   5.717   1.861   9.635
 4376WAT      O13369   2.622   9.493   0.949
 4376WAT     H113370   2.642   9.397   0.967
 4376WAT     H213371   2.646   9.549   1.029
 4377WAT      O13372   4.004   4.769   3.961
 4377WAT     H113373   3.955   4.856   3.962
 4377WAT     H213374   4.053   4.757   4.047
 4378WAT      O13375   8.807   8.641   7.667
 4378WAT     H113376   8.905   8.634   7.686
 4378WAT     H213377   8.793   8.654   7.569
 4379WAT      O13378   9.893   4.353   8.388
 4379WAT     H113379   9.833   4.277   8.416
 4379WAT     H213380   9.837   4.424   8.345
 4380WAT      O13381   9.527   2.325   0.811
 4380WAT     H113382   9.598   2.374   0.760
 4380WAT     H213383   9.554   2.230   0.824
 4381WAT      O13384   7.671   3.569   6.106
 4381WAT     H113385   7.630   3.568   6.014
 4381WAT     H213386   7.717   3.657   6.120
 4382WAT      O13387   2.789   3.836   4.309
 4382WAT     H113388   2.720   3.768   4.285
 4382WAT     H213389   2.745   3.924   4.325
 4383WAT      O13390   6.250   9.655   0.094
 4383WAT     H113391   6.305   9.573   0.114
 4383WAT     H213392   6.164   9.650   0.145
 4384WAT      O13393   3.598   2.448   1.267
 4384WAT     H113394   3.606   2.482   1.173
 4384WAT     H213395   3.510   2.478   1.305
 4385WAT      O13396   5.596   6.344   1.898
 4385WAT     H113397   5.547   6.258   1.913
 4385WAT     H213398   5.680   6.326   1.846
 4386WAT      O13399   7.682   0.107   5.863
 4386WAT     H113400   7.714   0.198   5.890
 4386WAT     H213401   7.675   0.101   5.764
 4387WAT      O13402   8.827   2.890   5.775
 4387WAT     H113403   8.754   2.922   5.835
 4387WAT     H213404   8.909   2.872   5.829
 4388WAT      O13405   0.586   1.192   4.729
 4388WAT     H113406   0.635   1.107   4.744
 4388WAT     H213407   0.488   1.177   4.740
 4389WAT      O13408   5.114   8.892   8.115
 4389WAT     H113409   5.101   8.947   8.198
 4389WAT     H213410   5.134   8.952   8.038
 4390WAT      O13411   3.765   7.876   3.913
 4390WAT     H113412   3.826   7.798   3.899
 4390WAT     H213413   3.758   7.928   3.828
 4391WAT      O13414   1.406   2.987   5.581
 4391WAT     H113415   1.500   2.961   5.599
 4391WAT     H213416   1.344   2.917   5.618
 4392WAT      O13417   0.882   0.770   8.031
 4392WAT     H113418   0.960   0.735   8.082
 4392WAT     H213419   0.895   0.868   8.014
 4393WAT      O13420   0.485   4.388   3.159
 4393WAT     H113421   0.578   4.361   3.137
 4393WAT     H213422   0.466   4.365   3.255
 4394WAT      O13423   7.297   1.262   4.601
 4394WAT     H113424   7.202   1.293   4.602
 4394WAT     H213425   7.312   1.203   4.522
 4395WAT      O13426   7.700   6.223   3.933
 4395WAT     H113427   7.664   6.293   3.995
 4395WAT     H213428   7.800   6.219   3.942
 4396WAT      O13429   2.418   8.384   6.998
 4396WAT     H113430   2.466   8.382   6.910
 4396WAT     H213431   2.482   8.404   7.071
 4397WAT      O13432   7.756   7.893   3.378
 4397WAT     H113433   7.822   7.940   3.320
 4397WAT     H213434   7.805   7.832   3.441
 4398WAT      O13435   7.861   7.508   8.774
 4398WAT     H113436   7.825   7.415   8.783
 4398WAT     H213437   7.849   7.540   8.680
 4399WAT      O13438   4.502   4.048   8.938
 4399WAT     H113439   4.407   4.034   8.965
 4399WAT     H213440   4.556   3.967   8.964
 4400WAT      O13441   1.721   4.102   7.939
 4400WAT     H113442   1.655   4.133   7.871
 4400WAT     H213443   1.713   4.003   7.951
 4401WAT      O13444   6.782   8.410   7.983
 4401WAT     H113445   6.750   8.317   7.965
 4401WAT     H213446   6.841   8.440   7.908
 4402WAT      O13447   8.932   0.606   9.548
 4402WAT     H113448   9.003   0.555   9.597
 4402WAT     H213449   8.877   0.659   9.613
 4403WAT      O13450   8.255   5.620   7.080
 4403WAT     H113451   8.281   5.701   7.133
 4403WAT     H213452   8.206   5.556   7.138
 4404WAT      O13453   4.250   7.870   6.856
 4404WAT     H113454   4.159   7.871   6.898
 4404WAT     H213455   4.259   7.949   6.795
 4405WAT      O13456   5.559   2.166   8.296
 4405WAT     H113457   5.541   2.077   8.254
 4405WAT     H213458   5.525   2.165   8.390
 4406WAT      O13459   5.075   4.213   3.852
 4406WAT     H113460   5.043   4.237   3.944
 4406WAT     H213461   5.167   4.173   3.858
 4407WAT      O13462   9.884   2.403   3.378
 4407WAT     H113463   9.868   2.497   3.347
 4407WAT     H213464   9.842   2.339   3.315
 4408WAT      O13465   6.712   0.206   0.770
 4408WAT     H113466   6.751   0.173   0.856
 4408WAT     H213467   6.649   0.138   0.734
 4409WAT      O13468   1.303   5.052   3.101
 4409WAT     H113469   1.238   5.111   3.053
 4409WAT     H213470   1.253   4.980   3.149
 4410WAT      O13471   0.742   4.944   4.586
 4410WAT     H113472   0.747   4.906   4.678
 4410WAT     H213473   0.791   5.031   4.583
 4411WAT      O13474   9.288   1.859   3.363
 4411WAT     H113475   9.215   1.791   3.375
 4411WAT     H213476   9.269   1.915   3.282
 4412WAT      O13477   7.943   2.904   5.909
 4412WAT     H113478   7.910   2.820   5.953
 4412WAT     H213479   8.036   2.889   5.874
 4413WAT      O13480   7.120   8.605   3.782
 4413WAT     H113481   7.137   8.619   3.684
 4413WAT     H213482   7.157   8.517   3.810
 4414WAT      O13483   9.189   1.666   2.911
 4414WAT     H113484   9.192   1.568   2.890
 4414WAT     H213485   9.262   1.713   2.862
 4415WAT      O13486   1.003   1.585   6.443
 4415WAT     H113487   1.031   1.545   6.530
 4415WAT     H213488   0.952   1.517   6.390
 4416WAT      O13489   2.778   7.372   1.884
 4416WAT     H113490   2.820   7.301   1.829
 4416WAT     H213491   2.798   7.356   1.981
 4417WAT      O13492   5.778   4.611   1.856
 4417WAT     H113493   5.729   4.663   1.926
 4417WAT     H213494   5.781   4.665   1.771
 4418WAT      O13495   2.422   8.477   5.207
 4418WAT     H113496   2.383   8.433   5.288
 4418WAT     H213497   2.410   8.576   5.214
 4419WAT      O13498   8.796   0.257   9.301
 4419WAT     H113499   8.711   0.216   9.267
 4419WAT     H213500   8.777   0.351   9.331
 4420WAT      O13501   8.036   0.905   1.257
 4420WAT     H113502   8.043   0.814   1.217
 4420WAT     H213503   8.023   0.973   1.185
 4421WAT      O13504   9.370   7.039   3.339
 4421WAT     H113505   9.360   7.008   3.244
 4421WAT     H213506   9.317   6.979   3.399
 4422WAT      O13507   9.858   8.221   9.880
 4422WAT     H113508   9.818   8.196   9.791
 4422WAT     H213509   9.942   8.169   9.895
 4423WAT      O13510   4.501   4.285   3.337
 4423WAT     H113511   4.450   4.261   3.254
 4423WAT     H213512   4.599   4.284   3.317
 4424WAT      O13513   0.441   8.945   4.058
 4424WAT     H113514   0.449   9.024   3.998
 4424WAT     H213515   0.521   8.941   4.118
 4425WAT      O13516   5.765   6.421   3.149
 4425WAT     H113517   5.716   6.375   3.076
 4425WAT     H213518   5.829   6.358   3.192
 4426WAT      O13519   4.239   0.728   4.853
 4426WAT     H113520   4.199   0.695   4.938
 4426WAT     H213521   4.313   0.792   4.873
 4427WAT      O13522   6.225   5.852   5.031
 4427WAT     H113523   6.284   5.917   4.985
 4427WAT     H213524   6.246   5.759   5.000
 4428WAT      O13525   7.966   4.441   5.888
 4428WAT     H113526   8.018   4.527   5.889
 4428WAT     H213527   7.965   4.404   5.795
 4429WAT      O13528   0.702   7.430   0.414
 4429WAT     H113529   0.654   7.467   0.494
 4429WAT     H213530   0.791   7.395   0.443
 4430WAT      O13531   4.549   1.852   1.562
 4430WAT     H113532   4.495   1.934   1.582
 4430WAT     H213533   4.552   1.793   1.642
 4431WAT      O13534   8.019   7.263   0.877
 4431WAT     H113535   7.972   7.274   0.965
 4431WAT     H213536   8.044   7.167   0.864
 4432WAT      O13537   4.977   3.787   2.929
 4432WAT     H113538   4.934   3.875   2.947
 4432WAT     H213539   5.075   3.793   2.950
 4433WAT      O13540   6.992   7.086   5.631
 4433WAT     H113541   7.043   7.116   5.550
 4433WAT     H213542   6.984   6.986   5.630
 4434WAT      O13543   1.798   2.942   6.035
 4434WAT     H113544   1.853   2.890   5.970
 4434WAT     H213545   1.716   2.977   5.988
 4435WAT      O13546   0.300   7.594   5.350
 4435WAT     H113547   0.359   7.572   5.273
 4435WAT     H213548   0.273   7.690   5.345
 4436WAT      O13549   7.930   6.462   0.820
 4436WAT     H113550   7.849   6.465   0.762
 4436WAT     H213551   8.012   6.461   0.764
 4437WAT      O13552   2.434   9.428   6.073
 4437WAT     H113553   2.399   9.497   6.137
 4437WAT     H213554   2.496   9.471   6.008
 4438WAT      O13555   2.201   1.046   6.764
 4438WAT     H113556   2.116   1.097   6.753
 4438WAT     H213557   2.184   0.963   6.817
 4439WAT      O13558   3.518   9.092   6.119
 4439WAT     H113559   3.588   9.091   6.047
 4439WAT     H213560   3.541   9.024   6.188
 4440WAT      O13561   6.203   7.442   1.476
 4440WAT     H113562   6.137   7.473   1.407
 4440WAT     H213563   6.186   7.489   1.562
 4441WAT      O13564   1.057   5.565   7.738
 4441WAT     H113565   1.006   5.480   7.733
 4441WAT     H213566   1.145   5.549   7.783
 4442WAT      O13567   5.409   6.060   8.168
 4442WAT     H113568   5.451   6.077   8.078
 4442WAT     H213569   5.328   6.003   8.156
 4443WAT      O13570   8.749   8.489   8.261
 4443WAT     H113571   8.687   8.449   8.328
 4443WAT     H213572   8.829   8.527   8.307
 4444WAT      O13573   2.964   7.113   4.253
 4444WAT     H113574   3.013   7.040   4.301
 4444WAT     H213575   3.023   7.193   4.244
 4445WAT      O13576   3.840   1.184   1.109
 4445WAT     H113577   3.746   1.217   1.116
 4445WAT     H213578   3.894   1.251   1.059
 4446WAT      O13579   0.256   1.324   6.012
 4446WAT     H113580   0.237   1.265   5.933
 4446WAT     H213581   0.353   1.319   6.034
 4447WAT      O13582   4.114   9.551   5.435
 4447WAT     H113583   4.103   9.602   5.350
 4447WAT     H213584   4.064   9.596   5.508
 4448WAT      O13585   3.422   9.351   8.370
 4448WAT     H113586   3.372   9.304   8.443
 4448WAT     H213587   3.511   9.381   8.405
 4449WAT      O13588   7.001   2.265   1.679
 4449WAT     H113589   6.990   2.249   1.581
 4449WAT     H213590   7.079   2.326   1.695
 4450WAT      O13591   0.423   6.039   1.790
 4450WAT     H113592   0.477   6.066   1.711
 4450WAT     H213593   0.326   6.058   1.773
 4451WAT      O13594   8.573   0.892   3.459
 4451WAT     H113595   8.555   0.805   3.505
 4451WAT     H213596   8.493   0.917   3.403
 4452WAT      O13597   5.868   3.376   9.851
 4452WAT     H113598   5.791   3.433   9.821
 4452WAT     H213599   5.915   3.338   9.771
 4453WAT      O13600   5.196   4.142   1.266
 4453WAT     H113601   5.201   4.184   1.175
 4453WAT     H213602   5.279   4.088   1.282
 4454WAT      O13603   2.951   8.898   3.731
 4454WAT     H113604   2.942   8.822   3.796
 4454WAT     H213605   2.861   8.924   3.697
 4455WAT      O13606   1.474   2.842   6.053
 4455WAT     H113607   1.549   2.780   6.032
 4455WAT     H213608   1.476   2.919   5.989
 4456WAT      O13609   7.046   0.769   6.778
 4456WAT     H113610   7.101   0.793   6.858
 4456WAT     H213611   6.994   0.685   6.796
 4457WAT      O13612   6.325   0.633   9.684
 4457WAT     H113613   6.260   0.614   9.610
 4457WAT     H213614   6.405   0.681   9.647
 4458WAT      O13615   3.493   5.539   1.181
 4458WAT     H113616   3.443   5.575   1.260
 4458WAT     H213617   3.450   5.570   1.097
 4459WAT      O13618   3.280   6.936   5.294
 4459WAT     H113619   3.242   7.004   5.356
 4459WAT     H213620   3.210   6.907   5.228
 4460WAT      O13621   6.581   5.354   4.845
 4460WAT     H113622   6.582   5.442   4.796
 4460WAT     H213623   6.583   5.370   4.943
 4461WAT      O13624   4.973   5.755   8.299
 4461WAT     H113625   4.908   5.750   8.223
 4461WAT     H213626   4.988   5.664   8.336
 4462WAT      O13627   8.894   8.518   9.488
 4462WAT     H113628   8.844   8.554   9.409
 4462WAT     H213629   8.957   8.447   9.458
 4463WAT      O13630   4.245   2.858   4.836
 4463WAT     H113631   4.256   2.778   4.895
 4463WAT     H213632   4.148   2.880   4.826
 4464WAT      O13633   1.980   6.191   4.762
 4464WAT     H113634   2.073   6.209   4.792
 4464WAT     H213635   1.915   6.233   4.826
 4465WAT      O13636   0.222   3.935   8.253
 4465WAT     H113637   0.205   3.923   8.155
 4465WAT     H213638   0.138   3.967   8.297
 4466WAT      O13639   8.710   6.910   6.083
 4466WAT     H113640   8.783   6.956   6.134
 4466WAT     H213641   8.634   6.973   6.069
 4467WAT      O13642   8.110   2.553   9.282
 4467WAT     H113643   8.175   2.481   9.261
 4467WAT     H213644   8.105   2.567   9.381
 4468WAT      O13645   5.884   4.301   4.626
 4468WAT     H113646   5.961   4.358   4.595
 4468WAT     H213647   5.919   4.222   4.676
 4469WAT      O13648   8.903   0.637   0.613
 4469WAT     H113649   8.875   0.617   0.519
 4469WAT     H213650   8.997   0.671   0.614
 4470WAT      O13651   9.591   7.731   8.299
 4470WAT     H113652   9.666   7.785   8.260
 4470WAT     H213653   9.505   7.779   8.285
 4471WAT      O13654   6.551   3.500   3.671
 4471WAT     H113655   6.497   3.488   3.754
 4471WAT     H213656   6.491   3.496   3.591
 4472WAT      O13657   7.687   2.474   3.506
 4472WAT     H113658   7.713   2.561   3.547
 4472WAT     H213659   7.670   2.486   3.408
 4473WAT      O13660   8.741   4.549   9.398
 4473WAT     H113661   8.730   4.541   9.497
 4473WAT     H213662   8.750   4.459   9.358
 4474WAT      O13663   8.603   8.678   5.639
 4474WAT     H113664   8.611   8.668   5.540
 4474WAT     H213665   8.656   8.606   5.684
 4475WAT      O13666   4.616   9.353   8.275
 4475WAT     H113667   4.579   9.306   8.195
 4475WAT     H213668   4.593   9.450   8.270
 4476WAT      O13669   4.931   7.526   1.686
 4476WAT     H113670   4.895   7.604   1.634
 4476WAT     H213671   5.031   7.525   1.680
 4477WAT      O13672   1.525   0.780   8.260
 4477WAT     H113673   1.450   0.725   8.296
 4477WAT     H213674   1.490   0.847   8.195
 4478WAT      O13675   1.267   6.090   2.240
 4478WAT     H113676   1.329   6.016   2.266
 4478WAT     H213677   1.228   6.071   2.149
 4479WAT      O13678   4.251   8.850   4.711
 4479WAT     H113679   4.251   8.831   4.613
 4479WAT     H213680   4.161   8.830   4.749
 4480WAT      O13681   4.215   4.782   1.605
 4480WAT     H113682   4.289   4.766   1.539
 4480WAT     H213683   4.217   4.877   1.635
 4481WAT      O13684   7.049   8.890   5.639
 4481WAT     H113685   7.029   8.873   5.542
 4481WAT     H213686   6.982   8.841   5.695
 4482WAT      O13687   8.001   7.990   2.794
 4482WAT     H113688   7.997   7.908   2.850
 4482WAT     H213689   7.970   8.069   2.847
 4483WAT      O13690   4.998   2.930   2.311
 4483WAT     H113691   4.941   2.856   2.277
 4483WAT     H213692   5.084   2.892   2.347
 4484WAT      O13693   7.268   8.919   5.183
 4484WAT     H113694   7.242   8.992   5.120
 4484WAT     H213695   7.360   8.887   5.160
 4485WAT      O13696   2.810   1.178   0.447
 4485WAT     H113697   2.875   1.113   0.487
 4485WAT     H213698   2.717   1.154   0.475
 4486WAT      O13699   4.464   9.267   8.037
 4486WAT     H113700   4.379   9.317   8.051
 4486WAT     H213701   4.454   9.205   7.960
 4487WAT      O13702   1.567   2.050   6.397
 4487WAT     H113703   1.481   2.011   6.431
 4487WAT     H213704   1.596   2.000   6.315
 4488WAT      O13705   1.535   0.406   8.121
 4488WAT     H113706   1.586   0.378   8.202
 4488WAT     H213707   1.595   0.404   8.041
 4489WAT      O13708   8.853   7.672   4.850
 4489WAT     H113709   8.792   7.688   4.772
 4489WAT     H213710   8.873   7.759   4.895
 4490WAT      O13711   2.652   9.482   9.720
 4490WAT     H113712   2.666   9.419   9.644
 4490WAT     H213713   2.575   9.451   9.776
 4491WAT      O13714   7.225   1.159   4.124
 4491WAT     H113715   7.208   1.075   4.175
 4491WAT     H213716   7.188   1.237   4.176
 4492WAT      O13717   6.263   7.693   4.831
 4492WAT     H113718   6.231   7.613   4.882
 4492WAT     H213719   6.331   7.742   4.884
 4493WAT      O13720   4.431   9.139   6.269
 4493WAT     H113721   4.512   9.121   6.214
 4493WAT     H213722   4.455   9.195   6.348
 4494WAT      O13723   6.069   1.906   4.169
 4494WAT     H113724   6.063   1.930   4.266
 4494WAT     H213725   6.164   1.912   4.138
 4495WAT      O13726   5.115   8.038   7.278
 4495WAT     H113727   5.024   8.071   7.303
 4495WAT     H213728   5.106   7.956   7.221
 4496WAT      O13729   2.113   7.266   7.318
 4496WAT     H113730   2.200   7.233   7.281
 4496WAT     H213731   2.125   7.292   7.413
 4497WAT      O13732   6.038   0.755   4.540
 4497WAT     H113733   6.111   0.687   4.544
 4497WAT     H213734   6.069   0.841   4.580
 4498WAT      O13735   2.544   5.911   9.339
 4498WAT     H113736   2.618   5.919   9.272
 4498WAT     H213737   2.505   5.819   9.333
 4499WAT      O13738   6.878   3.996   1.416
 4499WAT     H113739   6.820   4.077   1.409
 4499WAT     H213740   6.945   4.009   1.490
 4500WAT      O13741   3.088   0.148   7.354
 4500WAT     H113742   3.165   0.147   7.290
 4500WAT     H213743   3.096   0.070   7.416
 4501WAT      O13744   8.245   7.705   1.098
 4501WAT     H113745   8.250   7.613   1.136
 4501WAT     H213746   8.207   7.701   1.005
 4502WAT      O13747   9.163   7.180   4.048
 4502WAT     H113748   9.104   7.252   4.084
 4502WAT     H213749   9.177   7.111   4.118
 4503WAT      O13750   2.257   5.687   7.948
 4503WAT     H113751   2.333   5.703   8.011
 4503WAT     H213752   2.262   5.751   7.872
 4504WAT      O13753   7.842   5.021   1.627
 4504WAT     H113754   7.801   4.939   1.664
 4504WAT     H213755   7.805   5.039   1.535
 4505WAT      O13756   0.330   1.296   9.603
 4505WAT     H113757   0.239   1.278   9.566
 4505WAT     H213758   0.399   1.264   9.537
 4506WAT      O13759   6.800   0.452   8.643
 4506WAT     H113760   6.865   0.377   8.653
 4506WAT     H213761   6.763   0.477   8.732
 4507WAT      O13762   8.935   7.076   0.104
 4507WAT     H113763   8.980   6.989   0.085
 4507WAT     H213764   9.004   7.146   0.122
 4508WAT      O13765   1.074   5.870   7.347
 4508WAT     H113766   1.111   5.833   7.433
 4508WAT     H213767   1.126   5.833   7.270
 4509WAT      O13768   2.268   4.799   9.523
 4509WAT     H113769   2.212   4.880   9.506
 4509WAT     H213770   2.268   4.778   9.621
 4510WAT      O13771   3.457   7.977   5.962
 4510WAT     H113772   3.556   7.965   5.972
 4510WAT     H213773   3.438   8.040   5.888
 4511WAT      O13774   7.569   3.186   8.232
 4511WAT     H113775   7.505   3.258   8.203
 4511WAT     H213776   7.544   3.100   8.187
 4512WAT      O13777   5.755   7.905   9.168
 4512WAT     H113778   5.655   7.899   9.159
 4512WAT     H213779   5.790   7.817   9.202
 4513WAT      O13780   6.712   2.237   8.025
 4513WAT     H113781   6.671   2.307   8.083
 4513WAT     H213782   6.640   2.189   7.975
 4514WAT      O13783   1.582   2.439   5.550
 4514WAT     H113784   1.652   2.493   5.503
 4514WAT     H213785   1.541   2.374   5.486
 4515WAT      O13786   1.386   9.602   2.916
 4515WAT     H113787   1.286   9.596   2.913
 4515WAT     H213788   1.413   9.677   2.975
 4516WAT      O13789   2.473   3.076   8.836
 4516WAT     H113790   2.420   3.017   8.897
 4516WAT     H213791   2.441   3.065   8.742
 4517WAT      O13792   8.390   6.648   7.656
 4517WAT     H113793   8.341   6.713   7.714
 4517WAT     H213794   8.450   6.698   7.593
 4518WAT      O13795   2.406   0.341   9.026
 4518WAT     H113796   2.467   0.366   8.951
 4518WAT     H213797   2.327   0.291   8.989
 4519WAT      O13798   0.995   8.713   4.859
 4519WAT     H113799   0.992   8.617   4.829
 4519WAT     H213800   0.992   8.716   4.959
 4520WAT      O13801   9.637   1.327   4.417
 4520WAT     H113802   9.687   1.254   4.463
 4520WAT     H213803   9.615   1.399   4.484
 4521WAT      O13804   6.048   1.576   5.129
 4521WAT     H113805   6.008   1.549   5.216
 4521WAT     H213806   6.143   1.544   5.125
 4522WAT      O13807   8.460   5.526   0.113
 4522WAT     H113808   8.400   5.566   0.043
 4522WAT     H213809   8.499   5.598   0.169
 4523WAT      O13810   7.271   5.527   3.241
 4523WAT     H113811   7.310   5.461   3.178
 4523WAT     H213812   7.176   5.547   3.215
 4524WAT      O13813   7.418   8.134   2.655
 4524WAT     H113814   7.499   8.166   2.703
 4524WAT     H213815   7.407   8.036   2.669
 4525WAT      O13816   1.532   3.455   9.860
 4525WAT     H113817   1.603   3.447   9.791
 4525WAT     H213818   1.455   3.508   9.824
 4526WAT      O13819   0.651   2.379   7.666
 4526WAT     H113820   0.726   2.315   7.651
 4526WAT     H213821   0.570   2.347   7.617
 4527WAT      O13822   7.027   4.908   2.474
 4527WAT     H113823   7.056   4.991   2.522
 4527WAT     H213824   6.933   4.886   2.499
 4528WAT      O13825   6.565   1.355   0.768
 4528WAT     H113826   6.658   1.382   0.743
 4528WAT     H213827   6.546   1.263   0.733
 4529WAT      O13828   2.079   6.583   5.635
 4529WAT     H113829   2.004   6.544   5.688
 4529WAT     H213830   2.149   6.618   5.696
 4530WAT      O13831   1.958   3.470   3.508
 4530WAT     H113832   1.996   3.561   3.522
 4530WAT     H213833   2.033   3.404   3.494
 4531WAT      O13834   9.426   3.473   2.834
 4531WAT     H113835   9.420   3.571   2.817
 4531WAT     H213836   9.475   3.457   2.920
 4532WAT      O13837   9.369   3.808   4.342
 4532WAT     H113838   9.304   3.732   4.337
 4532WAT     H213839   9.326   3.891   4.308
 4533WAT      O13840   3.144   2.321   2.617
 4533WAT     H113841   3.116   2.359   2.529
 4533WAT     H213842   3.110   2.378   2.691
 4534WAT      O13843   4.745   3.713   7.916
 4534WAT     H113844   4.723   3.805   7.947
 4534WAT     H213845   4.829   3.682   7.959
 4535WAT      O13846   7.505   7.348   2.881
 4535WAT     H113847   7.489   7.288   2.802
 4535WAT     H213848   7.433   7.418   2.885
 4536WAT      O13849   7.662   7.953   9.498
 4536WAT     H113850   7.648   8.045   9.534
 4536WAT     H213851   7.592   7.934   9.428
 4537WAT      O13852   2.669   9.030   1.697
 4537WAT     H113853   2.719   9.075   1.624
 4537WAT     H213854   2.610   8.959   1.659
 4538WAT      O13855   5.073   4.413   6.594
 4538WAT     H113856   5.130   4.488   6.561
 4538WAT     H213857   5.034   4.363   6.517
 4539WAT      O13858   2.525   6.453   2.482
 4539WAT     H113859   2.525   6.414   2.574
 4539WAT     H213860   2.551   6.382   2.416
 4540WAT      O13861   3.517   2.351   6.702
 4540WAT     H113862   3.542   2.432   6.754
 4540WAT     H213863   3.578   2.342   6.623
 4541WAT      O13864   5.168   4.525   4.311
 4541WAT     H113865   5.205   4.588   4.242
 4541WAT     H213866   5.235   4.510   4.382
 4542WAT      O13867   1.638   5.654   3.323
 4542WAT     H113868   1.607   5.603   3.243
 4542WAT     H213869   1.726   5.617   3.353
 4543WAT      O13870   2.521   3.101   3.399
 4543WAT     H113871   2.490   3.011   3.369
 4543WAT     H213872   2.459   3.136   3.469
 4544WAT      O13873   2.708   8.626   5.115
 4544WAT     H113874   2.641   8.561   5.081
 4544WAT     H213875   2.694   8.715   5.071
 4545WAT      O13876   1.654   1.949   8.229
 4545WAT     H113877   1.661   2.048   8.240
 4545WAT     H213878   1.587   1.913   8.294
 4546WAT      O13879   3.864   8.960   8.327
 4546WAT     H113880   3.779   9.003   8.357
 4546WAT     H213881   3.941   9.001   8.376
 4547WAT      O13882   9.298   2.489   1.977
 4547WAT     H113883   9.265   2.436   1.899
 4547WAT     H213884   9.292   2.587   1.956
 4548WAT      O13885   1.199   9.141   4.425
 4548WAT     H113886   1.253   9.168   4.345
 4548WAT     H213887   1.260   9.114   4.499
 4549WAT      O13888   5.631   3.841   6.409
 4549WAT     H113889   5.605   3.820   6.315
 4549WAT     H213890   5.554   3.882   6.457
 4550WAT      O13891   4.422   3.989   5.032
 4550WAT     H113892   4.324   3.969   5.028
 4550WAT     H213893   4.438   4.065   5.096
 4551WAT      O13894   1.813   0.994   3.769
 4551WAT     H113895   1.725   1.011   3.812
 4551WAT     H213896   1.800   0.968   3.674
 4552WAT      O13897   3.376   5.861   8.592
 4552WAT     H113898   3.280   5.843   8.615
 4552WAT     H213899   3.434   5.832   8.669
 4553WAT      O13900   1.069   7.869   3.650
 4553WAT     H113901   0.974   7.841   3.651
 4553WAT     H213902   1.094   7.905   3.740
 4554WAT      O13903   5.739   0.413   6.769
 4554WAT     H113904   5.680   0.356   6.827
 4554WAT     H213905   5.789   0.356   6.705
 4555WAT      O13906   0.147   1.113   1.833
 4555WAT     H113907   0.224   1.112   1.897
 4555WAT     H213908   0.069   1.065   1.874
 4556WAT      O13909   5.228   8.271   2.349
 4556WAT     H113910   5.308   8.223   2.314
 4556WAT     H213911   5.254   8.364   2.375
 4557WAT      O13912   5.007   0.828   2.423
 4557WAT     H113913   4.971   0.832   2.330
 4557WAT     H213914   5.103   0.798   2.420
 4558WAT      O13915   5.409   6.417   2.369
 4558WAT     H113916   5.342   6.392   2.438
 4558WAT     H213917   5.470   6.339   2.352
 4559WAT      O13918   6.173   4.593   8.529
 4559WAT     H113919   6.113   4.610   8.451
 4559WAT     H213920   6.201   4.497   8.530
 4560WAT      O13921   0.281   6.334   6.104
 4560WAT     H113922   0.367   6.284   6.099
 4560WAT     H213923   0.285   6.414   6.045
 4561WAT      O13924   0.485   5.522   5.071
 4561WAT     H113925   0.455   5.556   4.982
 4561WAT     H213926   0.502   5.599   5.133
 4562WAT      O13927   7.758   4.850   4.380
 4562WAT     H113928   7.822   4.922   4.408
 4562WAT     H213929   7.665   4.887   4.377
 4563WAT      O13930   2.217   0.272   2.912
 4563WAT     H113931   2.267   0.301   2.831
 4563WAT     H213932   2.272   0.207   2.965
 4564WAT      O13933   8.728   3.835   8.631
 4564WAT     H113934   8.650   3.879   8.585
 4564WAT     H213935   8.701   3.744   8.662
 4565WAT      O13936   5.624   1.113   7.002
 4565WAT     H113937   5.646   1.088   6.907
 4565WAT     H213938   5.550   1.180   7.002
 4566WAT      O13939   0.982   2.296   5.887
 4566WAT     H113940   0.960   2.340   5.800
 4566WAT     H213941   1.027   2.361   5.947
 4567WAT      O13942   9.392   9.162   6.505
 4567WAT     H113943   9.374   9.259   6.487
 4567WAT     H213944   9.392   9.111   6.420
 4568WAT      O13945   4.266   0.513   4.652
 4568WAT     H113946   4.275   0.587   4.719
 4568WAT     H213947   4.335   0.443   4.671
 4569WAT      O13948   3.623   6.258   6.153
 4569WAT     H113949   3.656   6.308   6.233
 4569WAT     H213950   3.699   6.239   6.091
 4570WAT      O13951   3.855   0.865   7.039
 4570WAT     H113952   3.881   0.866   6.942
 4570WAT     H213953   3.800   0.783   7.058
 4571WAT      O13954   0.490   3.026   9.520
 4571WAT     H113955   0.463   3.121   9.502
 4571WAT     H213956   0.508   3.014   9.617
 4572WAT      O13957   0.579   9.347   9.398
 4572WAT     H113958   0.561   9.262   9.348
 4572WAT     H213959   0.564   9.425   9.338
 4573WAT      O13960   6.360   7.374   2.715
 4573WAT     H113961   6.394   7.399   2.625
 4573WAT     H213962   6.429   7.393   2.784
 4574WAT      O13963   6.770   9.305   7.300
 4574WAT     H113964   6.838   9.282   7.369
 4574WAT     H213965   6.799   9.270   7.211
 4575WAT      O13966   9.422   3.776   0.339
 4575WAT     H113967   9.407   3.821   0.427
 4575WAT     H213968   9.499   3.820   0.292
 4576WAT      O13969   8.673   7.297   9.332
 4576WAT     H113970   8.766   7.283   9.367
 4576WAT     H213971   8.678   7.347   9.245
 4577WAT      O13972   9.437   7.540   2.522
 4577WAT     H113973   9.455   7.632   2.556
 4577WAT     H213974   9.341   7.533   2.494
 4578WAT      O13975   4.242   6.332   0.326
 4578WAT     H113976   4.154   6.329   0.373
 4578WAT     H213977   4.300   6.402   0.367
 4579WAT      O13978   0.495   8.963   5.302
 4579WAT     H113979   0.462   8.982   5.210
 4579WAT     H213980   0.569   8.895   5.298
 4580WAT      O13981   1.397   0.683   3.465
 4580WAT     H113982   1.334   0.611   3.491
 4580WAT     H213983   1.348   0.753   3.413
 4581WAT      O13984   6.915   9.421   9.081
 4581WAT     H113985   6.884   9.378   8.997
 4581WAT     H213986   7.013   9.437   9.076
 4582WAT      O13987   7.715   7.190   6.175
 4582WAT     H113988   7.721   7.266   6.111
 4582WAT     H213989   7.745   7.220   6.266
 4583WAT      O13990   9.052   4.835   5.422
 4583WAT     H113991   9.147   4.824   5.451
 4583WAT     H213992   8.992   4.785   5.483
 4584WAT      O13993   1.324   6.346   1.260
 4584WAT     H113994   1.351   6.270   1.320
 4584WAT     H213995   1.404   6.402   1.239
 4585WAT      O13996   8.158   1.477   4.253
 4585WAT     H113997   8.087   1.506   4.316
 4585WAT     H213998   8.233   1.543   4.253
 4586WAT      O13999   4.903   0.881   7.361
 4586WAT     H114000   4.986   0.830   7.339
 4586WAT     H214001   4.925   0.955   7.424
 4587WAT      O14002   6.597   3.443   6.812
 4587WAT     H114003   6.630   3.352   6.840
 4587WAT     H214004   6.613   3.508   6.886
 4588WAT      O14005   8.327   4.591   2.256
 4588WAT     H114006   8.337   4.493   2.274
 4588WAT     H214007   8.395   4.620   2.189
 4589WAT      O14008   4.340   9.080   9.324
 4589WAT     H114009   4.295   9.136   9.255
 4589WAT     H214010   4.348   9.133   9.409
 4590WAT      O14011   2.035   5.325   9.364
 4590WAT     H114012   1.999   5.396   9.305
 4590WAT     H214013   2.092   5.367   9.435
 4591WAT      O14014   0.726   3.772   1.537
 4591WAT     H114015   0.759   3.782   1.443
 4591WAT     H214016   0.696   3.861   1.571
 4592WAT      O14017   5.847   2.310   8.091
 4592WAT     H114018   5.815   2.309   8.186
 4592WAT     H214019   5.850   2.216   8.056
 4593WAT      O14020   3.781   7.891   6.232
 4593WAT     H114021   3.771   7.824   6.306
 4593WAT     H214022   3.839   7.966   6.263
 4594WAT      O14023   1.222   1.862   6.125
 4594WAT     H114024   1.246   1.873   6.029
 4594WAT     H214025   1.169   1.942   6.155
 4595WAT      O14026   0.974   7.794   1.104
 4595WAT     H114027   1.063   7.752   1.093
 4595WAT     H214028   0.970   7.879   1.050
 4596WAT      O14029   0.578   0.558   2.147
 4596WAT     H114030   0.658   0.611   2.117
 4596WAT     H214031   0.558   0.487   2.080
 4597WAT      O14032   2.786   0.491   9.634
 4597WAT     H114033   2.688   0.502   9.616
 4597WAT     H214034   2.829   0.444   9.557
 4598WAT      O14035   6.327   2.695   3.594
 4598WAT     H114036   6.325   2.754   3.675
 4598WAT     H214037   6.306   2.748   3.513
 4599WAT      O14038   7.689   8.425   6.172
 4599WAT     H114039   7.639   8.458   6.092
 4599WAT     H214040   7.684   8.325   6.177
 4600WAT      O14041   4.697   7.351   7.720
 4600WAT     H114042   4.725   7.440   7.755
 4600WAT     H214043   4.694   7.285   7.795
 4601WAT      O14044   3.913   4.781   0.199
 4601WAT     H114045   3.829   4.756   0.150
 4601WAT     H214046   3.951   4.699   0.242
 4602WAT      O14047   8.291   0.239   4.738
 4602WAT     H114048   8.192   0.252   4.738
 4602WAT     H214049   8.317   0.185   4.658
 4603WAT      O14050   4.696   3.286   3.537
 4603WAT     H114051   4.656   3.341   3.464
 4603WAT     H214052   4.648   3.198   3.542
 4604WAT      O14053   1.537   3.712   3.553
 4604WAT     H114054   1.621   3.657   3.550
 4604WAT     H214055   1.458   3.653   3.547
 4605WAT      O14056   1.659   6.530   7.192
 4605WAT     H114057   1.665   6.434   7.167
 4605WAT     H214058   1.596   6.541   7.269
 4606WAT      O14059   9.702   3.755   9.749
 4606WAT     H114060   9.732   3.843   9.711
 4606WAT     H214061   9.654   3.771   9.835
 4607WAT      O14062   6.239   0.548   4.494
 4607WAT     H114063   6.335   0.532   4.474
 4607WAT     H214064   6.188   0.563   4.409
 4608WAT      O14065   2.708   4.924   2.472
 4608WAT     H114066   2.746   5.006   2.429
 4608WAT     H214067   2.608   4.931   2.473
 4609WAT      O14068   3.154   0.900   8.268
 4609WAT     H114069   3.186   0.994   8.281
 4609WAT     H214070   3.056   0.896   8.287
 4610WAT      O14071   3.175   9.559   3.100
 4610WAT     H114072   3.170   9.577   3.198
 4610WAT     H214073   3.082   9.551   3.063
 4611WAT      O14074   6.200   1.167   1.430
 4611WAT     H114075   6.286   1.135   1.470
 4611WAT     H214076   6.198   1.267   1.431
 4612WAT      O14077   1.621   4.128   2.346
 4612WAT     H114078   1.615   4.080   2.433
 4612WAT     H214079   1.708   4.177   2.340
 4613WAT      O14080   7.512   4.776   4.584
 4613WAT     H114081   7.566   4.693   4.567
 4613WAT     H214082   7.415   4.755   4.575
 4614WAT      O14083   6.418   7.938   9.180
 4614WAT     H114084   6.418   7.838   9.189
 4614WAT     H214085   6.438   7.964   9.086
 4615WAT      O14086   9.102   0.852   8.644
 4615WAT     H114087   9.151   0.768   8.667
 4615WAT     H214088   9.166   0.917   8.604
 4616WAT      O14089   2.421   4.349   2.704
 4616WAT     H114090   2.484   4.422   2.731
 4616WAT     H214091   2.386   4.367   2.612
 4617WAT      O14092   7.251   6.174   9.830
 4617WAT     H114093   7.340   6.218   9.824
 4617WAT     H214094   7.216   6.180   9.923
 4618WAT      O14095   4.179   1.980   9.682
 4618WAT     H114096   4.142   1.974   9.776
 4618WAT     H214097   4.103   1.988   9.618
 4619WAT      O14098   2.834   9.228   0.766
 4619WAT     H114099   2.923   9.197   0.799
 4619WAT     H214100   2.847   9.297   0.696
 4620WAT      O14101   9.226   4.574   1.247
 4620WAT     H114102   9.249   4.614   1.335
 4620WAT     H214103   9.310   4.557   1.195
 4621WAT      O14104   7.257   5.593   6.863
 4621WAT     H114105   7.242   5.670   6.925
 4621WAT     H214106   7.198   5.603   6.783
 4622WAT      O14107   5.534   0.910   5.148
 4622WAT     H114108   5.607   0.869   5.093
 4622WAT     H214109   5.446   0.900   5.101
 4623WAT      O14110   3.147   6.605   2.314
 4623WAT     H114111   3.134   6.704   2.317
 4623WAT     H214112   3.095   6.563   2.388
 4624WAT      O14113   1.629   7.250   8.024
 4624WAT     H114114   1.595   7.333   8.069
 4624WAT     H214115   1.551   7.192   8.000
 4625WAT      O14116   2.373   1.008   0.386
 4625WAT     H114117   2.364   0.991   0.288
 4625WAT     H214118   2.389   1.106   0.401
 4626WAT      O14119   6.052   2.951   8.238
 4626WAT     H114120   5.966   2.902   8.248
 4626WAT     H214121   6.103   2.946   8.324
 4627WAT      O14122   3.441   5.774   6.072
 4627WAT     H114123   3.482   5.695   6.117
 4627WAT     H214124   3.489   5.857   6.100
 4628WAT      O14125   9.558   1.519   8.828
 4628WAT     H114126   9.461   1.538   8.838
 4628WAT     H214127   9.597   1.495   8.918
 4629WAT      O14128   3.810   7.440   8.144
 4629WAT     H114129   3.749   7.407   8.217
 4629WAT     H214130   3.876   7.369   8.122
 4630WAT      O14131   4.837   6.395   4.884
 4630WAT     H114132   4.863   6.444   4.967
 4630WAT     H214133   4.739   6.375   4.886
 4631WAT      O14134   1.260   4.653   0.354
 4631WAT     H114135   1.167   4.620   0.366
 4631WAT     H214136   1.262   4.721   0.280
 4632WAT      O14137   1.980   2.044   5.150
 4632WAT     H114138   1.915   2.055   5.074
 4632WAT     H214139   2.056   1.986   5.121
 4633WAT      O14140   6.953   9.608   2.181
 4633WAT     H114141   6.882   9.544   2.152
 4633WAT     H214142   6.924   9.656   2.263
 4634WAT      O14143   7.034   1.459   2.810
 4634WAT     H114144   7.057   1.552   2.782
 4634WAT     H214145   7.109   1.421   2.864
 4635WAT      O14146   9.433   3.102   6.193
 4635WAT     H114147   9.444   3.173   6.263
 4635WAT     H214148   9.503   3.113   6.123
 4636WAT      O14149   6.787   7.375   9.460
 4636WAT     H114150   6.710   7.419   9.507
 4636WAT     H214151   6.873   7.401   9.506
 4637WAT      O14152   3.269   7.837   7.886
 4637WAT     H114153   3.245   7.783   7.806
 4637WAT     H214154   3.253   7.783   7.969
 4638WAT      O14155   6.163   0.533   1.501
 4638WAT     H114156   6.131   0.511   1.409
 4638WAT     H214157   6.141   0.457   1.563
 4639WAT      O14158   2.784   4.622   1.885
 4639WAT     H114159   2.698   4.670   1.902
 4639WAT     H214160   2.850   4.686   1.845
 4640WAT      O14161   9.195   4.632   1.931
 4640WAT     H114162   9.271   4.680   1.974
 4640WAT     H214163   9.219   4.535   1.921
 4641WAT      O14164   4.869   1.178   2.929
 4641WAT     H114165   4.780   1.140   2.954
 4641WAT     H214166   4.915   1.211   3.012
 4642WAT      O14167   8.833   4.186   0.064
 4642WAT     H114168   8.779   4.190   0.149
 4642WAT     H214169   8.871   4.276   0.044
 4643WAT      O14170   3.879   0.319   3.397
 4643WAT     H114171   3.943   0.348   3.469
 4643WAT     H214172   3.788   0.305   3.437
 4644WAT      O14173   0.052   8.783   7.115
 4644WAT     H114174   0.054   8.883   7.114
 4644WAT     H214175  -0.027   8.752   7.169
 4645WAT      O14176   0.308   2.627   2.396
 4645WAT     H114177   0.286   2.637   2.299
 4645WAT     H214178   0.406   2.605   2.405
 4646WAT      O14179   6.719   3.516   7.823
 4646WAT     H114180   6.792   3.508   7.891
 4646WAT     H214181   6.759   3.513   7.731
 4647WAT      O14182   8.017   3.898   8.446
 4647WAT     H114183   8.085   3.825   8.447
 4647WAT     H214184   8.062   3.986   8.432
 4648WAT      O14185   3.538   3.259   8.237
 4648WAT     H114186   3.556   3.316   8.317
 4648WAT     H214187   3.483   3.310   8.172
 4649WAT      O14188   1.159   7.084   1.262
 4649WAT     H114189   1.079   7.143   1.276
 4649WAT     H214190   1.174   7.029   1.343
 4650WAT      O14191   5.065   3.206   6.692
 4650WAT     H114192   5.018   3.289   6.661
 4650WAT     H214193   4.997   3.139   6.721
 4651WAT      O14194   2.307   8.367   5.414
 4651WAT     H114195   2.243   8.433   5.454
 4651WAT     H214196   2.372   8.338   5.484
 4652WAT      O14197   3.851   3.049   8.966
 4652WAT     H114198   3.936   3.053   9.018
 4652WAT     H214199   3.871   3.050   8.868
 4653WAT      O14200   8.644   5.572   0.790
 4653WAT     H114201   8.731   5.544   0.830
 4653WAT     H214202   8.655   5.588   0.692
 4654WAT      O14203   6.616   4.160   6.620
 4654WAT     H114204   6.595   4.072   6.576
 4654WAT     H214205   6.689   4.206   6.569
 4655WAT      O14206   5.904   2.928   7.712
 4655WAT     H114207   6.004   2.923   7.720
 4655WAT     H214208   5.870   3.007   7.763
 4656WAT      O14209   9.273   0.018   7.585
 4656WAT     H114210   9.203   0.027   7.514
 4656WAT     H214211   9.230   0.028   7.675
 4657WAT      O14212   2.322   0.711   0.339
 4657WAT     H114213   2.337   0.735   0.435
 4657WAT     H214214   2.353   0.617   0.323
 4658WAT      O14215   0.139   9.645   7.474
 4658WAT     H114216   0.238   9.648   7.462
 4658WAT     H214217   0.107   9.735   7.504
 4659WAT      O14218   8.069   1.092   1.026
 4659WAT     H114219   8.119   1.049   0.951
 4659WAT     H214220   8.008   1.163   0.989
 4660WAT      O14221   5.495   6.079   0.579
 4660WAT     H114222   5.572   6.065   0.515
 4660WAT     H214223   5.496   6.007   0.648
 4661WAT      O14224   1.849   0.987   1.621
 4661WAT     H114225   1.897   0.994   1.708
 4661WAT     H214226   1.878   1.061   1.561
 4662WAT      O14227   3.893   5.022   4.007
 4662WAT     H114228   3.806   5.067   4.023
 4662WAT     H214229   3.965   5.091   3.997
 4663WAT      O14230   4.874   7.048   3.063
 4663WAT     H114231   4.933   7.049   2.983
 4663WAT     H214232   4.816   6.966   3.060
 4664WAT      O14233   7.492   1.092   4.066
 4664WAT     H114234   7.534   1.178   4.036
 4664WAT     H214235   7.394   1.105   4.079
 4665WAT      O14236   7.694   1.847   7.687
 4665WAT     H114237   7.649   1.758   7.687
 4665WAT     H214238   7.788   1.836   7.655
 4666WAT      O14239   7.933   3.517   3.495
 4666WAT     H114240   7.841   3.493   3.526
 4666WAT     H214241   7.937   3.615   3.476
 4667WAT      O14242   0.605   7.725   1.347
 4667WAT     H114243   0.589   7.703   1.443
 4667WAT     H214244   0.519   7.717   1.296
 4668WAT      O14245   5.529   8.665   2.652
 4668WAT     H114246   5.603   8.684   2.717
 4668WAT     H214247   5.535   8.571   2.621
 4669WAT      O14248   5.641   8.764   1.137
 4669WAT     H114249   5.715   8.829   1.117
 4669WAT     H214250   5.677   8.688   1.191
 4670WAT      O14251   1.975   0.275   8.074
 4670WAT     H114252   1.968   0.294   8.172
 4670WAT     H214253   1.976   0.177   8.059
 4671WAT      O14254   6.359   7.254   3.939
 4671WAT     H114255   6.423   7.269   3.864
 4671WAT     H214256   6.402   7.281   4.025
 4672WAT      O14257   8.093   6.404   8.435
 4672WAT     H114258   8.138   6.367   8.354
 4672WAT     H214259   7.998   6.371   8.439
 4673WAT      O14260   4.180   6.600   7.950
 4673WAT     H114261   4.250   6.671   7.942
 4673WAT     H214262   4.168   6.556   7.861
 4674WAT      O14263   7.442   3.617   6.241
 4674WAT     H114264   7.529   3.583   6.206
 4674WAT     H214265   7.408   3.689   6.181
 4675WAT      O14266   3.212   4.215   1.363
 4675WAT     H114267   3.298   4.171   1.393
 4675WAT     H214268   3.135   4.171   1.409
 4676WAT      O14269   7.250   3.884   5.302
 4676WAT     H114270   7.322   3.877   5.233
 4676WAT     H214271   7.234   3.981   5.323
 4677WAT      O14272   1.302   9.018   2.179
 4677WAT     H114273   1.285   8.924   2.207
 4677WAT     H214274   1.215   9.061   2.153
 4678WAT      O14275   6.719   3.586   5.935
 4678WAT     H114276   6.634   3.556   5.891
 4678WAT     H214277   6.786   3.610   5.865
 4679WAT      O14278   4.360   5.178   2.644
 4679WAT     H114279   4.323   5.141   2.729
 4679WAT     H214280   4.369   5.277   2.652
 4680WAT      O14281   7.965   0.963   5.794
 4680WAT     H114282   7.913   0.976   5.878
 4680WAT     H214283   8.063   0.962   5.815
 4681WAT      O14284   7.782   0.778   4.542
 4681WAT     H114285   7.874   0.791   4.505
 4681WAT     H214286   7.715   0.812   4.477
 4682WAT      O14287   3.807   4.403   2.607
 4682WAT     H114288   3.800   4.499   2.633
 4682WAT     H214289   3.903   4.380   2.592
 4683WAT      O14290   1.134   9.233   1.361
 4683WAT     H114291   1.160   9.157   1.302
 4683WAT     H214292   1.067   9.290   1.314
 4684WAT      O14293   5.949   5.953   1.357
 4684WAT     H114294   6.009   5.967   1.279
 4684WAT     H214295   5.898   5.868   1.345
 4685WAT      O14296   7.156   9.632   6.397
 4685WAT     H114297   7.086   9.567   6.427
 4685WAT     H214298   7.149   9.645   6.298
 4686WAT      O14299   4.238   2.204   0.738
 4686WAT     H114300   4.139   2.200   0.729
 4686WAT     H214301   4.264   2.184   0.832
 4687WAT      O14302   0.006   8.557   2.934
 4687WAT     H114303  -0.060   8.484   2.917
 4687WAT     H214304   0.094   8.533   2.892
 4688WAT      O14305   0.848   6.478   5.346
 4688WAT     H114306   0.880   6.424   5.424
 4688WAT     H214307   0.790   6.421   5.288
 4689WAT      O14308   7.098   6.001   9.704
 4689WAT     H114309   7.170   6.054   9.748
 4689WAT     H214310   7.097   5.908   9.741
 4690WAT      O14311   9.086   9.081   7.760
 4690WAT     H114312   9.175   9.075   7.806
 4690WAT     H214313   9.046   9.171   7.779
 4691WAT      O14314   2.781   8.809   9.177
 4691WAT     H114315   2.846   8.794   9.253
 4691WAT     H214316   2.756   8.905   9.173
 4692WAT      O14317   5.285   6.666   8.508
 4692WAT     H114318   5.261   6.633   8.600
 4692WAT     H214319   5.205   6.657   8.448
 4693WAT      O14320   0.291   4.064   7.165
 4693WAT     H114321   0.334   4.094   7.250
 4693WAT     H214322   0.355   4.007   7.114
 4694WAT      O14323   3.307   1.095   9.101
 4694WAT     H114324   3.321   1.003   9.066
 4694WAT     H214325   3.298   1.092   9.200
 4695WAT      O14326   0.162   3.616   2.146
 4695WAT     H114327   0.199   3.708   2.161
 4695WAT     H214328   0.065   3.623   2.124
 4696WAT      O14329   2.403   2.602   3.907
 4696WAT     H114330   2.362   2.576   3.819
 4696WAT     H214331   2.464   2.680   3.892
 4697WAT      O14332   3.668   5.565   6.662
 4697WAT     H114333   3.672   5.533   6.756
 4697WAT     H214334   3.671   5.665   6.661
 4698WAT      O14335   4.619   9.415   1.722
 4698WAT     H114336   4.685   9.486   1.697
 4698WAT     H214337   4.628   9.337   1.660
 4699WAT      O14338   9.710   7.436   9.537
 4699WAT     H114339   9.790   7.411   9.483
 4699WAT     H214340   9.739   7.466   9.628
 4700WAT      O14341   6.631   9.234   1.372
 4700WAT     H114342   6.607   9.160   1.309
 4700WAT     H214343   6.600   9.321   1.334
 4701WAT      O14344   7.442   3.740   8.736
 4701WAT     H114345   7.489   3.723   8.823
 4701WAT     H214346   7.422   3.653   8.691
 4702WAT      O14347   1.671   8.095   0.950
 4702WAT     H114348   1.691   8.067   1.045
 4702WAT     H214349   1.573   8.106   0.939
 4703WAT      O14350   6.182   0.584   1.165
 4703WAT     H114351   6.280   0.587   1.187
 4703WAT     H214352   6.165   0.637   1.081
 4704WAT      O14353   3.326   8.308   0.132
 4704WAT     H114354   3.240   8.357   0.149
 4704WAT     H214355   3.313   8.244   0.056
 4705WAT      O14356   5.783   8.598   9.347
 4705WAT     H114357   5.869   8.629   9.388
 4705WAT     H214358   5.779   8.627   9.252
 4706WAT      O14359   4.321   2.669   3.888
 4706WAT     H114360   4.226   2.676   3.860
 4706WAT     H214361   4.329   2.683   3.986
 4707WAT      O14362   0.844   6.430   6.185
 4707WAT     H114363   0.847   6.509   6.124
 4707WAT     H214364   0.828   6.460   6.279
 4708WAT      O14365   3.190   1.089   3.954
 4708WAT     H114366   3.182   1.188   3.961
 4708WAT     H214367   3.105   1.050   3.919
 4709WAT      O14368   7.435   8.852   7.592
 4709WAT     H114369   7.491   8.893   7.664
 4709WAT     H214370   7.338   8.858   7.618
 4710WAT      O14371   7.500   2.854   8.170
 4710WAT     H114372   7.539   2.896   8.088
 4710WAT     H214373   7.557   2.777   8.198
 4711WAT      O14374   6.623   7.177   7.198
 4711WAT     H114375   6.550   7.190   7.131
 4711WAT     H214376   6.585   7.138   7.282
 4712WAT      O14377   8.840   4.236   9.500
 4712WAT     H114378   8.797   4.218   9.589
 4712WAT     H214379   8.769   4.254   9.432
 4713WAT      O14380   2.741   8.428   4.239
 4713WAT     H114381   2.810   8.368   4.199
 4713WAT     H214382   2.656   8.377   4.251
 4714WAT      O14383   3.975   0.487   9.808
 4714WAT     H114384   4.050   0.441   9.856
 4714WAT     H214385   3.956   0.439   9.722
 4715WAT      O14386   9.337   3.253   2.108
 4715WAT     H114387   9.273   3.292   2.173
 4715WAT     H214388   9.430   3.261   2.144
 4716WAT      O14389   6.351   1.849   9.812
 4716WAT     H114390   6.285   1.886   9.747
 4716WAT     H214391   6.409   1.782   9.766
 4717WAT      O14392   1.194   1.220   8.888
 4717WAT     H114393   1.117   1.251   8.832
 4717WAT     H214394   1.161   1.161   8.961
 4718WAT      O14395   0.733   3.973   0.009
 4718WAT     H114396   0.677   3.977  -0.074
 4718WAT     H214397   0.761   3.878   0.025
 4719WAT      O14398   8.706   8.841   9.227
 4719WAT     H114399   8.714   8.741   9.225
 4719WAT     H214400   8.696   8.871   9.322
 4720WAT      O14401   4.433   3.458   2.654
 4720WAT     H114402   4.348   3.420   2.617
 4720WAT     H214403   4.511   3.412   2.611
 4721WAT      O14404   6.335   7.354   8.693
 4721WAT     H114405   6.377   7.444   8.707
 4721WAT     H214406   6.312   7.343   8.596
 4722WAT      O14407   9.772   1.457   2.106
 4722WAT     H114408   9.685   1.503   2.091
 4722WAT     H214409   9.805   1.418   2.019
 4723WAT      O14410   1.559   5.904   5.051
 4723WAT     H114411   1.509   5.823   5.080
 4723WAT     H214412   1.620   5.880   4.976
 4724WAT      O14413   4.026   7.844   8.638
 4724WAT     H114414   3.934   7.808   8.655
 4724WAT     H214415   4.026   7.899   8.555
 4725WAT      O14416   6.273   3.437   2.845
 4725WAT     H114417   6.287   3.339   2.831
 4725WAT     H214418   6.276   3.484   2.757
 4726WAT      O14419   8.100   2.928   3.183
 4726WAT     H114420   8.157   2.965   3.110
 4726WAT     H214421   8.032   2.997   3.210
 4727WAT      O14422   6.707   0.898   1.591
 4727WAT     H114423   6.620   0.943   1.608
 4727WAT     H214424   6.692   0.807   1.554
 4728WAT      O14425   9.251   1.044   7.969
 4728WAT     H114426   9.177   0.977   7.964
 4728WAT     H214427   9.339   0.997   7.960
 4729WAT      O14428   1.652   2.864   5.591
 4729WAT     H114429   1.670   2.855   5.493
 4729WAT     H214430   1.728   2.913   5.634
 4730WAT      O14431   1.372   7.858   8.906
 4730WAT     H114432   1.432   7.869   8.826
 4730WAT     H214433   1.389   7.770   8.949
 4731WAT      O14434   0.127   5.622   2.789
 4731WAT     H114435   0.214   5.661   2.818
 4731WAT     H214436   0.111   5.536   2.837
 4732WAT      O14437   4.579   0.590   3.807
 4732WAT     H114438   4.588   0.555   3.714
 4732WAT     H214439   4.516   0.532   3.859
 4733WAT      O14440   5.255   1.703   2.743
 4733WAT     H114441   5.280   1.698   2.840
 4733WAT     H214442   5.159   1.678   2.732
 4734WAT      O14443   4.426   1.369   7.508
 4734WAT     H114444   4.354   1.328   7.451
 4734WAT     H214445   4.467   1.446   7.459
 4735WAT      O14446   3.856   7.495   8.496
 4735WAT     H114447   3.807   7.408   8.499
 4735WAT     H214448   3.819   7.557   8.565
 4736WAT      O14449   2.711   1.297   6.278
 4736WAT     H114450   2.806   1.269   6.295
 4736WAT     H214451   2.709   1.392   6.248
 4737WAT      O14452   6.727   7.874   0.592
 4737WAT     H114453   6.634   7.897   0.619
 4737WAT     H214454   6.788   7.884   0.671
 4738WAT      O14455   4.406   2.941   9.600
 4738WAT     H114456   4.324   2.886   9.583
 4738WAT     H214457   4.400   2.982   9.691
 4739WAT      O14458   3.504   7.755   1.108
 4739WAT     H114459   3.496   7.729   1.204
 4739WAT     H214460   3.505   7.855   1.102
 4740WAT      O14461   2.618   8.791   0.628
 4740WAT     H114462   2.585   8.880   0.659
 4740WAT     H214463   2.718   8.793   0.622
 4741WAT      O14464   9.851   3.954   9.653
 4741WAT     H114465   9.939   3.942   9.699
 4741WAT     H214466   9.827   4.051   9.653
 4742WAT      O14467   6.804   1.345   6.025
 4742WAT     H114468   6.875   1.403   6.065
 4742WAT     H214469   6.841   1.298   5.945
 4743WAT      O14470   3.276   9.253   0.382
 4743WAT     H114471   3.312   9.181   0.324
 4743WAT     H214472   3.340   9.330   0.384
 4744WAT      O14473   0.472   7.319   9.041
 4744WAT     H114474   0.457   7.408   8.998
 4744WAT     H214475   0.428   7.318   9.131
 4745WAT      O14476   7.395   8.678   1.201
 4745WAT     H114477   7.468   8.646   1.261
 4745WAT     H214478   7.431   8.695   1.109
 4746WAT      O14479   2.490   0.883   7.062
 4746WAT     H114480   2.479   0.970   7.015
 4746WAT     H214481   2.447   0.811   7.008
 4747WAT      O14482   6.973   8.732   4.636
 4747WAT     H114483   7.049   8.668   4.630
 4747WAT     H214484   6.898   8.689   4.687
 4748WAT      O14485   9.323   5.841   8.314
 4748WAT     H114486   9.407   5.825   8.262
 4748WAT     H214487   9.247   5.794   8.270
 4749WAT      O14488   0.466   3.743   9.431
 4749WAT     H114489   0.516   3.706   9.510
 4749WAT     H214490   0.489   3.689   9.350
 4750WAT      O14491   5.598   5.449   3.534
 4750WAT     H114492   5.631   5.494   3.617
 4750WAT     H214493   5.674   5.432   3.472
 4751WAT      O14494   8.658   0.241   7.446
 4751WAT     H114495   8.724   0.254   7.371
 4751WAT     H214496   8.616   0.329   7.468
 4752WAT      O14497   6.675   4.981   6.468
 4752WAT     H114498   6.718   4.927   6.540
 4752WAT     H214499   6.631   5.061   6.509
 4753WAT      O14500   8.965   2.373   1.935
 4753WAT     H114501   9.036   2.416   1.879
 4753WAT     H214502   8.963   2.417   2.025
 4754WAT      O14503   0.478   6.380   9.214
 4754WAT     H114504   0.485   6.480   9.225
 4754WAT     H214505   0.565   6.345   9.179
 4755WAT      O14506   2.641   5.367   5.621
 4755WAT     H114507   2.561   5.395   5.568
 4755WAT     H214508   2.645   5.419   5.706
 4756WAT      O14509   5.845   9.505   7.036
 4756WAT     H114510   5.798   9.442   7.098
 4756WAT     H214511   5.881   9.583   7.087
 4757WAT      O14512   7.529   7.419   9.194
 4757WAT     H114513   7.462   7.362   9.146
 4757WAT     H214514   7.555   7.376   9.279
 4758WAT      O14515   1.795   4.655   8.296
 4758WAT     H114516   1.859   4.632   8.223
 4758WAT     H214517   1.705   4.617   8.275
 4759WAT      O14518   6.877   3.900   3.725
 4759WAT     H114519   6.803   3.834   3.740
 4759WAT     H214520   6.895   3.907   3.627
 4760WAT      O14521   8.111   0.320   6.706
 4760WAT     H114522   8.177   0.289   6.775
 4760WAT     H214523   8.157   0.381   6.641
 4761WAT      O14524   4.624   4.363   9.545
 4761WAT     H114525   4.592   4.452   9.578
 4761WAT     H214526   4.584   4.345   9.455
 4762WAT      O14527   7.952   4.391   9.553
 4762WAT     H114528   7.883   4.364   9.486
 4762WAT     H214529   7.968   4.490   9.547
 4763WAT      O14530   6.841   8.112   6.071
 4763WAT     H114531   6.934   8.078   6.057
 4763WAT     H214532   6.827   8.132   6.168
 4764WAT      O14533   8.482   4.768   5.441
 4764WAT     H114534   8.383   4.781   5.435
 4764WAT     H214535   8.525   4.853   5.471
 4765WAT      O14536   3.911   0.191   9.127
 4765WAT     H114537   3.917   0.273   9.183
 4765WAT     H214538   3.851   0.209   9.049
 4766WAT      O14539   5.955   9.470   6.048
 4766WAT     H114540   5.966   9.378   6.010
 4766WAT     H214541   5.914   9.465   6.139
 4767WAT      O14542   1.568   8.206   4.936
 4767WAT     H114543   1.640   8.229   4.870
 4767WAT     H214544   1.524   8.290   4.967
 4768WAT      O14545   2.996   5.828   7.889
 4768WAT     H114546   2.940   5.828   7.806
 4768WAT     H214547   3.011   5.733   7.919
 4769WAT      O14548   6.854   4.966   1.571
 4769WAT     H114549   6.881   4.911   1.649
 4769WAT     H214550   6.927   4.966   1.503
 4770WAT      O14551   8.573   8.241   6.694
 4770WAT     H114552   8.667   8.234   6.661
 4770WAT     H214553   8.565   8.318   6.757
 4771WAT      O14554   2.396   4.662   5.532
 4771WAT     H114555   2.445   4.606   5.598
 4771WAT     H214556   2.422   4.758   5.543
 4772WAT      O14557   8.999   4.594   8.461
 4772WAT     H114558   9.082   4.649   8.458
 4772WAT     H214559   9.006   4.520   8.394
 4773WAT      O14560   6.761   7.629   7.785
 4773WAT     H114561   6.669   7.650   7.816
 4773WAT     H214562   6.758   7.552   7.721
 4774WAT      O14563   8.018   9.371   7.470
 4774WAT     H114564   7.961   9.354   7.389
 4774WAT     H214565   7.960   9.400   7.546
 4775WAT      O14566   4.322   2.494   6.861
 4775WAT     H114567   4.288   2.532   6.947
 4775WAT     H214568   4.343   2.397   6.872
 4776WAT      O14569   3.830   7.895   7.562
 4776WAT     H114570   3.823   7.796   7.575
 4776WAT     H214571   3.804   7.918   7.468
 4777WAT      O14572   1.441   5.597   3.805
 4777WAT     H114573   1.428   5.501   3.830
 4777WAT     H214574   1.474   5.603   3.711
 4778WAT      O14575   2.050   2.409   1.353
 4778WAT     H114576   2.038   2.330   1.293
 4778WAT     H214577   2.062   2.491   1.297
 4779WAT      O14578   8.668   2.414   8.836
 4779WAT     H114579   8.755   2.407   8.884
 4779WAT     H214580   8.674   2.484   8.765
 4780WAT      O14581   6.202   6.818   1.346
 4780WAT     H114582   6.149   6.867   1.277
 4780WAT     H214583   6.166   6.726   1.357
 4781WAT      O14584   3.556   0.828   2.668
 4781WAT     H114585   3.619   0.887   2.617
 4781WAT     H214586   3.571   0.732   2.642
 4782WAT      O14587   9.114   8.488   1.777
 4782WAT     H114588   9.065   8.507   1.861
 4782WAT     H214589   9.181   8.415   1.793
 4783WAT      O14590   3.392   4.317   0.730
 4783WAT     H114591   3.350   4.227   0.744
 4783WAT     H214592   3.384   4.371   0.814
 4784WAT      O14593   1.239   3.557   4.620
 4784WAT     H114594   1.232   3.551   4.720
 4784WAT     H214595   1.327   3.597   4.594
 4785WAT      O14596   1.635   0.600   1.593
 4785WAT     H114597   1.558   0.537   1.601
 4785WAT     H214598   1.695   0.589   1.673
 4786WAT      O14599   8.123   4.377   7.057
 4786WAT     H114600   8.092   4.396   7.150
 4786WAT     H214601   8.048   4.394   6.992
 4787WAT      O14602   4.186   2.503   9.671
 4787WAT     H114603   4.264   2.534   9.617
 4787WAT     H214604   4.210   2.419   9.719
 4788WAT      O14605   6.755   1.474   7.284
 4788WAT     H114606   6.696   1.546   7.246
 4788WAT     H214607   6.740   1.468   7.383
 4789WAT      O14608   9.435   0.640   9.222
 4789WAT     H114609   9.522   0.594   9.236
 4789WAT     H214610   9.366   0.603   9.284
 4790WAT      O14611   8.639   5.912   5.519
 4790WAT     H114612   8.634   6.006   5.554
 4790WAT     H214613   8.550   5.886   5.480
 4791WAT      O14614   2.716   7.456   5.256
 4791WAT     H114615   2.694   7.363   5.227
 4791WAT     H214616   2.794   7.454   5.319
 4792WAT      O14617   6.555   1.608   7.127
 4792WAT     H114618   6.572   1.558   7.042
 4792WAT     H214619   6.460   1.593   7.155
 4793WAT      O14620   3.718   0.310   4.557
 4793WAT     H114621   3.625   0.284   4.532
 4793WAT     H214622   3.715   0.380   4.629
 4794WAT      O14623   3.608   6.014   8.057
 4794WAT     H114624   3.592   6.053   7.966
 4794WAT     H214625   3.526   6.024   8.113
 4795WAT      O14626   2.705   0.555   0.370
 4795WAT     H114627   2.691   0.609   0.287
 4795WAT     H214628   2.644   0.588   0.442
 4796WAT      O14629   3.274   0.137   7.156
 4796WAT     H114630   3.273   0.187   7.070
 4796WAT     H214631   3.258   0.040   7.139
 4797WAT      O14632   0.917   5.219   4.874
 4797WAT     H114633   0.939   5.185   4.782
 4797WAT     H214634   0.959   5.309   4.887
 4798WAT      O14635   9.753   9.441   6.643
 4798WAT     H114636   9.666   9.477   6.606
 4798WAT     H214637   9.733   9.370   6.710
 4799WAT      O14638   6.107   8.522   8.158
 4799WAT     H114639   6.054   8.565   8.231
 4799WAT     H214640   6.205   8.538   8.175
 4800WAT      O14641   1.467   8.613   8.856
 4800WAT     H114642   1.448   8.585   8.950
 4800WAT     H214643   1.393   8.671   8.822
 4801WAT      O14644   0.773   6.503   2.419
 4801WAT     H114645   0.718   6.423   2.395
 4801WAT     H214646   0.851   6.474   2.475
 4802WAT      O14647   6.731   6.119   0.446
 4802WAT     H114648   6.647   6.064   0.450
 4802WAT     H214649   6.810   6.058   0.437
 4803WAT      O14650   0.784   8.306   5.812
 4803WAT     H114651   0.741   8.394   5.790
 4803WAT     H214652   0.829   8.312   5.901
 4804WAT      O14653   2.703   5.287   3.866
 4804WAT     H114654   2.695   5.357   3.795
 4804WAT     H214655   2.681   5.327   3.955
 4805WAT      O14656   9.409   3.140   9.103
 4805WAT     H114657   9.455   3.213   9.053
 4805WAT     H214658   9.351   3.088   9.040
 4806WAT      O14659   1.554   6.404   3.480
 4806WAT     H114660   1.564   6.312   3.441
 4806WAT     H214661   1.477   6.450   3.437
 4807WAT      O14662   1.489   6.829   0.800
 4807WAT     H114663   1.437   6.908   0.768
 4807WAT     H214664   1.471   6.815   0.898
 4808WAT      O14665   9.292   6.097   3.305
 4808WAT     H114666   9.272   6.001   3.290
 4808WAT     H214667   9.379   6.106   3.353
 4809WAT      O14668   0.861   7.509   0.829
 4809WAT     H114669   0.775   7.551   0.858
 4809WAT     H214670   0.881   7.536   0.735
 4810WAT      O14671   0.209   8.684   3.264
 4810WAT     H114672   0.227   8.722   3.173
 4810WAT     H214673   0.265   8.603   3.278
 4811WAT      O14674   4.264   3.668   2.112
 4811WAT     H114675   4.323   3.602   2.066
 4811WAT     H214676   4.237   3.633   2.201
 4812WAT      O14677   3.361   8.551   4.572
 4812WAT     H114678   3.267   8.584   4.584
 4812WAT     H214679   3.424   8.614   4.617
 4813WAT      O14680   3.595   0.136   7.808
 4813WAT     H114681   3.572   0.122   7.712
 4813WAT     H214682   3.678   0.192   7.814
 4814WAT      O14683   2.914   1.614   1.646
 4814WAT     H114684   2.925   1.515   1.656
 4814WAT     H214685   2.960   1.645   1.562
 4815WAT      O14686   3.054   8.162   2.835
 4815WAT     H114687   3.142   8.114   2.847
 4815WAT     H214688   3.032   8.213   2.918
 4816WAT      O14689   8.723   7.839   9.318
 4816WAT     H114690   8.633   7.832   9.359
 4816WAT     H214691   8.793   7.839   9.391
 4817WAT      O14692   4.969   0.670   1.233
 4817WAT     H114693   4.997   0.756   1.277
 4817WAT     H214694   5.049   0.626   1.193
 4818WAT      O14695   3.954   9.047   9.113
 4818WAT     H114696   3.995   9.134   9.085
 4818WAT     H214697   3.945   9.046   9.213
 4819WAT      O14698   2.905   4.355   5.723
 4819WAT     H114699   2.979   4.393   5.778
 4819WAT     H214700   2.832   4.323   5.782
 4820WAT      O14701   4.677   6.782   3.795
 4820WAT     H114702   4.752   6.846   3.814
 4820WAT     H214703   4.691   6.739   3.706
 4821WAT      O14704   7.186   1.204   8.459
 4821WAT     H114705   7.130   1.173   8.383
 4821WAT     H214706   7.127   1.236   8.533
 4822WAT      O14707   8.972   5.756   4.773
 4822WAT     H114708   8.981   5.770   4.674
 4822WAT     H214709   9.045   5.697   4.805
 4823WAT      O14710   2.864   6.775   0.595
 4823WAT     H114711   2.945   6.743   0.546
 4823WAT     H214712   2.862   6.875   0.593
 4824WAT      O14713   2.065   1.415   6.058
 4824WAT     H114714   2.130   1.379   6.125
 4824WAT     H214715   1.972   1.390   6.085
 4825WAT      O14716   3.314   9.145   3.997
 4825WAT     H114717   3.368   9.065   4.024
 4825WAT     H214718   3.239   9.116   3.938
 4826WAT      O14719   5.340   3.699   0.327
 4826WAT     H114720   5.280   3.713   0.406
 4826WAT     H214721   5.429   3.667   0.358
 4827WAT      O14722   5.780   8.605   8.694
 4827WAT     H114723   5.686   8.601   8.727
 4827WAT     H214724   5.814   8.512   8.680
 4828WAT      O14725   9.541   4.389   6.677
 4828WAT     H114726   9.467   4.375   6.612
 4828WAT     H214727   9.598   4.307   6.681
 4829WAT      O14728   3.875   2.364   2.427
 4829WAT     H114729   3.956   2.369   2.486
 4829WAT     H214730   3.861   2.270   2.397
 4830WAT      O14731   8.647   4.440   8.052
 4830WAT     H114732   8.618   4.353   8.011
 4830WAT     H214733   8.622   4.440   8.149
 4831WAT      O14734   0.010   4.414   3.231
 4831WAT     H114735   0.063   4.499   3.239
 4831WAT     H214736  -0.067   4.418   3.295
 4832WAT      O14737   1.550   5.845   7.746
 4832WAT     H114738   1.598   5.784   7.808
 4832WAT     H214739   1.501   5.915   7.799
 4833WAT      O14740   7.824   2.992   1.326
 4833WAT     H114741   7.818   2.894   1.304
 4833WAT     H214742   7.890   3.005   1.400
 4834WAT      O14743   2.337   7.573   3.199
 4834WAT     H114744   2.264   7.508   3.223
 4834WAT     H214745   2.404   7.576   3.273
 4835WAT      O14746   0.098   9.269   8.855
 4835WAT     H114747   0.190   9.282   8.892
 4835WAT     H214748   0.079   9.340   8.787
 4836WAT      O14749   4.435   3.256   8.972
 4836WAT     H114750   4.520   3.272   9.022
 4836WAT     H214751   4.426   3.325   8.899
 4837WAT      O14752   6.602   1.816   5.631
 4837WAT     H114753   6.563   1.885   5.692
 4837WAT     H214754   6.566   1.829   5.538
 4838WAT      O14755   1.016   7.381   3.486
 4838WAT     H114756   1.008   7.282   3.494
 4838WAT     H214757   1.113   7.406   3.479
 4839WAT      O14758   4.630   2.871   4.983
 4839WAT     H114759   4.680   2.811   5.046
 4839WAT     H214760   4.670   2.963   4.987
 4840WAT      O14761   0.496   8.040   7.762
 4840WAT     H114762   0.445   8.053   7.677
 4840WAT     H214763   0.511   7.942   7.778
 4841WAT      O14764   0.844   4.380   2.445
 4841WAT     H114765   0.834   4.455   2.510
 4841WAT     H214766   0.754   4.340   2.425
 4842WAT      O14767   7.383   3.703   8.399
 4842WAT     H114768   7.327   3.621   8.385
 4842WAT     H214769   7.479   3.680   8.389
 4843WAT      O14770   1.899   9.725   1.575
 4843WAT     H114771   1.856   9.801   1.525
 4843WAT     H214772   1.906   9.749   1.672
 4844WAT      O14773   1.831   1.656   6.165
 4844WAT     H114774   1.847   1.679   6.069
 4844WAT     H214775   1.829   1.557   6.175
 4845WAT      O14776   8.571   6.270   9.795
 4845WAT     H114777   8.537   6.363   9.780
 4845WAT     H214778   8.649   6.253   9.735
 4846WAT      O14779   3.844   6.176   1.202
 4846WAT     H114780   3.935   6.143   1.179
 4846WAT     H214781   3.817   6.142   1.292
 4847WAT      O14782   9.230   7.251   8.178
 4847WAT     H114783   9.202   7.321   8.244
 4847WAT     H214784   9.150   7.215   8.131
 4848WAT      O14785   1.375   2.255   4.981
 4848WAT     H114786   1.356   2.353   4.985
 4848WAT     H214787   1.296   2.204   5.016
 4849WAT      O14788   0.942   3.529   6.683
 4849WAT     H114789   0.912   3.526   6.779
 4849WAT     H214790   1.006   3.454   6.667
 4850WAT      O14791   4.824   7.821   6.488
 4850WAT     H114792   4.745   7.775   6.448
 4850WAT     H214793   4.900   7.818   6.423
 4851WAT      O14794   1.598   0.191   9.843
 4851WAT     H114795   1.569   0.160   9.933
 4851WAT     H214796   1.572   0.286   9.831
 4852WAT      O14797   7.890   8.459   9.847
 4852WAT     H114798   7.894   8.372   9.798
 4852WAT     H214799   7.974   8.511   9.832
 4853WAT      O14800   4.545   6.931   9.311
 4853WAT     H114801   4.488   6.892   9.384
 4853WAT     H214802   4.546   7.030   9.319
 4854WAT      O14803   8.516   4.836   4.523
 4854WAT     H114804   8.512   4.880   4.613
 4854WAT     H214805   8.492   4.739   4.533
 4855WAT      O14806   5.686   1.824   1.848
 4855WAT     H114807   5.785   1.832   1.859
 4855WAT     H214808   5.641   1.863   1.929
 4856WAT      O14809   7.773   8.990   6.209
 4856WAT     H114810   7.705   8.926   6.243
 4856WAT     H214811   7.851   8.940   6.172
 4857WAT      O14812   9.095   2.571   5.553
 4857WAT     H114813   9.133   2.657   5.518
 4857WAT     H214814   9.170   2.510   5.579
 4858WAT      O14815   6.330   0.393   9.530
 4858WAT     H114816   6.247   0.384   9.475
 4858WAT     H214817   6.405   0.345   9.484
 4859WAT      O14818   2.934   9.397   3.837
 4859WAT     H114819   2.882   9.431   3.759
 4859WAT     H214820   3.020   9.447   3.844
 4860WAT      O14821   0.149   1.434   6.859
 4860WAT     H114822   0.085   1.358   6.870
 4860WAT     H214823   0.227   1.405   6.805
 4861WAT      O14824   0.503   1.836   9.001
 4861WAT     H114825   0.463   1.759   8.951
 4861WAT     H214826   0.581   1.803   9.056
 4862WAT      O14827   5.692   3.421   1.761
 4862WAT     H114828   5.732   3.350   1.704
 4862WAT     H214829   5.661   3.381   1.848
 4863WAT      O14830   9.214   4.978   0.466
 4863WAT     H114831   9.303   4.948   0.431
 4863WAT     H214832   9.171   4.902   0.514
 4864WAT      O14833   6.513   2.567   9.484
 4864WAT     H114834   6.581   2.601   9.419
 4864WAT     H214835   6.421   2.587   9.450
 4865WAT      O14836   2.787   3.276   1.474
 4865WAT     H114837   2.789   3.370   1.509
 4865WAT     H214838   2.700   3.233   1.500
 4866WAT      O14839   6.495   5.327   3.035
 4866WAT     H114840   6.585   5.293   3.061
 4866WAT     H214841   6.430   5.251   3.032
 4867WAT      O14842   4.425   4.175   9.765
 4867WAT     H114843   4.422   4.128   9.677
 4867WAT     H214844   4.519   4.173   9.800
 4868WAT      O14845   9.481  -0.003   1.987
 4868WAT     H114846   9.560   0.047   1.951
 4868WAT     H214847   9.403   0.009   1.925
 4869WAT      O14848   1.980   3.041   7.280
 4869WAT     H114849   1.973   3.004   7.187
 4869WAT     H214850   2.028   2.976   7.338
 4870WAT      O14851   9.794   8.839   6.190
 4870WAT     H114852   9.711   8.876   6.148
 4870WAT     H214853   9.785   8.843   6.290
 4871WAT      O14854   0.835   5.749   7.357
 4871WAT     H114855   0.853   5.651   7.363
 4871WAT     H214856   0.920   5.799   7.375
 4872WAT      O14857   5.410   0.545   7.263
 4872WAT     H114858   5.462   0.628   7.283
 4872WAT     H214859   5.466   0.484   7.207
 4873WAT      O14860   3.172   9.340   9.170
 4873WAT     H114861   3.252   9.322   9.113
 4873WAT     H214862   3.107   9.396   9.118
 4874WAT      O14863   7.637   9.530   4.735
 4874WAT     H114864   7.688   9.450   4.766
 4874WAT     H214865   7.693   9.613   4.747
 4875WAT      O14866   8.042   2.955   0.240
 4875WAT     H114867   8.106   2.880   0.223
 4875WAT     H214868   7.996   2.941   0.327
 4876WAT      O14869   6.971   3.458   1.403
 4876WAT     H114870   6.898   3.408   1.357
 4876WAT     H214871   7.051   3.465   1.343
 4877WAT      O14872   5.074   8.544   3.870
 4877WAT     H114873   5.110   8.478   3.935
 4877WAT     H214874   5.145   8.570   3.804
 4878WAT      O14875   6.077   3.495   8.561
 4878WAT     H114876   6.142   3.569   8.546
 4878WAT     H214877   6.069   3.440   8.478
 4879WAT      O14878   9.719   5.782   6.999
 4879WAT     H114879   9.623   5.758   6.990
 4879WAT     H214880   9.773   5.699   7.012
 4880WAT      O14881   6.269   7.697   9.415
 4880WAT     H114882   6.346   7.672   9.356
 4880WAT     H214883   6.304   7.744   9.497
 4881WAT      O14884   6.513   3.409   7.148
 4881WAT     H114885   6.584   3.478   7.130
 4881WAT     H214886   6.556   3.324   7.177
 4882WAT      O14887   1.978   7.517   2.661
 4882WAT     H114888   1.918   7.595   2.679
 4882WAT     H214889   2.053   7.546   2.602
 4883WAT      O14890   2.941   4.156   2.942
 4883WAT     H114891   2.865   4.135   2.880
 4883WAT     H214892   2.975   4.072   2.982
 4884WAT      O14893   3.082   4.991   3.932
 4884WAT     H114894   2.982   4.983   3.926
 4884WAT     H214895   3.120   4.906   3.967
 4885WAT      O14896   9.263   0.974   5.850
 4885WAT     H114897   9.182   1.011   5.894
 4885WAT     H214898   9.322   1.049   5.820
 4886WAT      O14899   5.813   4.281   8.482
 4886WAT     H114900   5.855   4.269   8.392
 4886WAT     H214901   5.751   4.359   8.480
 4887WAT      O14902   3.607   6.581   4.446
 4887WAT     H114903   3.704   6.574   4.468
 4887WAT     H214904   3.566   6.490   4.447
 4888WAT      O14905   0.652   8.550   7.018
 4888WAT     H114906   0.729   8.547   6.953
 4888WAT     H214907   0.613   8.459   7.028
 4889WAT      O14908   3.706   6.692   4.865
 4889WAT     H114909   3.718   6.683   4.964
 4889WAT     H214910   3.692   6.602   4.825
 4890WAT      O14911   0.077   3.898   0.757
 4890WAT     H114912   0.073   3.923   0.854
 4890WAT     H214913  -0.015   3.884   0.722
 4891WAT      O14914   4.323   6.049   1.259
 4891WAT     H114915   4.327   6.065   1.358
 4891WAT     H214916   4.323   5.950   1.242
 4892WAT      O14917   8.915   6.699   9.621
 4892WAT     H114918   8.815   6.703   9.608
 4892WAT     H214919   8.937   6.624   9.684
 4893WAT      O14920   4.084   2.472   9.428
 4893WAT     H114921   4.110   2.379   9.402
 4893WAT     H214922   4.097   2.484   9.527
 4894WAT      O14923   8.220   6.854   6.856
 4894WAT     H114924   8.204   6.852   6.955
 4894WAT     H214925   8.318   6.854   6.838
 4895WAT      O14926   9.590   2.667   5.188
 4895WAT     H114927   9.674   2.617   5.212
 4895WAT     H214928   9.534   2.610   5.128
 4896WAT      O14929   8.407   8.273   3.483
 4896WAT     H114930   8.420   8.368   3.510
 4896WAT     H214931   8.467   8.251   3.407
 4897WAT      O14932   3.162   1.958   6.021
 4897WAT     H114933   3.146   1.880   6.081
 4897WAT     H214934   3.261   1.971   6.009
 4898WAT      O14935   0.886   6.908   3.700
 4898WAT     H114936   0.799   6.911   3.749
 4898WAT     H214937   0.954   6.858   3.754
 4899WAT      O14938   0.579   5.151   0.211
 4899WAT     H114939   0.512   5.219   0.240
 4899WAT     H214940   0.626   5.182   0.129
 4900WAT      O14941   7.682   4.285   0.120
 4900WAT     H114942   7.707   4.296   0.024
 4900WAT     H214943   7.629   4.364   0.151
 4901WAT      O14944   3.615   4.629   8.677
 4901WAT     H114945   3.695   4.689   8.680
 4901WAT     H214946   3.626   4.563   8.603
 4902WAT      O14947   7.206   3.938   2.179
 4902WAT     H114948   7.212   3.973   2.085
 4902WAT     H214949   7.119   3.965   2.219
 4903WAT      O14950   7.130   3.766   8.503
 4903WAT     H114951   7.072   3.772   8.422
 4903WAT     H214952   7.225   3.755   8.474
 4904WAT      O14953   9.733   4.480   5.070
 4904WAT     H114954   9.739   4.524   4.981
 4904WAT     H214955   9.768   4.386   5.063
 4905WAT      O14956   1.472   8.786   3.505
 4905WAT     H114957   1.381   8.815   3.476
 4905WAT     H214958   1.496   8.700   3.461
 4906WAT      O14959   3.474   0.616   6.574
 4906WAT     H114960   3.523   0.533   6.600
 4906WAT     H214961   3.455   0.614   6.476
 4907WAT      O14962   1.453   5.388   6.196
 4907WAT     H114963   1.551   5.372   6.185
 4907WAT     H214964   1.403   5.304   6.173
 4908WAT      O14965   8.607   1.737   6.988
 4908WAT     H114966   8.602   1.823   7.039
 4908WAT     H214967   8.548   1.743   6.907
 4909WAT      O14968   6.053   8.143   1.271
 4909WAT     H114969   6.047   8.056   1.221
 4909WAT     H214970   6.137   8.144   1.325
 4910WAT      O14971   3.021   7.227   0.148
 4910WAT     H114972   3.034   7.252   0.051
 4910WAT     H214973   2.932   7.259   0.179
 4911WAT      O14974   2.672   9.229   1.003
 4911WAT     H114975   2.738   9.245   0.930
 4911WAT     H214976   2.590   9.185   0.965
 4912WAT      O14977   7.428   3.046   4.173
 4912WAT     H114978   7.454   3.128   4.225
 4912WAT     H214979   7.481   2.967   4.206
 4913WAT      O14980   3.022   0.425   1.938
 4913WAT     H114981   3.069   0.415   2.026
 4913WAT     H214982   2.923   0.423   1.951
 4914WAT      O14983   7.973   7.105   5.129
 4914WAT     H114984   8.027   7.081   5.049
 4914WAT     H214985   8.024   7.169   5.186
 4915WAT      O14986   6.562   1.838   9.166
 4915WAT     H114987   6.639   1.806   9.111
 4915WAT     H214988   6.511   1.759   9.201
 4916WAT      O14989   2.515   4.240   5.744
 4916WAT     H114990   2.534   4.337   5.762
 4916WAT     H214991   2.471   4.231   5.655
 4917WAT      O14992   1.290   2.305   9.849
 4917WAT     H114993   1.263   2.250   9.928
 4917WAT     H214994   1.372   2.266   9.808
 4918WAT      O14995   2.480   8.756   6.801
 4918WAT     H114996   2.536   8.839   6.796
 4918WAT     H214997   2.516   8.687   6.738
 4919WAT      O14998   7.225   8.349   3.888
 4919WAT     H114999   7.311   8.302   3.868
 4919WAT     H215000   7.209   8.351   3.986
 4920WAT      O15001   4.464   2.266   3.255
 4920WAT     H115002   4.414   2.326   3.193
 4920WAT     H215003   4.545   2.314   3.289
 4921WAT      O15004   6.187   6.472   8.486
 4921WAT     H115005   6.114   6.409   8.514
 4921WAT     H215006   6.152   6.536   8.419
 4922WAT      O15007   7.920   5.683   3.536
 4922WAT     H115008   7.855   5.639   3.598
 4922WAT     H215009   7.886   5.773   3.511
 4923WAT      O15010   1.296   6.200   7.684
 4923WAT     H115011   1.365   6.182   7.614
 4923WAT     H215012   1.230   6.125   7.685
 4924WAT      O15013   5.447   2.503   7.791
 4924WAT     H115014   5.544   2.489   7.776
 4924WAT     H215015   5.400   2.510   7.703
 4925WAT      O15016   1.138   9.288   7.324
 4925WAT     H115017   1.068   9.230   7.365
 4925WAT     H215018   1.121   9.383   7.350
 4926WAT      O15019   6.240   9.426   9.578
 4926WAT     H115020   6.295   9.377   9.511
 4926WAT     H215021   6.162   9.370   9.606
 4927WAT      O15022   8.142   2.119   7.864
 4927WAT     H115023   8.098   2.208   7.856
 4927WAT     H215024   8.205   2.120   7.942
 4928WAT      O15025   7.240   7.083   2.224
 4928WAT     H115026   7.248   7.055   2.320
 4928WAT     H215027   7.151   7.125   2.209
 4929WAT      O15028   5.285   9.694   3.581
 4929WAT     H115029   5.213   9.631   3.611
 4929WAT     H215030   5.356   9.643   3.534
 4930WAT      O15031   7.537   4.799   2.130
 4930WAT     H115032   7.589   4.806   2.215
 4930WAT     H215033   7.443   4.770   2.150
 4931WAT      O15034   7.633   5.747   8.461
 4931WAT     H115035   7.634   5.689   8.543
 4931WAT     H215036   7.585   5.832   8.482
 4932WAT      O15037   9.670   4.700   5.479
 4932WAT     H115038   9.643   4.785   5.433
 4932WAT     H215039   9.624   4.695   5.567
 4933WAT      O15040   9.377   5.720   9.118
 4933WAT     H115041   9.463   5.669   9.124
 4933WAT     H215042   9.313   5.686   9.187
 4934WAT      O15043   3.711   9.615   4.122
 4934WAT     H115044   3.677   9.526   4.090
 4934WAT     H215045   3.787   9.645   4.064
 4935WAT      O15046   4.787   9.572   6.996
 4935WAT     H115047   4.808   9.563   7.094
 4935WAT     H215048   4.762   9.483   6.959
 4936WAT      O15049   3.020   7.706   5.460
 4936WAT     H115050   3.109   7.702   5.415
 4936WAT     H215051   3.030   7.685   5.557
 4937WAT      O15052   0.716   6.961   4.136
 4937WAT     H115053   0.669   7.022   4.073
 4937WAT     H215054   0.648   6.912   4.191
 4938WAT      O15055   1.303   6.355   7.321
 4938WAT     H115056   1.293   6.256   7.314
 4938WAT     H215057   1.391   6.377   7.364
 4939WAT      O15058   1.478   7.060   8.695
 4939WAT     H115059   1.428   7.146   8.694
 4939WAT     H215060   1.416   6.985   8.719
 4940WAT      O15061   8.591   0.854   8.581
 4940WAT     H115062   8.603   0.945   8.541
 4940WAT     H215063   8.548   0.793   8.514
 4941WAT      O15064   7.116   9.676   0.078
 4941WAT     H115065   7.060   9.758   0.085
 4941WAT     H215066   7.198   9.687   0.134
 4942WAT      O15067   9.052   9.713   9.557
 4942WAT     H115068   9.102   9.754   9.481
 4942WAT     H215069   8.988   9.645   9.522
 4943WAT      O15070   9.664   9.448   2.176
 4943WAT     H115071   9.688   9.465   2.272
 4943WAT     H215072   9.588   9.507   2.149
 4944WAT      O15073   7.789   4.254   7.401
 4944WAT     H115074   7.711   4.192   7.410
 4944WAT     H215075   7.831   4.268   7.491
 4945WAT      O15076   3.973   8.002   6.622
 4945WAT     H115077   3.976   7.903   6.631
 4945WAT     H215078   3.968   8.027   6.525
 4946WAT      O15079   8.711   2.191   2.597
 4946WAT     H115080   8.719   2.277   2.648
 4946WAT     H215081   8.658   2.206   2.514
 4947WAT      O15082   5.395   1.608   3.538
 4947WAT     H115083   5.428   1.569   3.452
 4947WAT     H215084   5.438   1.561   3.615
 4948WAT      O15085   9.365   3.087   5.155
 4948WAT     H115086   9.379   3.004   5.102
 4948WAT     H215087   9.350   3.063   5.251
 4949WAT      O15088   1.728   3.414   9.680
 4949WAT     H115089   1.705   3.320   9.656
 4949WAT     H215090   1.826   3.421   9.701
 4950WAT      O15091   7.305   7.940   9.490
 4950WAT     H115092   7.354   7.916   9.406
 4950WAT     H215093   7.269   8.033   9.483
 4951WAT      O15094   0.351   2.946   2.365
 4951WAT     H115095   0.302   2.953   2.278
 4951WAT     H215096   0.362   2.850   2.390
 4952WAT      O15097   6.191   7.260   6.794
 4952WAT     H115098   6.240   7.308   6.867
 4952WAT     H215099   6.136   7.187   6.834
 4953WAT      O15100   3.711   5.095   1.934
 4953WAT     H115101   3.653   5.018   1.959
 4953WAT     H215102   3.712   5.162   2.008
 4954WAT      O15103   0.979   0.177   9.122
 4954WAT     H115104   0.928   0.209   9.042
 4954WAT     H215105   1.056   0.239   9.139
 4955WAT      O15106   4.836   5.479   7.865
 4955WAT     H115107   4.869   5.536   7.940
 4955WAT     H215108   4.912   5.427   7.827
 4956WAT      O15109   3.054   3.238   8.454
 4956WAT     H115110   2.964   3.253   8.495
 4956WAT     H215111   3.067   3.302   8.379
 4957WAT      O15112   4.244   1.329   1.748
 4957WAT     H115113   4.299   1.367   1.674
 4957WAT     H215114   4.209   1.403   1.805
 4958WAT      O15115   5.802   2.427   1.795
 4958WAT     H115116   5.792   2.519   1.832
 4958WAT     H215117   5.736   2.414   1.720
 4959WAT      O15118   0.037   1.243   8.873
 4959WAT     H115119  -0.062   1.240   8.881
 4959WAT     H215120   0.064   1.232   8.778
 4960WAT      O15121   2.396   5.174   3.327
 4960WAT     H115122   2.319   5.138   3.275
 4960WAT     H215123   2.454   5.098   3.357
 4961WAT      O15124   0.339   7.849   1.672
 4961WAT     H115125   0.278   7.834   1.750
 4961WAT     H215126   0.400   7.770   1.663
 4962WAT      O15127   3.940   8.086   6.324
 4962WAT     H115128   3.889   8.172   6.323
 4962WAT     H215129   4.036   8.103   6.303
 4963WAT      O15130   2.176   7.118   0.448
 4963WAT     H115131   2.089   7.087   0.488
 4963WAT     H215132   2.179   7.218   0.447
 4964WAT      O15133   5.469   4.474   1.249
 4964WAT     H115134   5.442   4.542   1.182
 4964WAT     H215135   5.442   4.383   1.217
 4965WAT      O15136   8.051   8.887   0.469
 4965WAT     H115137   7.954   8.910   0.457
 4965WAT     H215138   8.103   8.969   0.491
 4966WAT      O15139   2.460   0.545   6.259
 4966WAT     H115140   2.518   0.626   6.254
 4966WAT     H215141   2.437   0.515   6.167
 4967WAT      O15142   3.342   0.988   0.165
 4967WAT     H115143   3.244   0.993   0.184
 4967WAT     H215144   3.382   0.912   0.217
 4968WAT      O15145   0.982   1.696   8.234
 4968WAT     H115146   1.018   1.608   8.265
 4968WAT     H215147   1.058   1.757   8.209
 4969WAT      O15148   4.541   9.186   8.706
 4969WAT     H115149   4.484   9.225   8.633
 4969WAT     H215150   4.612   9.129   8.666
 4970WAT      O15151   8.513   6.418   4.321
 4970WAT     H115152   8.449   6.492   4.304
 4970WAT     H215153   8.496   6.379   4.411
 4971WAT      O15154   9.676   6.445   7.479
 4971WAT     H115155   9.742   6.504   7.525
 4971WAT     H215156   9.707   6.426   7.386
 4972WAT      O15157   9.230   3.035   8.657
 4972WAT     H115158   9.301   2.993   8.714
 4972WAT     H215159   9.144   3.038   8.708
 4973WAT      O15160   1.026   6.311   9.054
 4973WAT     H115161   1.035   6.383   8.987
 4973WAT     H215162   1.116   6.270   9.071
 4974WAT      O15163   6.029   3.152   1.132
 4974WAT     H115164   6.121   3.121   1.157
 4974WAT     H215165   6.033   3.203   1.046
 4975WAT      O15166   9.187   0.138   5.264
 4975WAT     H115167   9.263   0.074   5.276
 4975WAT     H215168   9.222   0.231   5.262
 4976WAT      O15169   9.663   5.704   1.324
 4976WAT     H115170   9.632   5.799   1.331
 4976WAT     H215171   9.588   5.642   1.350
 4977WAT      O15172   5.215   2.898   9.168
 4977WAT     H115173   5.253   2.989   9.150
 4977WAT     H215174   5.165   2.866   9.088
 4978WAT      O15175   1.691   2.215   8.271
 4978WAT     H115176   1.765   2.210   8.338
 4978WAT     H215177   1.724   2.263   8.189
 4979WAT      O15178   1.976   0.160   9.244
 4979WAT     H115179   1.892   0.212   9.229
 4979WAT     H215180   2.043   0.217   9.291
 4980WAT      O15181   8.918   5.324   4.941
 4980WAT     H115182   8.863   5.408   4.938
 4980WAT     H215183   9.001   5.340   4.994
 4981WAT      O15184   8.827   6.754   8.057
 4981WAT     H115185   8.772   6.695   8.116
 4981WAT     H215186   8.830   6.717   7.964
 4982WAT      O15187   8.898   4.501   3.113
 4982WAT     H115188   8.800   4.500   3.133
 4982WAT     H215189   8.938   4.587   3.144
 4983WAT      O15190   0.372   0.231   1.087
 4983WAT     H115191   0.371   0.329   1.066
 4983WAT     H215192   0.357   0.180   1.003
 4984WAT      O15193   0.108   3.165   6.489
 4984WAT     H115194   0.032   3.225   6.516
 4984WAT     H215195   0.103   3.149   6.391
 4985WAT      O15196   5.263   5.521   6.166
 4985WAT     H115197   5.233   5.425   6.163
 4985WAT     H215198   5.264   5.558   6.073
 4986WAT      O15199   5.727   5.125   2.414
 4986WAT     H115200   5.683   5.048   2.369
 4986WAT     H215201   5.672   5.207   2.402
 4987WAT      O15202   3.440   0.323   4.131
 4987WAT     H115203   3.405   0.366   4.214
 4987WAT     H215204   3.365   0.311   4.066
 4988WAT      O15205   7.338   1.520   9.700
 4988WAT     H115206   7.401   1.442   9.692
 4988WAT     H215207   7.290   1.533   9.613
 4989WAT      O15208   8.879   2.041   0.276
 4989WAT     H115209   8.958   2.078   0.323
 4989WAT     H215210   8.886   1.941   0.272
 4990WAT      O15211   9.206   1.470   8.588
 4990WAT     H115212   9.233   1.420   8.506
 4990WAT     H215213   9.148   1.412   8.645
 4991WAT      O15214   3.677   0.014   1.406
 4991WAT     H115215   3.597  -0.016   1.355
 4991WAT     H215216   3.651   0.087   1.469
 4992WAT      O15217   3.776   8.664   1.670
 4992WAT     H115218   3.867   8.676   1.710
 4992WAT     H215219   3.785   8.623   1.579
 4993WAT      O15220   0.123   0.156   6.231
 4993WAT     H115221   0.028   0.145   6.262
 4993WAT     H215222   0.143   0.088   6.161
 4994WAT      O15223   6.000   5.320   8.549
 4994WAT     H115224   6.066   5.382   8.506
 4994WAT     H215225   5.939   5.373   8.608
 4995WAT      O15226   2.264   8.659   2.031
 4995WAT     H115227   2.273   8.733   1.965
 4995WAT     H215228   2.207   8.586   1.993
 4996WAT      O15229   6.444   1.337   4.513
 4996WAT     H115230   6.405   1.267   4.453
 4996WAT     H215231   6.481   1.294   4.595
 4997WAT      O15232   1.705   8.238   5.540
 4997WAT     H115233   1.706   8.255   5.442
 4997WAT     H215234   1.795   8.202   5.569
 4998WAT      O15235   9.417   2.838   4.083
 4998WAT     H115236   9.399   2.936   4.091
 4998WAT     H215237   9.463   2.819   3.996
 4999WAT      O15238   6.604   1.325   3.713
 4999WAT     H115239   6.589   1.239   3.761
 4999WAT     H215240   6.647   1.306   3.624
 5000WAT      O15241   0.157   1.623   5.329
 5000WAT     H115242   0.232   1.574   5.374
 5000WAT     H215243   0.193   1.708   5.290
 5001WAT      O15244   0.880   1.668   9.311
 5001WAT     H115245   0.891   1.731   9.387
 5001WAT     H215246   0.896   1.574   9.343
 5002WAT      O15247   6.015   6.375   5.978
 5002WAT     H115248   6.024   6.423   6.066
 5002WAT     H215249   5.957   6.429   5.917
 5003WAT      O15250   0.366   7.828   6.734
 5003WAT     H115251   0.388   7.801   6.640
 5003WAT     H215252   0.282   7.781   6.763
 5004WAT      O15253   7.201   2.594   5.512
 5004WAT     H115254   7.283   2.636   5.552
 5004WAT     H215255   7.160   2.658   5.447
 5005WAT      O15256   8.145   6.089   0.748
 5005WAT     H115257   8.112   6.013   0.803
 5005WAT     H215258   8.119   6.175   0.792
 5006WAT      O15259   4.458   3.525   6.934
 5006WAT     H115260   4.402   3.540   6.852
 5006WAT     H215261   4.451   3.605   6.994
 5007WAT      O15262   6.893   7.354   3.161
 5007WAT     H115263   6.913   7.261   3.131
 5007WAT     H215264   6.795   7.372   3.150
 5008WAT      O15265   0.378   6.128   3.157
 5008WAT     H115266   0.288   6.106   3.119
 5008WAT     H215267   0.404   6.221   3.129
 5009WAT      O15268   8.090   5.801   5.121
 5009WAT     H115269   8.086   5.835   5.027
 5009WAT     H215270   8.179   5.823   5.161
 5010WAT      O15271   6.691   2.505   1.056
 5010WAT     H115272   6.742   2.591   1.047
 5010WAT     H215273   6.616   2.504   0.991
 5011WAT      O15274   0.950   1.168   4.464
 5011WAT     H115275   0.951   1.159   4.364
 5011WAT     H215276   0.988   1.085   4.505
 5012WAT      O15277   7.558   5.384   5.680
 5012WAT     H115278   7.568   5.474   5.637
 5012WAT     H215279   7.500   5.326   5.623
 5013WAT      O15280   6.689   2.786   5.425
 5013WAT     H115281   6.748   2.808   5.347
 5013WAT     H215282   6.742   2.732   5.492
 5014WAT      O15283   0.343   9.427   8.283
 5014WAT     H115284   0.433   9.454   8.249
 5014WAT     H215285   0.335   9.328   8.281
 5015WAT      O15286   6.895   1.358   9.861
 5015WAT     H115287   6.899   1.265   9.824
 5015WAT     H215288   6.981   1.405   9.841
 5016WAT      O15289   1.261   5.502   4.563
 5016WAT     H115290   1.306   5.576   4.513
 5016WAT     H215291   1.257   5.421   4.505
 5017WAT      O15292   4.354   3.729   3.018
 5017WAT     H115293   4.410   3.794   3.068
 5017WAT     H215294   4.369   3.739   2.920
 5018WAT      O15295   8.154   1.830   8.027
 5018WAT     H115296   8.139   1.780   7.942
 5018WAT     H215297   8.220   1.903   8.011
 5019WAT      O15298   1.019   6.766   9.003
 5019WAT     H115299   0.973   6.705   9.068
 5019WAT     H215300   1.104   6.801   9.043
 5020WAT      O15301   3.537   8.256   1.708
 5020WAT     H115302   3.620   8.220   1.751
 5020WAT     H215303   3.553   8.351   1.681
 5021WAT      O15304   0.446   9.553   6.957
 5021WAT     H115305   0.388   9.553   6.875
 5021WAT     H215306   0.522   9.490   6.944
 5022WAT      O15307   6.252   7.130   7.410
 5022WAT     H115308   6.213   7.125   7.502
 5022WAT     H215309   6.350   7.112   7.414
 5023WAT      O15310   1.675   8.856   0.852
 5023WAT     H115311   1.640   8.903   0.771
 5023WAT     H215312   1.748   8.911   0.893
 5024WAT      O15313   5.448   2.995   4.224
 5024WAT     H115314   5.350   3.013   4.226
 5024WAT     H215315   5.474   2.939   4.303
 5025WAT      O15316   4.791   0.122   0.366
 5025WAT     H115317   4.762   0.057   0.296
 5025WAT     H215318   4.838   0.199   0.322
 5026WAT      O15319   5.286   0.160   6.265
 5026WAT     H115320   5.248   0.185   6.176
 5026WAT     H215321   5.288   0.061   6.274
 5027WAT      O15322   1.202   0.289   6.111
 5027WAT     H115323   1.209   0.202   6.160
 5027WAT     H215324   1.200   0.365   6.177
 5028WAT      O15325   6.529   2.307   6.346
 5028WAT     H115326   6.438   2.348   6.334
 5028WAT     H215327   6.599   2.373   6.318
 5029WAT      O15328   3.192   6.396   3.591
 5029WAT     H115329   3.177   6.297   3.588
 5029WAT     H215330   3.265   6.417   3.656
 5030WAT      O15331   5.889   6.745   7.427
 5030WAT     H115332   5.988   6.758   7.432
 5030WAT     H215333   5.844   6.807   7.492
 5031WAT      O15334   0.809   9.699   0.408
 5031WAT     H115335   0.895   9.737   0.376
 5031WAT     H215336   0.751   9.773   0.443
 5032WAT      O15337   7.588   0.541   0.838
 5032WAT     H115338   7.520   0.479   0.876
 5032WAT     H215339   7.679   0.501   0.849
 5033WAT      O15340   6.178   6.521   3.310
 5033WAT     H115341   6.240   6.466   3.366
 5033WAT     H215342   6.125   6.582   3.370
 5034WAT      O15343   5.932   9.650   9.891
 5034WAT     H115344   5.841   9.610   9.907
 5034WAT     H215345   6.000   9.577   9.891
 5035WAT      O15346   1.674   5.720   8.249
 5035WAT     H115347   1.699   5.710   8.345
 5035WAT     H215348   1.731   5.660   8.193
 5036WAT      O15349   4.140   1.349   7.975
 5036WAT     H115350   4.202   1.323   7.901
 5036WAT     H215351   4.075   1.274   7.991
 5037WAT      O15352   8.626   0.450   3.984
 5037WAT     H115353   8.555   0.392   4.024
 5037WAT     H215354   8.705   0.455   4.045
 5038WAT      O15355   2.558   1.900   2.826
 5038WAT     H115356   2.610   1.821   2.858
 5038WAT     H215357   2.609   1.983   2.844
 5039WAT      O15358   1.559   7.823   4.692
 5039WAT     H115359   1.517   7.801   4.781
 5039WAT     H215360   1.492   7.807   4.619
 5040WAT      O15361   3.916   2.165   8.755
 5040WAT     H115362   3.886   2.245   8.807
 5040WAT     H215363   3.975   2.108   8.811
 5041WAT      O15364   4.402   4.317   2.211
 5041WAT     H115365   4.451   4.403   2.218
 5041WAT     H215366   4.355   4.312   2.122
 5042WAT      O15367   9.060   7.125   8.019
 5042WAT     H115368   8.985   7.164   7.965
 5042WAT     H215369   9.086   7.036   7.981
 5043WAT      O15370   2.125   8.781   7.344
 5043WAT     H115371   2.078   8.693   7.339
 5043WAT     H215372   2.179   8.786   7.428
 5044WAT      O15373   4.301   6.714   7.195
 5044WAT     H115374   4.349   6.631   7.223
 5044WAT     H215375   4.210   6.690   7.162
 5045WAT      O15376   8.603   9.213   4.060
 5045WAT     H115377   8.599   9.290   4.124
 5045WAT     H215378   8.523   9.155   4.072
 5046WAT      O15379   9.403   5.351   8.240
 5046WAT     H115380   9.334   5.353   8.167
 5046WAT     H215381   9.368   5.297   8.316
 5047WAT      O15382   7.400   1.865   4.270
 5047WAT     H115383   7.328   1.798   4.284
 5047WAT     H215384   7.391   1.939   4.337
 5048WAT      O15385   0.950   3.826   7.523
 5048WAT     H115386   1.029   3.833   7.463
 5048WAT     H215387   0.980   3.835   7.618
 5049WAT      O15388   0.023   2.958   9.750
 5049WAT     H115389  -0.065   2.964   9.703
 5049WAT     H215390   0.092   3.012   9.700
 5050WAT      O15391   6.620   2.166   8.313
 5050WAT     H115392   6.531   2.163   8.269
 5050WAT     H215393   6.690   2.134   8.250
 5051WAT      O15394   2.067   1.123   3.741
 5051WAT     H115395   1.979   1.087   3.771
 5051WAT     H215396   2.053   1.192   3.670
 5052WAT      O15397   2.299   0.801   7.531
 5052WAT     H115398   2.236   0.783   7.607
 5052WAT     H215399   2.329   0.896   7.536
 5053WAT      O15400   3.124   4.364   8.877
 5053WAT     H115401   3.170   4.444   8.916
 5053WAT     H215402   3.113   4.294   8.947
 5054WAT      O15403   2.327   8.063   5.697
 5054WAT     H115404   2.316   8.072   5.796
 5054WAT     H215405   2.398   8.127   5.667
 5055WAT      O15406   2.562   0.638   2.934
 5055WAT     H115407   2.646   0.618   2.885
 5055WAT     H215408   2.483   0.616   2.877
 5056WAT      O15409   5.430   3.594   0.095
 5056WAT     H115410   5.506   3.655   0.075
 5056WAT     H215411   5.382   3.626   0.177
 5057WAT      O15412   0.377   0.201   0.293
 5057WAT     H115413   0.371   0.299   0.314
 5057WAT     H215414   0.468   0.167   0.318
 5058WAT      O15415   1.027   5.081   6.370
 5058WAT     H115416   0.973   5.052   6.449
 5058WAT     H215417   0.972   5.071   6.286
 5059WAT      O15418   1.265   1.129   1.875
 5059WAT     H115419   1.349   1.147   1.825
 5059WAT     H215420   1.288   1.097   1.967
 5060WAT      O15421   1.011   0.011   4.520
 5060WAT     H115422   1.095   0.050   4.482
 5060WAT     H215423   1.033  -0.073   4.569
 5061WAT      O15424   0.203   2.372   8.133
 5061WAT     H115425   0.184   2.273   8.138
 5061WAT     H215426   0.292   2.391   8.174
 5062WAT      O15427   0.785   5.045   2.129
 5062WAT     H115428   0.714   5.008   2.070
 5062WAT     H215429   0.749   5.058   2.221
 5063WAT      O15430   8.769   6.600   5.646
 5063WAT     H115431   8.827   6.580   5.566
 5063WAT     H215432   8.792   6.536   5.719
 5064WAT      O15433   7.025   4.665   6.248
 5064WAT     H115434   6.991   4.691   6.339
 5064WAT     H215435   7.124   4.676   6.246
 5065WAT      O15436   8.627   8.626   5.382
 5065WAT     H115437   8.622   8.545   5.325
 5065WAT     H215438   8.552   8.688   5.359
 5066WAT      O15439   1.915   6.307   7.355
 5066WAT     H115440   1.867   6.279   7.272
 5066WAT     H215441   1.853   6.361   7.413
 5067WAT      O15442   7.518   8.295   3.202
 5067WAT     H115443   7.575   8.332   3.276
 5067WAT     H215444   7.551   8.203   3.178
 5068WAT      O15445   4.339   7.777   3.538
 5068WAT     H115446   4.262   7.811   3.484
 5068WAT     H215447   4.418   7.836   3.525
 5069WAT      O15448   1.594   2.054   5.827
 5069WAT     H115449   1.535   2.108   5.888
 5069WAT     H215450   1.603   1.961   5.862
 5070WAT      O15451   2.748   9.124   6.109
 5070WAT     H115452   2.822   9.183   6.143
 5070WAT     H215453   2.786   9.056   6.046
 5071WAT      O15454   7.028   8.027   9.072
 5071WAT     H115455   7.084   8.073   9.141
 5071WAT     H215456   7.087   7.991   9.000
 5072WAT      O15457   2.782   2.973   5.584
 5072WAT     H115458   2.846   2.974   5.507
 5072WAT     H215459   2.735   2.885   5.589
 5073WAT      O15460   9.461   9.497   3.548
 5073WAT     H115461   9.400   9.518   3.471
 5073WAT     H215462   9.555   9.521   3.524
 5074WAT      O15463   3.574   2.429   8.028
 5074WAT     H115464   3.510   2.448   7.954
 5074WAT     H215465   3.600   2.515   8.073
 5075WAT      O15466   1.145   7.879   8.767
 5075WAT     H115467   1.070   7.845   8.823
 5075WAT     H215468   1.232   7.863   8.813
 5076WAT      O15469   9.872   5.345   7.780
 5076WAT     H115470   9.860   5.442   7.758
 5076WAT     H215471   9.969   5.327   7.797
 5077WAT      O15472   3.408   4.693   0.700
 5077WAT     H115473   3.384   4.605   0.741
 5077WAT     H215474   3.457   4.677   0.614
 5078WAT      O15475   9.755   7.082   1.779
 5078WAT     H115476   9.844   7.103   1.739
 5078WAT     H215477   9.768   7.025   1.860
 5079WAT      O15478   7.155   2.579   8.414
 5079WAT     H115479   7.119   2.668   8.386
 5079WAT     H215480   7.255   2.586   8.424
 5080WAT      O15481   3.568   2.912   3.169
 5080WAT     H115482   3.532   2.987   3.114
 5080WAT     H215483   3.533   2.825   3.135
 5081WAT      O15484   4.174   5.422   7.623
 5081WAT     H115485   4.203   5.331   7.594
 5081WAT     H215486   4.198   5.435   7.719
 5082WAT      O15487   4.553   6.045   5.676
 5082WAT     H115488   4.617   6.108   5.720
 5082WAT     H215489   4.596   5.956   5.665
 5083WAT      O15490   2.995   6.255   0.358
 5083WAT     H115491   3.048   6.225   0.278
 5083WAT     H215492   2.956   6.175   0.404
 5084WAT      O15493   7.666   5.286   3.356
 5084WAT     H115494   7.655   5.377   3.397
 5084WAT     H215495   7.594   5.225   3.390
 5085WAT      O15496   7.130   8.211   5.091
 5085WAT     H115497   7.125   8.310   5.095
 5085WAT     H215498   7.210   8.178   5.141
 5086WAT      O15499   2.351   8.704   5.609
 5086WAT     H115500   2.378   8.768   5.536
 5086WAT     H215501   2.424   8.701   5.677
 5087WAT      O15502   6.983   8.823   4.194
 5087WAT     H115503   7.029   8.866   4.116
 5087WAT     H215504   7.017   8.863   4.279
 5088WAT      O15505   3.958   1.512   9.718
 5088WAT     H115506   3.905   1.594   9.737
 5088WAT     H215507   4.039   1.537   9.664
 5089WAT      O15508   4.074   2.256   4.792
 5089WAT     H115509   3.996   2.319   4.798
 5089WAT     H215510   4.116   2.264   4.702
 5090WAT      O15511   6.442   7.175   6.685
 5090WAT     H115512   6.461   7.224   6.600
 5090WAT     H215513   6.348   7.192   6.713
 5091WAT      O15514   4.938   1.094   6.666
 5091WAT     H115515   4.969   1.043   6.746
 5091WAT     H215516   4.917   1.188   6.693
 5092WAT      O15517   0.404   3.877   0.876
 5092WAT     H115518   0.451   3.879   0.964
 5092WAT     H215519   0.434   3.955   0.820
 5093WAT      O15520   7.782   9.509   8.255
 5093WAT     H115521   7.774   9.421   8.209
 5093WAT     H215522   7.750   9.501   8.349
 5094WAT      O15523   0.076   8.094   6.648
 5094WAT     H115524   0.114   8.116   6.737
 5094WAT     H215525   0.038   8.176   6.606
 5095WAT      O15526   5.433   5.752   0.261
 5095WAT     H115527   5.408   5.738   0.356
 5095WAT     H215528   5.532   5.742   0.250
 5096WAT      O15529   3.413   6.768   1.496
 5096WAT     H115530   3.466   6.770   1.580
 5096WAT     H215531   3.377   6.676   1.482
 5097WAT      O15532   6.817   5.707   8.127
 5097WAT     H115533   6.845   5.648   8.202
 5097WAT     H215534   6.773   5.653   8.055
 5098WAT      O15535   7.245   5.157   4.657
 5098WAT     H115536   7.233   5.156   4.558
 5098WAT     H215537   7.280   5.069   4.688
 5099WAT      O15538   7.435   7.700   6.263
 5099WAT     H115539   7.354   7.678   6.318
 5099WAT     H215540   7.406   7.724   6.170
 5100WAT      O15541   2.664   4.074   5.460
 5100WAT     H115542   2.689   4.018   5.539
 5100WAT     H215543   2.746   4.113   5.419
 5101WAT      O15544   7.768   8.897   6.678
 5101WAT     H115545   7.685   8.946   6.702
 5101WAT     H215546   7.831   8.958   6.630
 5102WAT      O15547   8.465   6.559   0.417
 5102WAT     H115548   8.366   6.577   0.417
 5102WAT     H215549   8.489   6.506   0.498
 5103WAT      O15550   2.908   0.287   4.608
 5103WAT     H115551   2.816   0.314   4.637
 5103WAT     H215552   2.952   0.363   4.561
 5104WAT      O15553   5.660   2.875   2.075
 5104WAT     H115554   5.593   2.946   2.094
 5104WAT     H215555   5.614   2.787   2.068
 5105WAT      O15556   3.492   1.656   0.146
 5105WAT     H115557   3.446   1.716   0.081
 5105WAT     H215558   3.590   1.673   0.143
 5106WAT      O15559   2.771   1.873   3.042
 5106WAT     H115560   2.733   1.853   3.133
 5106WAT     H215561   2.734   1.960   3.009
 5107WAT      O15562   9.379   8.724   5.743
 5107WAT     H115563   9.431   8.652   5.789
 5107WAT     H215564   9.324   8.683   5.670
 5108WAT      O15565   1.885   8.408   0.184
 5108WAT     H115566   1.938   8.380   0.265
 5108WAT     H215567   1.931   8.375   0.102
 5109WAT      O15568   3.808   1.903   8.877
 5109WAT     H115569   3.814   1.973   8.805
 5109WAT     H215570   3.742   1.932   8.946
 5110WAT      O15571   1.395   2.165   4.132
 5110WAT     H115572   1.399   2.153   4.232
 5110WAT     H215573   1.325   2.104   4.094
 5111WAT      O15574   1.627   5.152   7.141
 5111WAT     H115575   1.719   5.191   7.132
 5111WAT     H215576   1.627   5.057   7.109
 5112WAT      O15577   0.969   7.573   7.964
 5112WAT     H115578   0.934   7.666   7.953
 5112WAT     H215579   1.068   7.574   7.949
 5113WAT      O15580   1.133   5.467   7.391
 5113WAT     H115581   1.167   5.376   7.368
 5113WAT     H215582   1.165   5.532   7.322
 5114WAT      O15583   2.344   0.145   1.255
 5114WAT     H115584   2.361   0.049   1.276
 5114WAT     H215585   2.302   0.190   1.334
 5115WAT      O15586   1.134   7.465   0.436
 5115WAT     H115587   1.210   7.408   0.469
 5115WAT     H215588   1.165   7.518   0.357
 5116WAT      O15589   6.163   1.418   9.358
 5116WAT     H115590   6.211   1.470   9.428
 5116WAT     H215591   6.129   1.332   9.398
 5117WAT      O15592   5.297   3.556   9.769
 5117WAT     H115593   5.344   3.571   9.855
 5117WAT     H215594   5.355   3.502   9.708
 5118WAT      O15595   5.549   0.185   1.620
 5118WAT     H115596   5.470   0.126   1.634
 5118WAT     H215597   5.601   0.192   1.706
 5119WAT      O15598   5.627   2.433   5.237
 5119WAT     H115599   5.689   2.368   5.282
 5119WAT     H215600   5.564   2.470   5.305
 5120WAT      O15601   0.712   4.061   7.928
 5120WAT     H115602   0.660   4.119   7.991
 5120WAT     H215603   0.736   4.114   7.846
 5121WAT      O15604   7.332   2.308   2.998
 5121WAT     H115605   7.382   2.230   3.035
 5121WAT     H215606   7.373   2.336   2.912
 5122WAT      O15607   8.561   4.886   2.446
 5122WAT     H115608   8.517   4.804   2.483
 5122WAT     H215609   8.635   4.860   2.384
 5123WAT      O15610   4.659   2.980   0.772
 5123WAT     H115611   4.649   2.911   0.844
 5123WAT     H215612   4.739   2.959   0.716
 5124WAT      O15613   2.966   2.604   9.362
 5124WAT     H115614   2.968   2.674   9.291
 5124WAT     H215615   2.874   2.596   9.399
 5125WAT      O15616   3.815   2.721   0.812
 5125WAT     H115617   3.835   2.710   0.910
 5125WAT     H215618   3.717   2.736   0.800
 5126WAT      O15619   7.072   7.976   7.319
 5126WAT     H115620   7.105   7.914   7.248
 5126WAT     H215621   7.133   7.971   7.399
 5127WAT      O15622   4.488   5.126   6.758
 5127WAT     H115623   4.395   5.118   6.794
 5127WAT     H215624   4.512   5.041   6.711
 5128WAT      O15625   0.933   6.290   5.574
 5128WAT     H115626   0.868   6.220   5.604
 5128WAT     H215627   0.918   6.374   5.627
 5129WAT      O15628   0.822   4.464   8.443
 5129WAT     H115629   0.725   4.446   8.457
 5129WAT     H215630   0.875   4.413   8.511
 5130WAT      O15631   7.968   5.705   9.786
 5130WAT     H115632   7.970   5.635   9.714
 5130WAT     H215633   7.988   5.662   9.874
 5131WAT      O15634   3.703   5.194   2.666
 5131WAT     H115635   3.637   5.158   2.732
 5131WAT     H215636   3.751   5.272   2.705
 5132WAT      O15637   0.361   5.166   0.602
 5132WAT     H115638   0.456   5.184   0.628
 5132WAT     H215639   0.342   5.207   0.513
 5133WAT      O15640   6.783   0.201   9.587
 5133WAT     H115641   6.824   0.124   9.539
 5133WAT     H215642   6.761   0.173   9.681
 5134WAT      O15643   2.113   4.689   6.210
 5134WAT     H115644   2.039   4.741   6.168
 5134WAT     H215645   2.081   4.598   6.236
 5135WAT      O15646   2.461   0.740   3.842
 5135WAT     H115647   2.434   0.686   3.922
 5135WAT     H215648   2.408   0.824   3.838
 5136WAT      O15649   9.395   6.674   4.414
 5136WAT     H115650   9.338   6.638   4.341
 5136WAT     H215651   9.431   6.599   4.470
 5137WAT      O15652   4.111   9.282   5.452
 5137WAT     H115653   4.099   9.379   5.431
 5137WAT     H215654   4.073   9.227   5.378
 5138WAT      O15655   1.469   1.469   8.663
 5138WAT     H115656   1.440   1.532   8.735
 5138WAT     H215657   1.408   1.479   8.584
 5139WAT      O15658   5.889   1.837   1.212
 5139WAT     H115659   5.820   1.858   1.282
 5139WAT     H215660   5.944   1.918   1.194
 5140WAT      O15661   6.513   4.857   7.906
 5140WAT     H115662   6.560   4.773   7.879
 5140WAT     H215663   6.415   4.838   7.918
 5141WAT      O15664   2.711   2.705   5.894
 5141WAT     H115665   2.768   2.788   5.891
 5141WAT     H215666   2.657   2.698   5.810
 5142WAT      O15667   3.395   8.955   0.682
 5142WAT     H115668   3.377   8.928   0.777
 5142WAT     H215669   3.439   9.044   0.680
 5143WAT      O15670   6.707   0.309   2.627
 5143WAT     H115671   6.719   0.366   2.708
 5143WAT     H215672   6.719   0.213   2.651
 5144WAT      O15673   7.105   5.099   3.216
 5144WAT     H115674   7.089   5.083   3.314
 5144WAT     H215675   7.137   5.015   3.174
 5145WAT      O15676   9.542   1.538   5.366
 5145WAT     H115677   9.625   1.594   5.365
 5145WAT     H215678   9.519   1.512   5.272
 5146WAT      O15679   0.526   1.243   5.064
 5146WAT     H115680   0.592   1.174   5.032
 5146WAT     H215681   0.535   1.253   5.163
 5147WAT      O15682   5.628   4.870   7.385
 5147WAT     H115683   5.685   4.819   7.321
 5147WAT     H215684   5.585   4.947   7.337
 5148WAT      O15685   7.312   9.149   7.661
 5148WAT     H115686   7.343   9.174   7.569
 5148WAT     H215687   7.383   9.094   7.705
 5149WAT      O15688   6.257   3.040   7.180
 5149WAT     H115689   6.328   3.108   7.199
 5149WAT     H215690   6.177   3.058   7.238
 5150WAT      O15691   5.632   2.755   6.602
 5150WAT     H115692   5.653   2.704   6.685
 5150WAT     H215693   5.564   2.704   6.548
 5151WAT      O15694   3.430   1.691   6.147
 5151WAT     H115695   3.460   1.663   6.056
 5151WAT     H215696   3.495   1.657   6.215
 5152WAT      O15697   3.188   6.536   0.956
 5152WAT     H115698   3.233   6.625   0.963
 5152WAT     H215699   3.190   6.506   0.860
 5153WAT      O15700   3.519   0.566   8.997
 5153WAT     H115701   3.578   0.505   9.050
 5153WAT     H215702   3.501   0.526   8.907
 5154WAT      O15703   3.171   5.587   3.804
 5154WAT     H115704   3.119   5.519   3.856
 5154WAT     H215705   3.168   5.674   3.852
 5155WAT      O15706   4.444   7.625   9.492
 5155WAT     H115707   4.407   7.533   9.480
 5155WAT     H215708   4.504   7.627   9.572
 5156WAT      O15709   1.054   1.701   5.480
 5156WAT     H115710   0.973   1.745   5.441
 5156WAT     H215711   1.038   1.602   5.488
 5157WAT      O15712   0.067   6.663   0.373
 5157WAT     H115713   0.118   6.724   0.312
 5157WAT     H215714   0.036   6.714   0.453
 5158WAT      O15715   5.912   4.359   3.501
 5158WAT     H115716   5.942   4.264   3.514
 5158WAT     H215717   5.855   4.386   3.579
 5159WAT      O15718   2.431   6.631   5.613
 5159WAT     H115719   2.521   6.658   5.579
 5159WAT     H215720   2.382   6.580   5.543
 5160WAT      O15721   2.245   8.440   6.769
 5160WAT     H115722   2.293   8.433   6.681
 5160WAT     H215723   2.308   8.472   6.839
 5161WAT      O15724   4.977   8.509   9.328
 5161WAT     H115725   5.036   8.429   9.317
 5161WAT     H215726   4.923   8.499   9.411
 5162WAT      O15727   2.315   0.194   8.254
 5162WAT     H115728   2.231   0.218   8.204
 5162WAT     H215729   2.394   0.217   8.198
 5163WAT      O15730   1.040   9.657   3.561
 5163WAT     H115731   0.965   9.597   3.535
 5163WAT     H215732   1.065   9.640   3.657
 5164WAT      O15733   3.805   6.995   7.489
 5164WAT     H115734   3.815   7.087   7.451
 5164WAT     H215735   3.861   6.987   7.571
 5165WAT      O15736   8.462   8.584   0.412
 5165WAT     H115737   8.429   8.510   0.354
 5165WAT     H215738   8.384   8.637   0.446
 5166WAT      O15739   9.404   9.617   7.013
 5166WAT     H115740   9.423   9.665   7.099
 5166WAT     H215741   9.487   9.571   6.982
 5167WAT      O15742   8.478   6.426   0.669
 5167WAT     H115743   8.425   6.409   0.752
 5167WAT     H215744   8.503   6.339   0.626
 5168WAT      O15745   6.273   1.759   7.001
 5168WAT     H115746   6.272   1.721   7.093
 5168WAT     H215747   6.274   1.684   6.934
 5169WAT      O15748   5.536   3.892   2.679
 5169WAT     H115749   5.474   3.950   2.733
 5169WAT     H215750   5.482   3.831   2.622
 5170WAT      O15751   2.976   2.166   4.062
 5170WAT     H115752   2.983   2.068   4.048
 5170WAT     H215753   2.968   2.186   4.159
 5171WAT      O15754   5.137   3.485   7.583
 5171WAT     H115755   5.130   3.474   7.484
 5171WAT     H215756   5.185   3.571   7.604
 5172WAT      O15757   8.050   3.930   7.147
 5172WAT     H115758   8.111   3.988   7.093
 5172WAT     H215759   8.090   3.915   7.237
 5173WAT      O15760   1.703   2.388   4.687
 5173WAT     H115761   1.647   2.306   4.705
 5173WAT     H215762   1.669   2.464   4.743
 5174WAT      O15763   5.169   5.318   0.976
 5174WAT     H115764   5.226   5.261   1.035
 5174WAT     H215765   5.155   5.407   1.021
 5175WAT      O15766   6.026   5.641   4.202
 5175WAT     H115767   5.939   5.655   4.249
 5175WAT     H215768   6.058   5.547   4.218
 5176WAT      O15769   6.507   4.130   2.578
 5176WAT     H115770   6.597   4.154   2.616
 5176WAT     H215771   6.452   4.085   2.648
 5177WAT      O15772   8.725   2.340   5.969
 5177WAT     H115773   8.767   2.391   5.894
 5177WAT     H215774   8.686   2.255   5.933
 5178WAT      O15775   5.476   4.505   7.725
 5178WAT     H115776   5.417   4.581   7.700
 5178WAT     H215777   5.571   4.536   7.731
 5179WAT      O15778   7.674   9.437   8.833
 5179WAT     H115779   7.599   9.493   8.797
 5179WAT     H215780   7.675   9.349   8.786
 5180WAT      O15781   2.684   5.849   3.038
 5180WAT     H115782   2.635   5.818   2.956
 5180WAT     H215783   2.664   5.787   3.114
 5181WAT      O15784   2.646   5.031   1.026
 5181WAT     H115785   2.705   5.014   1.105
 5181WAT     H215786   2.628   5.129   1.018
 5182WAT      O15787   2.386   0.480   1.408
 5182WAT     H115788   2.337   0.397   1.433
 5182WAT     H215789   2.454   0.501   1.479
 5183WAT      O15790   7.732   3.205   0.163
 5183WAT     H115791   7.802   3.164   0.105
 5183WAT     H215792   7.644   3.162   0.143
 5184WAT      O15793   3.467   3.464   9.086
 5184WAT     H115794   3.411   3.521   9.146
 5184WAT     H215795   3.563   3.470   9.114
 5185WAT      O15796   3.209   6.952   1.484
 5185WAT     H115797   3.208   6.946   1.384
 5185WAT     H215798   3.289   6.902   1.519
 5186WAT      O15799   4.328   6.549   0.896
 5186WAT     H115800   4.304   6.465   0.848
 5186WAT     H215801   4.425   6.570   0.881
 5187WAT      O15802   5.049   0.245   8.124
 5187WAT     H115803   5.111   0.183   8.076
 5187WAT     H215804   4.979   0.278   8.060
 5188WAT      O15805   7.768   4.026   5.928
 5188WAT     H115806   7.716   4.020   6.013
 5188WAT     H215807   7.791   3.934   5.897
 5189WAT      O15808   7.566   3.821   4.307
 5189WAT     H115809   7.560   3.911   4.350
 5189WAT     H215810   7.554   3.830   4.209
 5190WAT      O15811   4.016   8.867   4.866
 5190WAT     H115812   4.065   8.953   4.883
 5190WAT     H215813   3.926   8.887   4.828
 5191WAT      O15814   1.278   9.516   3.936
 5191WAT     H115815   1.281   9.434   3.880
 5191WAT     H215816   1.354   9.514   4.001
 5192WAT      O15817   6.209   9.696   5.051
 5192WAT     H115818   6.186   9.787   5.084
 5192WAT     H215819   6.307   9.679   5.063
 5193WAT      O15820   5.736   1.045   4.898
 5193WAT     H115821   5.639   1.065   4.888
 5193WAT     H215822   5.747   0.959   4.947
 5194WAT      O15823   2.776   6.266   4.287
 5194WAT     H115824   2.797   6.258   4.384
 5194WAT     H215825   2.845   6.218   4.234
 5195WAT      O15826   6.028   9.282   9.687
 5195WAT     H115827   5.948   9.297   9.629
 5195WAT     H215828   6.012   9.323   9.777
 5196WAT      O15829   8.821   3.249   6.651
 5196WAT     H115830   8.878   3.215   6.726
 5196WAT     H215831   8.725   3.228   6.670
 5197WAT      O15832   6.578   8.988   1.252
 5197WAT     H115833   6.484   8.953   1.258
 5197WAT     H215834   6.613   8.970   1.160
 5198WAT      O15835   6.015   2.155   7.043
 5198WAT     H115836   6.110   2.186   7.036
 5198WAT     H215837   6.011   2.056   7.035
 5199WAT      O15838   2.997   9.558   1.204
 5199WAT     H115839   2.929   9.489   1.227
 5199WAT     H215840   3.052   9.578   1.285
 5200WAT      O15841   5.717   0.199   1.847
 5200WAT     H115842   5.780   0.132   1.885
 5200WAT     H215843   5.692   0.265   1.919
 5201WAT      O15844   6.538   3.156   2.181
 5201WAT     H115845   6.581   3.226   2.124
 5201WAT     H215846   6.493   3.199   2.259
 5202WAT      O15847   6.725   6.440   5.993
 5202WAT     H115848   6.822   6.453   5.977
 5202WAT     H215849   6.689   6.516   6.047
 5203WAT      O15850   5.481   1.935   8.191
 5203WAT     H115851   5.384   1.949   8.170
 5203WAT     H215852   5.490   1.874   8.270
 5204WAT      O15853   2.675   3.871   8.775
 5204WAT     H115854   2.581   3.844   8.753
 5204WAT     H215855   2.719   3.798   8.827
 5205WAT      O15856   1.092   7.514   3.849
 5205WAT     H115857   1.139   7.531   3.762
 5205WAT     H215858   1.156   7.526   3.924
 5206WAT      O15859   8.496   3.780   1.328
 5206WAT     H115860   8.429   3.723   1.281
 5206WAT     H215861   8.456   3.868   1.351
 5207WAT      O15862   0.169   1.254   3.031
 5207WAT     H115863   0.214   1.269   3.119
 5207WAT     H215864   0.070   1.258   3.044
 5208WAT      O15865   3.151   1.377   4.654
 5208WAT     H115866   3.195   1.409   4.738
 5208WAT     H215867   3.212   1.391   4.577
 5209WAT      O15868   9.428   6.835   5.992
 5209WAT     H115869   9.457   6.926   6.019
 5209WAT     H215870   9.405   6.835   5.894
 5210WAT      O15871   3.191   5.596   8.196
 5210WAT     H115872   3.123   5.600   8.123
 5210WAT     H215873   3.281   5.616   8.158
 5211WAT      O15874   2.319   3.105   5.739
 5211WAT     H115875   2.303   3.006   5.742
 5211WAT     H215876   2.266   3.145   5.664
 5212WAT      O15877   2.929   5.713   5.559
 5212WAT     H115878   3.008   5.774   5.567
 5212WAT     H215879   2.845   5.765   5.571
 5213WAT      O15880   4.885   8.979   4.287
 5213WAT     H115881   4.956   8.912   4.309
 5213WAT     H215882   4.897   9.010   4.192
 5214WAT      O15883   5.028   4.768   4.045
 5214WAT     H115884   5.102   4.802   3.987
 5214WAT     H215885   4.973   4.844   4.079
 5215WAT      O15886   7.413   3.340   7.291
 5215WAT     H115887   7.432   3.433   7.259
 5215WAT     H215888   7.323   3.311   7.258
 5216WAT      O15889   5.738   4.818   6.076
 5216WAT     H115890   5.748   4.887   6.148
 5216WAT     H215891   5.694   4.737   6.113
 5217WAT      O15892   8.657   9.176   0.910
 5217WAT     H115893   8.659   9.134   0.820
 5217WAT     H215894   8.722   9.252   0.914
 5218WAT      O15895   0.729   6.792   4.853
 5218WAT     H115896   0.689   6.814   4.942
 5218WAT     H215897   0.826   6.769   4.864
 5219WAT      O15898   8.558   0.512   8.925
 5219WAT     H115899   8.646   0.502   8.880
 5219WAT     H215900   8.494   0.560   8.865
 5220WAT      O15901   5.063   7.944   9.353
 5220WAT     H115902   5.061   7.875   9.425
 5220WAT     H215903   5.024   8.029   9.387
 5221WAT      O15904   7.204   0.660   3.897
 5221WAT     H115905   7.108   0.634   3.906
 5221WAT     H215906   7.257   0.582   3.864
 5222WAT      O15907   2.920   4.700   9.040
 5222WAT     H115908   2.933   4.779   9.100
 5222WAT     H215909   3.004   4.646   9.037
 5223WAT      O15910   7.403   7.497   8.322
 5223WAT     H115911   7.333   7.564   8.344
 5223WAT     H215912   7.389   7.415   8.377
 5224WAT      O15913   3.634   0.020   5.139
 5224WAT     H115914   3.709  -0.028   5.183
 5224WAT     H215915   3.667   0.070   5.059
 5225WAT      O15916   0.373   8.222   7.156
 5225WAT     H115917   0.313   8.174   7.220
 5225WAT     H215918   0.448   8.161   7.130
 5226WAT      O15919   9.605   9.557   2.725
 5226WAT     H115920   9.633   9.462   2.739
 5226WAT     H215921   9.505   9.563   2.729
 5227WAT      O15922   4.479   7.092   1.775
 5227WAT     H115923   4.456   7.172   1.720
 5227WAT     H215924   4.548   7.038   1.728
 5228WAT      O15925   6.456   5.744   3.321
 5228WAT     H115926   6.535   5.756   3.381
 5228WAT     H215927   6.481   5.685   3.244
 5229WAT      O15928   0.114   1.444   0.822
 5229WAT     H115929   0.035   1.384   0.809
 5229WAT     H215930   0.157   1.462   0.734
 5230WAT      O15931   4.136   0.769   9.069
 5230WAT     H115932   4.116   0.682   9.024
 5230WAT     H215933   4.212   0.814   9.021
 5231WAT      O15934   6.670   2.216   3.240
 5231WAT     H115935   6.606   2.142   3.221
 5231WAT     H215936   6.710   2.203   3.331
 5232WAT      O15937   7.864   2.036   6.626
 5232WAT     H115938   7.923   1.987   6.691
 5232WAT     H215939   7.893   2.017   6.533
 5233WAT      O15940   6.270   3.513   1.298
 5233WAT     H115941   6.231   3.508   1.206
 5233WAT     H215942   6.215   3.575   1.353
 5234WAT      O15943   9.310   1.996   0.907
 5234WAT     H115944   9.299   1.975   0.810
 5234WAT     H215945   9.399   2.041   0.921
 5235WAT      O15946   7.817   9.722   8.639
 5235WAT     H115947   7.846   9.801   8.693
 5235WAT     H215948   7.882   9.706   8.565
 5236WAT      O15949   7.479   2.698   9.783
 5236WAT     H115950   7.470   2.600   9.766
 5236WAT     H215951   7.506   2.713   9.878
 5237WAT      O15952   2.918   7.584   1.861
 5237WAT     H115953   2.993   7.588   1.926
 5237WAT     H215954   2.869   7.498   1.871
 5238WAT      O15955   2.878   9.584   3.253
 5238WAT     H115956   2.926   9.518   3.311
 5238WAT     H215957   2.847   9.661   3.309
 5239WAT      O15958   9.217   0.737   6.047
 5239WAT     H115959   9.136   0.724   5.989
 5239WAT     H215960   9.235   0.652   6.097
 5240WAT      O15961   8.813   6.984   4.854
 5240WAT     H115962   8.744   6.969   4.783
 5240WAT     H215963   8.767   7.001   4.941
 5241WAT      O15964   7.655   9.473   6.937
 5241WAT     H115965   7.695   9.466   6.846
 5241WAT     H215966   7.566   9.519   6.930
 5242WAT      O15967   7.706   6.321   2.036
 5242WAT     H115968   7.693   6.420   2.035
 5242WAT     H215969   7.775   6.297   2.104
 5243WAT      O15970   9.470   8.064   2.082
 5243WAT     H115971   9.516   8.143   2.042
 5243WAT     H215972   9.459   7.993   2.012
 5244WAT      O15973   4.548   1.407   4.083
 5244WAT     H115974   4.467   1.353   4.105
 5244WAT     H215975   4.521   1.487   4.029
 5245WAT      O15976   2.192   3.743   1.926
 5245WAT     H115977   2.244   3.783   1.850
 5245WAT     H215978   2.226   3.780   2.012
 5246WAT      O15979   5.076   7.405   7.737
 5246WAT     H115980   5.054   7.320   7.689
 5246WAT     H215981   4.997   7.466   7.736
 5247WAT      O15982   2.959   4.557   0.308
 5247WAT     H115983   3.055   4.566   0.280
 5247WAT     H215984   2.951   4.485   0.378
 5248WAT      O15985   4.634   6.814   3.341
 5248WAT     H115986   4.545   6.769   3.345
 5248WAT     H215987   4.665   6.817   3.246
 5249WAT      O15988   6.118   3.413   7.997
 5249WAT     H115989   6.112   3.512   7.988
 5249WAT     H215990   6.177   3.390   8.075
 5250WAT      O15991   0.647   9.290   7.313
 5250WAT     H115992   0.736   9.326   7.287
 5250WAT     H215993   0.652   9.252   7.405
 5251WAT      O15994   3.606   1.990   9.066
 5251WAT     H115995   3.574   1.899   9.093
 5251WAT     H215996   3.663   2.027   9.139
 5252WAT      O15997   2.273   4.401   5.140
 5252WAT     H115998   2.303   4.352   5.058
 5252WAT     H215999   2.284   4.499   5.126
 5253WAT      O16000   5.166   3.770   2.329
 5253WAT     H116001   5.141   3.853   2.279
 5253WAT     H216002   5.228   3.715   2.273
 5254WAT      O16003   3.429   6.411   6.038
 5254WAT     H116004   3.503   6.359   6.080
 5254WAT     H216005   3.422   6.387   5.941
 5255WAT      O16006   2.987   3.547   8.059
 5255WAT     H116007   3.039   3.633   8.058
 5255WAT     H216008   3.000   3.499   7.972
 5256WAT      O16009   2.452   0.286   5.988
 5256WAT     H116010   2.547   0.271   5.962
 5256WAT     H216011   2.435   0.385   5.994
 5257WAT      O16012   4.391   2.664   3.193
 5257WAT     H116013   4.405   2.585   3.132
 5257WAT     H216014   4.294   2.677   3.209
 5258WAT      O16015   7.419   2.170   9.862
 5258WAT     H116016   7.354   2.128   9.799
 5258WAT     H216017   7.402   2.135   9.954
 5259WAT      O16018   9.482   8.425   2.472
 5259WAT     H116019   9.557   8.482   2.505
 5259WAT     H216020   9.506   8.387   2.382
 5260WAT      O16021   3.695   0.638   1.721
 5260WAT     H116022   3.600   0.639   1.691
 5260WAT     H216023   3.754   0.618   1.643
 5261WAT      O16024   8.400   7.077   1.497
 5261WAT     H116025   8.347   6.996   1.470
 5261WAT     H216026   8.496   7.052   1.510
 5262WAT      O16027   7.023   9.487   8.410
 5262WAT     H116028   6.935   9.450   8.380
 5262WAT     H216029   7.048   9.564   8.351
 5263WAT      O16030   8.124   2.974   3.883
 5263WAT     H116031   8.102   3.064   3.846
 5263WAT     H216032   8.077   2.961   3.970
 5264WAT      O16033   7.795   0.420   6.942
 5264WAT     H116034   7.881   0.373   6.963
 5264WAT     H216035   7.766   0.474   7.021
 5265WAT      O16036   8.305   2.983   8.412
 5265WAT     H116037   8.405   2.986   8.420
 5265WAT     H216038   8.280   2.956   8.319
 5266WAT      O16039   2.886   6.436   7.535
 5266WAT     H116040   2.855   6.458   7.442
 5266WAT     H216041   2.817   6.380   7.580
 5267WAT      O16042   1.668   2.134   8.664
 5267WAT     H116043   1.642   2.227   8.642
 5267WAT     H216044   1.587   2.080   8.684
 5268WAT      O16045   0.306   9.539   7.982
 5268WAT     H116046   0.330   9.549   7.886
 5268WAT     H216047   0.309   9.628   8.027
 5269WAT      O16048   9.129   5.524   6.553
 5269WAT     H116049   9.128   5.572   6.465
 5269WAT     H216050   9.223   5.521   6.588
 5270WAT      O16051   7.249   9.192   3.453
 5270WAT     H116052   7.213   9.101   3.429
 5270WAT     H216053   7.189   9.262   3.415
 5271WAT      O16054   3.606   6.000   6.042
 5271WAT     H116055   3.628   6.014   5.946
 5271WAT     H216056   3.568   6.084   6.080
 5272WAT      O16057   6.676   4.233   4.962
 5272WAT     H116058   6.622   4.149   4.975
 5272WAT     H216059   6.630   4.292   4.896
 5273WAT      O16060   2.456   7.777   0.570
 5273WAT     H116061   2.360   7.755   0.551
 5273WAT     H216062   2.484   7.854   0.513
 5274WAT      O16063   6.969   1.488   3.655
 5274WAT     H116064   6.965   1.399   3.609
 5274WAT     H216065   6.878   1.513   3.689
 5275WAT      O16066   3.231   5.093   0.793
 5275WAT     H116067   3.259   5.177   0.839
 5275WAT     H216068   3.146   5.109   0.743
 5276WAT      O16069   9.068   3.462   0.184
 5276WAT     H116070   9.030   3.511   0.106
 5276WAT     H216071   9.062   3.519   0.265
 5277WAT      O16072   9.839   9.258   1.826
 5277WAT     H116073   9.796   9.265   1.736
 5277WAT     H216074   9.849   9.162   1.851
 5278WAT      O16075   2.318   3.086   0.618
 5278WAT     H116076   2.314   2.995   0.659
 5278WAT     H216077   2.269   3.085   0.531
 5279WAT      O16078   4.386   9.364   7.418
 5279WAT     H116079   4.359   9.318   7.502
 5279WAT     H216080   4.397   9.297   7.345
 5280WAT      O16081   9.764   8.031   7.795
 5280WAT     H116082   9.727   8.009   7.885
 5280WAT     H216083   9.861   8.005   7.793
 5281WAT      O16084   3.709   9.479   4.806
 5281WAT     H116085   3.799   9.479   4.762
 5281WAT     H216086   3.681   9.385   4.824
 5282WAT      O16087   7.119   3.618   0.986
 5282WAT     H116088   7.052   3.641   0.916
 5282WAT     H216089   7.153   3.702   1.028
 5283WAT      O16090   4.496   8.013   8.180
 5283WAT     H116091   4.471   7.932   8.128
 5283WAT     H216092   4.584   7.998   8.225
 5284WAT      O16093   4.362   0.471   5.029
 5284WAT     H116094   4.415   0.545   4.987
 5284WAT     H216095   4.364   0.480   5.128
 5285WAT      O16096   3.176   8.829   1.092
 5285WAT     H116097   3.242   8.765   1.131
 5285WAT     H216098   3.223   8.894   1.033
 5286WAT      O16099   7.310   9.090   4.253
 5286WAT     H116100   7.310   9.170   4.313
 5286WAT     H216101   7.216   9.067   4.228
 5287WAT      O16102   6.484   5.829   8.282
 5287WAT     H116103   6.571   5.878   8.285
 5287WAT     H216104   6.409   5.893   8.301
 5288WAT      O16105   2.954   5.051   6.065
 5288WAT     H116106   2.987   5.035   6.158
 5288WAT     H216107   3.032   5.055   6.002
 5289WAT      O16108   6.331   1.317   7.761
 5289WAT     H116109   6.277   1.395   7.731
 5289WAT     H216110   6.379   1.340   7.846
 5290WAT      O16111   2.148   7.352   6.170
 5290WAT     H116112   2.217   7.380   6.237
 5290WAT     H216113   2.124   7.256   6.186
 5291WAT      O16114   2.423   6.995   2.810
 5291WAT     H116115   2.390   7.003   2.716
 5291WAT     H216116   2.461   6.904   2.825
 5292WAT      O16117   5.118   1.475   3.803
 5292WAT     H116118   5.183   1.422   3.749
 5292WAT     H216119   5.028   1.470   3.761
 5293WAT      O16120   5.523   8.351   5.631
 5293WAT     H116121   5.476   8.270   5.596
 5293WAT     H216122   5.603   8.370   5.574
 5294WAT      O16123   5.845   9.420   0.257
 5294WAT     H116124   5.804   9.332   0.280
 5294WAT     H216125   5.783   9.471   0.196
 5295WAT      O16126   1.535   5.541   3.557
 5295WAT     H116127   1.518   5.446   3.530
 5295WAT     H216128   1.554   5.596   3.476
 5296WAT      O16129   0.138   2.011   9.342
 5296WAT     H116130   0.192   2.067   9.405
 5296WAT     H216131   0.199   1.961   9.281
 5297WAT      O16132   3.260   1.260   5.034
 5297WAT     H116133   3.252   1.352   4.995
 5297WAT     H216134   3.329   1.208   4.984
 5298WAT      O16135   1.540   1.545   9.121
 5298WAT     H116136   1.460   1.557   9.180
 5298WAT     H216137   1.615   1.505   9.175
 5299WAT      O16138   3.981   5.210   3.737
 5299WAT     H116139   4.059   5.159   3.775
 5299WAT     H216140   3.976   5.195   3.639
 5300WAT      O16141   5.978   0.359   8.098
 5300WAT     H116142   5.981   0.458   8.086
 5300WAT     H216143   5.884   0.326   8.090
 5301WAT      O16144   6.562   9.633   9.721
 5301WAT     H116145   6.490   9.693   9.685
 5301WAT     H216146   6.521   9.546   9.750
 5302WAT      O16147   8.535   9.527   2.851
 5302WAT     H116148   8.453   9.469   2.857
 5302WAT     H216149   8.579   9.531   2.941
 5303WAT      O16150   3.838   0.472   3.752
 5303WAT     H116151   3.742   0.464   3.724
 5303WAT     H216152   3.844   0.524   3.837
 5304WAT      O16153   3.627   0.230   5.315
 5304WAT     H116154   3.707   0.285   5.292
 5304WAT     H216155   3.622   0.150   5.254
 5305WAT      O16156   7.071   0.063   5.311
 5305WAT     H116157   7.159   0.108   5.326
 5305WAT     H216158   7.064   0.034   5.216
 5306WAT      O16159   0.357   7.501   4.710
 5306WAT     H116160   0.429   7.458   4.764
 5306WAT     H216161   0.329   7.439   4.637
 5307WAT      O16162   2.055   4.149   2.853
 5307WAT     H116163   1.978   4.143   2.790
 5307WAT     H216164   2.116   4.071   2.839
 5308WAT      O16165   8.766   6.980   6.565
 5308WAT     H116166   8.700   7.027   6.506
 5308WAT     H216167   8.733   6.888   6.587
 5309WAT      O16168   6.877   4.295   9.644
 5309WAT     H116169   6.805   4.346   9.691
 5309WAT     H216170   6.861   4.197   9.655
 5310WAT      O16171   7.620   7.485   1.493
 5310WAT     H116172   7.561   7.472   1.573
 5310WAT     H216173   7.595   7.419   1.422
 5311WAT      O16174   3.406   2.837   5.928
 5311WAT     H116175   3.342   2.765   5.901
 5311WAT     H216176   3.412   2.842   6.028
 5312WAT      O16177   3.584   6.062   5.777
 5312WAT     H116178   3.527   6.016   5.709
 5312WAT     H216179   3.572   6.161   5.770
 5313WAT      O16180   4.713   6.410   4.513
 5313WAT     H116181   4.750   6.469   4.584
 5313WAT     H216182   4.769   6.327   4.506
 5314WAT      O16183   5.640   5.345   1.734
 5314WAT     H116184   5.597   5.420   1.683
 5314WAT     H216185   5.605   5.258   1.699
 5315WAT      O16186   9.813   5.463   1.826
 5315WAT     H116187   9.855   5.524   1.759
 5315WAT     H216188   9.800   5.512   1.912
 5316WAT      O16189   2.155   3.629   6.924
 5316WAT     H116190   2.122   3.677   6.843
 5316WAT     H216191   2.136   3.531   6.914
 5317WAT      O16192   2.398   1.308   2.787
 5317WAT     H116193   2.394   1.319   2.886
 5317WAT     H216194   2.451   1.227   2.764
 5318WAT      O16195   3.899   3.294   9.452
 5318WAT     H116196   3.833   3.312   9.524
 5318WAT     H216197   3.992   3.300   9.489
 5319WAT      O16198   7.682   8.660   2.249
 5319WAT     H116199   7.743   8.730   2.287
 5319WAT     H216200   7.736   8.594   2.195
 5320WAT      O16201   4.624   5.558   0.746
 5320WAT     H116202   4.564   5.582   0.670
 5320WAT     H216203   4.719   5.561   0.716
 5321WAT      O16204   6.545   4.083   5.225
 5321WAT     H116205   6.625   4.023   5.230
 5321WAT     H216206   6.487   4.055   5.148
 5322WAT      O16207   5.918   5.985   9.633
 5322WAT     H116208   5.887   6.044   9.558
 5322WAT     H216209   5.859   5.903   9.637
 5323WAT      O16210   9.010   1.708   9.497
 5323WAT     H116211   8.973   1.636   9.556
 5323WAT     H216212   9.071   1.666   9.430
 5324WAT      O16213   3.027   6.438   6.824
 5324WAT     H116214   2.943   6.467   6.779
 5324WAT     H216215   3.099   6.506   6.807
 5325WAT      O16216   6.768   1.884   8.964
 5325WAT     H116217   6.753   1.978   8.992
 5325WAT     H216218   6.843   1.844   9.018
 5326WAT      O16219   5.303   2.352   8.813
 5326WAT     H116220   5.263   2.347   8.905
 5326WAT     H216221   5.258   2.286   8.753
 5327WAT      O16222   3.872   1.090   1.961
 5327WAT     H116223   3.798   1.034   1.923
 5327WAT     H216224   3.937   1.032   2.009
 5328WAT      O16225   3.150   2.622   8.820
 5328WAT     H116226   3.104   2.628   8.732
 5328WAT     H216227   3.091   2.572   8.885
 5329WAT      O16228   1.622   5.109   5.907
 5329WAT     H116229   1.686   5.159   5.849
 5329WAT     H216230   1.546   5.169   5.933
 5330WAT      O16231   8.455   3.121   6.169
 5330WAT     H116232   8.407   3.034   6.153
 5330WAT     H216233   8.488   3.124   6.263
 5331WAT      O16234   0.832   6.200   6.970
 5331WAT     H116235   0.867   6.283   7.014
 5331WAT     H216236   0.825   6.216   6.871
 5332WAT      O16237   1.069   0.476   6.534
 5332WAT     H116238   1.004   0.485   6.610
 5332WAT     H216239   1.020   0.450   6.451
 5333WAT      O16240   1.008   1.016   8.602
 5333WAT     H116241   1.081   1.054   8.545
 5333WAT     H216242   0.923   1.064   8.582
 5334WAT      O16243   2.593   2.218   7.800
 5334WAT     H116244   2.687   2.232   7.769
 5334WAT     H216245   2.530   2.264   7.738
 5335WAT      O16246   8.364   5.734   5.735
 5335WAT     H116247   8.351   5.793   5.815
 5335WAT     H216248   8.461   5.711   5.728
 5336WAT      O16249   3.450   0.853   4.601
 5336WAT     H116250   3.417   0.861   4.507
 5336WAT     H216251   3.430   0.761   4.636
 5337WAT      O16252   3.076   2.544   1.989
 5337WAT     H116253   3.058   2.643   1.986
 5337WAT     H216254   3.116   2.521   2.077
 5338WAT      O16255   5.672   0.737   3.176
 5338WAT     H116256   5.581   0.762   3.142
 5338WAT     H216257   5.702   0.805   3.244
 5339WAT      O16258   6.908   5.793   6.685
 5339WAT     H116259   6.875   5.844   6.605
 5339WAT     H216260   6.954   5.709   6.655
 5340WAT      O16261   5.157   3.005   4.468
 5340WAT     H116262   5.213   3.078   4.508
 5340WAT     H216263   5.145   2.932   4.535
 5341WAT      O16264   8.631   4.175   7.945
 5341WAT     H116265   8.586   4.125   8.019
 5341WAT     H216266   8.728   4.151   7.944
 5342WAT      O16267   1.364   0.826   1.267
 5342WAT     H116268   1.389   0.821   1.364
 5342WAT     H216269   1.306   0.748   1.244
 5343WAT      O16270   8.097   0.377   2.530
 5343WAT     H116271   8.093   0.456   2.591
 5343WAT     H216272   8.100   0.293   2.585
 5344WAT      O16273   2.890   8.666   5.735
 5344WAT     H116274   2.975   8.719   5.728
 5344WAT     H216275   2.854   8.672   5.828
 5345WAT      O16276   4.121   3.273   9.583
 5345WAT     H116277   4.079   3.257   9.672
 5345WAT     H216278   4.220   3.281   9.594
 5346WAT      O16279   0.064   1.442   2.529
 5346WAT     H116280   0.134   1.488   2.584
 5346WAT     H216281  -0.020   1.432   2.583
 5347WAT      O16282   4.808   0.876   4.333
 5347WAT     H116283   4.867   0.953   4.309
 5347WAT     H216284   4.864   0.796   4.354
 5348WAT      O16285   1.223   2.479   2.678
 5348WAT     H116286   1.237   2.385   2.707
 5348WAT     H216287   1.214   2.482   2.578
 5349WAT      O16288   1.005   7.321   0.926
 5349WAT     H116289   1.093   7.344   0.967
 5349WAT     H216290   0.964   7.404   0.887
 5350WAT      O16291   7.479   0.242   9.189
 5350WAT     H116292   7.390   0.251   9.146
 5350WAT     H216293   7.492   0.316   9.256
 5351WAT      O16294   9.750   4.768   3.033
 5351WAT     H116295   9.673   4.710   3.060
 5351WAT     H216296   9.828   4.749   3.093
 5352WAT      O16297   9.322   4.724   5.061
 5352WAT     H116298   9.344   4.799   4.998
 5352WAT     H216299   9.252   4.666   5.020
 5353WAT      O16300   9.545   8.557   8.509
 5353WAT     H116301   9.466   8.587   8.562
 5353WAT     H216302   9.574   8.631   8.449
 5354WAT      O16303   9.301   3.980   8.432
 5354WAT     H116304   9.313   3.910   8.502
 5354WAT     H216305   9.327   4.070   8.469
 5355WAT      O16306   3.218   8.970   8.586
 5355WAT     H116307   3.187   8.933   8.499
 5355WAT     H216308   3.233   8.895   8.651
 5356WAT      O16309   4.064   9.517   7.879
 5356WAT     H116310   3.989   9.544   7.938
 5356WAT     H216311   4.064   9.418   7.867
 5357WAT      O16312   1.969   5.662   7.586
 5357WAT     H116313   2.028   5.741   7.567
 5357WAT     H216314   1.966   5.603   7.506
 5358WAT      O16315   8.066   7.992   4.817
 5358WAT     H116316   7.988   8.037   4.859
 5358WAT     H216317   8.038   7.902   4.783
 5359WAT      O16318   5.385   9.199   4.374
 5359WAT     H116319   5.285   9.202   4.376
 5359WAT     H216320   5.418   9.231   4.285
 5360WAT      O16321   0.305   9.160   0.010
 5360WAT     H116322   0.310   9.172   0.109
 5360WAT     H216323   0.311   9.063  -0.013
 5361WAT      O16324   0.976   0.154   8.641
 5361WAT     H116325   1.009   0.114   8.556
 5361WAT     H216326   0.876   0.143   8.647
 5362WAT      O16327   9.147   2.037   4.390
 5362WAT     H116328   9.074   2.104   4.374
 5362WAT     H216329   9.107   1.945   4.393
 5363WAT      O16330   4.966   7.861   5.400
 5363WAT     H116331   4.982   7.857   5.301
 5363WAT     H216332   5.052   7.849   5.448
 5364WAT      O16333   2.947   3.865   7.941
 5364WAT     H116334   3.028   3.812   7.967
 5364WAT     H216335   2.958   3.960   7.970
 5365WAT      O16336   7.477   2.748   6.989
 5365WAT     H116337   7.558   2.698   7.020
 5365WAT     H216338   7.395   2.707   7.030
 5366WAT      O16339   4.428   7.771   4.889
 5366WAT     H116340   4.516   7.786   4.935
 5366WAT     H216341   4.354   7.782   4.956
 5367WAT      O16342   9.477   3.730   0.826
 5367WAT     H116343   9.550   3.683   0.875
 5367WAT     H216344   9.481   3.706   0.729
 5368WAT      O16345   4.137   8.207   7.018
 5368WAT     H116346   4.103   8.118   6.989
 5368WAT     H216347   4.065   8.276   7.004
 5369WAT      O16348   7.258   2.131   6.732
 5369WAT     H116349   7.253   2.107   6.635
 5369WAT     H216350   7.277   2.049   6.786
 5370WAT      O16351   1.934   6.419   9.752
 5370WAT     H116352   1.992   6.387   9.827
 5370WAT     H216353   1.989   6.430   9.670
 5371WAT      O16354   0.831   5.675   8.170
 5371WAT     H116355   0.748   5.651   8.221
 5371WAT     H216356   0.904   5.611   8.193
 5372WAT      O16357   9.826   9.237   0.960
 5372WAT     H116358   9.812   9.157   0.901
 5372WAT     H216359   9.912   9.282   0.935
 5373WAT      O16360   0.801   1.406   1.840
 5373WAT     H116361   0.885   1.352   1.846
 5373WAT     H216362   0.724   1.353   1.877
 5374WAT      O16363   5.904   0.319   3.498
 5374WAT     H116364   5.844   0.262   3.555
 5374WAT     H216365   5.869   0.412   3.496
 5375WAT      O16366   7.091   4.919   9.495
 5375WAT     H116367   7.022   4.938   9.425
 5375WAT     H216368   7.179   4.898   9.452
 5376WAT      O16369   4.543   7.289   3.756
 5376WAT     H116370   4.620   7.318   3.699
 5376WAT     H216371   4.564   7.304   3.852
 5377WAT      O16372   8.937   1.678   1.524
 5377WAT     H116373   9.027   1.649   1.492
 5377WAT     H216374   8.939   1.693   1.623
 5378WAT      O16375   1.133   8.624   5.531
 5378WAT     H116376   1.173   8.628   5.622
 5378WAT     H216377   1.192   8.569   5.471
 5379WAT      O16378   3.055   2.832   6.904
 5379WAT     H116379   3.065   2.828   7.004
 5379WAT     H216380   3.143   2.810   6.861
 5380WAT      O16381   8.152   3.705   7.950
 5380WAT     H116382   8.240   3.658   7.942
 5380WAT     H216383   8.120   3.700   8.045
 5381WAT      O16384   7.094   5.414   5.863
 5381WAT     H116385   7.091   5.482   5.790
 5381WAT     H216386   7.022   5.432   5.930
 5382WAT      O16387   8.770   8.091   8.850
 5382WAT     H116388   8.702   8.090   8.777
 5382WAT     H216389   8.764   8.007   8.904
 5383WAT      O16390   3.128   6.544   7.435
 5383WAT     H116391   3.137   6.627   7.489
 5383WAT     H216392   3.051   6.490   7.469
 5384WAT      O16393   1.677   0.961   5.155
 5384WAT     H116394   1.749   0.945   5.088
 5384WAT     H216395   1.665   1.059   5.169
 5385WAT      O16396   9.565   0.195   4.757
 5385WAT     H116397   9.469   0.168   4.746
 5385WAT     H216398   9.585   0.274   4.700
 5386WAT      O16399   2.101   5.314   7.232
 5386WAT     H116400   2.147   5.255   7.298
 5386WAT     H216401   2.157   5.323   7.150
 5387WAT      O16402   3.057   6.791   7.587
 5387WAT     H116403   3.063   6.874   7.531
 5387WAT     H216404   2.962   6.763   7.595
 5388WAT      O16405   3.227   5.407   7.798
 5388WAT     H116406   3.299   5.370   7.857
 5388WAT     H216407   3.180   5.332   7.751
 5389WAT      O16408   3.457   5.229   6.665
 5389WAT     H116409   3.477   5.302   6.600
 5389WAT     H216410   3.525   5.157   6.657
 5390WAT      O16411   8.160   7.169   2.007
 5390WAT     H116412   8.127   7.078   2.032
 5390WAT     H216413   8.178   7.172   1.909
 5391WAT      O16414   5.873   0.366   4.369
 5391WAT     H116415   5.903   0.331   4.458
 5391WAT     H216416   5.835   0.458   4.380
 5392WAT      O16417   1.408   0.007   1.262
 5392WAT     H116418   1.500   0.016   1.224
 5392WAT     H216419   1.414  -0.006   1.361
 5393WAT      O16420   3.443   9.427   9.816
 5393WAT     H116421   3.542   9.431   9.802
 5393WAT     H216422   3.399   9.497   9.759
 5394WAT      O16423   1.940   3.711   9.739
 5394WAT     H116424   1.945   3.612   9.724
 5394WAT     H216425   1.846   3.736   9.765
 5395WAT      O16426   1.122   1.192   0.083
 5395WAT     H116427   1.207   1.144   0.058
 5395WAT     H216428   1.072   1.137   0.150
 5396WAT      O16429   4.827   5.204   2.907
 5396WAT     H116430   4.904   5.141   2.903
 5396WAT     H216431   4.760   5.170   2.973
 5397WAT      O16432   6.172   6.832   6.866
 5397WAT     H116433   6.244   6.781   6.914
 5397WAT     H216434   6.152   6.788   6.778
 5398WAT      O16435   0.251   1.675   6.769
 5398WAT     H116436   0.336   1.656   6.720
 5398WAT     H216437   0.195   1.592   6.772
 5399WAT      O16438   2.560   7.995   8.446
 5399WAT     H116439   2.577   8.013   8.543
 5399WAT     H216440   2.562   7.896   8.429
 5400WAT      O16441   7.673   1.939   7.929
 5400WAT     H116442   7.671   1.913   7.832
 5400WAT     H216443   7.616   2.020   7.943
 5401WAT      O16444   6.258   5.609   7.961
 5401WAT     H116445   6.324   5.677   7.929
 5401WAT     H216446   6.306   5.530   7.998
 5402WAT      O16447   2.157   9.796   2.165
 5402WAT     H116448   2.094   9.725   2.196
 5402WAT     H216449   2.208   9.764   2.085
 5403WAT      O16450   1.282   3.224   3.719
 5403WAT     H116451   1.240   3.134   3.716
 5403WAT     H216452   1.223   3.287   3.769
 5404WAT      O16453   7.156   6.040   0.373
 5404WAT     H116454   7.236   5.981   0.363
 5404WAT     H216455   7.080   5.988   0.412
 5405WAT      O16456   9.132   5.573   6.274
 5405WAT     H116457   9.160   5.477   6.271
 5405WAT     H216458   9.043   5.583   6.229
 5406WAT      O16459   0.507   9.019   2.633
 5406WAT     H116460   0.512   9.116   2.654
 5406WAT     H216461   0.412   8.992   2.618
 5407WAT      O16462   7.273   5.629   9.316
 5407WAT     H116463   7.262   5.651   9.412
 5407WAT     H216464   7.265   5.530   9.302
 5408WAT      O16465   6.102   0.071   0.096
 5408WAT     H116466   6.198   0.056   0.117
 5408WAT     H216467   6.060   0.126   0.168
 5409WAT      O16468   2.814   4.973   8.671
 5409WAT     H116469   2.772   4.977   8.581
 5409WAT     H216470   2.792   4.886   8.715
 5410WAT      O16471   1.069   8.427   7.796
 5410WAT     H116472   1.075   8.419   7.895
 5410WAT     H216473   1.002   8.361   7.761
 5411WAT      O16474   2.399   3.707   7.038
 5411WAT     H116475   2.310   3.661   7.044
 5411WAT     H216476   2.439   3.691   6.948
 5412WAT      O16477   0.573   0.834   9.758
 5412WAT     H116478   0.649   0.780   9.794
 5412WAT     H216479   0.486   0.790   9.781
 5413WAT      O16480   1.027   3.460   2.081
 5413WAT     H116481   1.036   3.540   2.021
 5413WAT     H216482   1.097   3.393   2.057
 5414WAT      O16483   5.662   1.775   3.029
 5414WAT     H116484   5.753   1.757   2.992
 5414WAT     H216485   5.642   1.711   3.103
 5415WAT      O16486   1.319   5.626   6.128
 5415WAT     H116487   1.225   5.647   6.154
 5415WAT     H216488   1.340   5.531   6.150
 5416WAT      O16489   8.952   8.472   5.361
 5416WAT     H116490   8.895   8.412   5.417
 5416WAT     H216491   8.909   8.562   5.356
 5417WAT      O16492   9.074   7.768   7.059
 5417WAT     H116493   9.095   7.699   6.990
 5417WAT     H216494   9.125   7.749   7.143
 5418WAT      O16495   5.112   2.603   8.440
 5418WAT     H116496   5.037   2.543   8.413
 5418WAT     H216497   5.122   2.602   8.540
 5419WAT      O16498   3.974   1.750   1.788
 5419WAT     H116499   4.047   1.818   1.778
 5419WAT     H216500   3.885   1.795   1.783
 5420WAT      O16501   3.844   4.876   3.602
 5420WAT     H116502   3.788   4.937   3.658
 5420WAT     H216503   3.833   4.899   3.506
 5421WAT      O16504   2.628   6.539   8.151
 5421WAT     H116505   2.559   6.555   8.221
 5421WAT     H216506   2.585   6.503   8.069
 5422WAT      O16507   5.928   9.489   7.601
 5422WAT     H116508   5.862   9.415   7.610
 5422WAT     H216509   6.020   9.452   7.600
 5423WAT      O16510   1.885   8.516   4.038
 5423WAT     H116511   1.826   8.578   3.986
 5423WAT     H216512   1.981   8.535   4.016
 5424WAT      O16513   3.005   1.683   2.676
 5424WAT     H116514   2.963   1.698   2.766
 5424WAT     H216515   3.073   1.610   2.683
 5425WAT      O16516   9.613   0.840   5.123
 5425WAT     H116517   9.562   0.761   5.155
 5425WAT     H216518   9.697   0.850   5.177
 5426WAT      O16519   3.720   5.731   1.308
 5426WAT     H116520   3.695   5.637   1.283
 5426WAT     H216521   3.812   5.751   1.274
 5427WAT      O16522   4.767   4.339   2.946
 5427WAT     H116523   4.846   4.364   2.889
 5427WAT     H216524   4.790   4.350   3.042
 5428WAT      O16525   7.480   2.931   1.442
 5428WAT     H116526   7.557   2.947   1.505
 5428WAT     H216527   7.516   2.905   1.352
 5429WAT      O16528   3.016   9.597   0.765
 5429WAT     H116529   2.948   9.668   0.783
 5429WAT     H216530   2.969   9.511   0.744
 5430WAT      O16531   4.037   8.473   3.742
 5430WAT     H116532   4.135   8.478   3.719
 5430WAT     H216533   3.985   8.529   3.678
 5431WAT      O16534   2.628   1.041   1.081
 5431WAT     H116535   2.727   1.039   1.094
 5431WAT     H216536   2.586   0.966   1.133
 5432WAT      O16537   5.079   5.485   3.171
 5432WAT     H116538   5.145   5.423   3.214
 5432WAT     H216539   5.028   5.436   3.101
 5433WAT      O16540   2.472   8.285   4.159
 5433WAT     H116541   2.480   8.305   4.061
 5433WAT     H216542   2.433   8.364   4.206
 5434WAT      O16543   0.171   8.574   6.154
 5434WAT     H116544   0.177   8.673   6.145
 5434WAT     H216545   0.228   8.531   6.084
 5435WAT      O16546   8.480   6.054   2.434
 5435WAT     H116547   8.547   6.083   2.503
 5435WAT     H216548   8.528   6.023   2.352
 5436WAT      O16549   8.241   2.194   5.184
 5436WAT     H116550   8.325   2.193   5.131
 5436WAT     H216551   8.251   2.256   5.262
 5437WAT      O16552   2.708   7.902   6.489
 5437WAT     H116553   2.721   7.852   6.403
 5437WAT     H216554   2.776   7.873   6.556
 5438WAT      O16555   1.602   4.777   5.672
 5438WAT     H116556   1.680   4.716   5.658
 5438WAT     H216557   1.635   4.866   5.705
 5439WAT      O16558   0.458   3.217   1.723
 5439WAT     H116559   0.544   3.263   1.704
 5439WAT     H216560   0.449   3.204   1.822
 5440WAT      O16561   2.028   9.106   3.092
 5440WAT     H116562   2.026   9.053   3.176
 5440WAT     H216563   1.934   9.124   3.061
 5441WAT      O16564   9.769   2.691   2.144
 5441WAT     H116565   9.704   2.685   2.069
 5441WAT     H216566   9.761   2.780   2.188
 5442WAT      O16567   6.478   3.788   8.323
 5442WAT     H116568   6.438   3.880   8.317
 5442WAT     H216569   6.528   3.779   8.410
 5443WAT      O16570   1.308   9.286   3.764
 5443WAT     H116571   1.339   9.255   3.855
 5443WAT     H216572   1.374   9.256   3.695
 5444WAT      O16573   1.281   1.136   3.357
 5444WAT     H116574   1.196   1.152   3.408
 5444WAT     H216575   1.283   1.197   3.278
 5445WAT      O16576   7.072   9.495   4.885
 5445WAT     H116577   6.980   9.463   4.860
 5445WAT     H216578   7.139   9.427   4.857
 5446WAT      O16579   3.539   1.992   5.359
 5446WAT     H116580   3.631   2.031   5.356
 5446WAT     H216581   3.488   2.021   5.278
 5447WAT      O16582   1.756   9.582   0.776
 5447WAT     H116583   1.764   9.483   0.771
 5447WAT     H216584   1.813   9.616   0.851
 5448WAT      O16585   1.999   8.534   7.364
 5448WAT     H116586   1.933   8.459   7.353
 5448WAT     H216587   2.031   8.536   7.458
 5449WAT      O16588   3.265   0.997   1.384
 5449WAT     H116589   3.363   0.987   1.366
 5449WAT     H216590   3.252   1.036   1.475
 5450WAT      O16591   4.565   8.239   8.496
 5450WAT     H116592   4.499   8.188   8.440
 5450WAT     H216593   4.587   8.186   8.578
 5451WAT      O16594   9.723   7.463   4.248
 5451WAT     H116595   9.644   7.505   4.293
 5451WAT     H216596   9.728   7.495   4.153
 5452WAT      O16597   2.995   2.823   4.873
 5452WAT     H116598   3.037   2.734   4.852
 5452WAT     H216599   3.049   2.870   4.943
 5453WAT      O16600   9.150   5.198   2.341
 5453WAT     H116601   9.064   5.238   2.370
 5453WAT     H216602   9.181   5.241   2.256
 5454WAT      O16603   9.669   5.834   6.430
 5454WAT     H116604   9.712   5.867   6.514
 5454WAT     H216605   9.648   5.911   6.370
 5455WAT      O16606   9.822   8.643   9.783
 5455WAT     H116607   9.813   8.589   9.867
 5455WAT     H216608   9.731   8.668   9.750
 5456WAT      O16609   1.472   3.754   0.545
 5456WAT     H116610   1.380   3.714   0.550
 5456WAT     H216611   1.482   3.804   0.458
 5457WAT      O16612   6.504   7.938   6.528
 5457WAT     H116613   6.455   7.851   6.523
 5457WAT     H216614   6.534   7.965   6.437
 5458WAT      O16615   9.412   9.767   5.262
 5458WAT     H116616   9.507   9.764   5.293
 5458WAT     H216617   9.408   9.812   5.172
 5459WAT      O16618   6.819   5.805   6.047
 5459WAT     H116619   6.859   5.799   6.139
 5459WAT     H216620   6.880   5.762   5.981
 5460WAT      O16621   7.714   5.482   0.198
 5460WAT     H116622   7.635   5.420   0.208
 5460WAT     H216623   7.758   5.465   0.110
 5461WAT      O16624   6.063   3.710   7.562
 5461WAT     H116625   6.131   3.764   7.512
 5461WAT     H216626   6.106   3.626   7.594
 5462WAT      O16627   6.432   4.592   1.975
 5462WAT     H116628   6.423   4.685   1.940
 5462WAT     H216629   6.506   4.589   2.042
 5463WAT      O16630   6.091   2.477   9.474
 5463WAT     H116631   6.066   2.392   9.428
 5463WAT     H216632   6.136   2.457   9.561
 5464WAT      O16633   2.851   3.715   3.174
 5464WAT     H116634   2.848   3.654   3.094
 5464WAT     H216635   2.758   3.746   3.195
 5465WAT      O16636   4.433   0.657   5.255
 5465WAT     H116637   4.485   0.585   5.301
 5465WAT     H216638   4.488   0.696   5.181
 5466WAT      O16639   3.732   7.644   4.264
 5466WAT     H116640   3.661   7.584   4.302
 5466WAT     H216641   3.818   7.593   4.255
 5467WAT      O16642   8.855   9.521   2.277
 5467WAT     H116643   8.933   9.580   2.300
 5467WAT     H216644   8.776   9.547   2.333
 5468WAT      O16645   4.668   7.441   5.185
 5468WAT     H116646   4.598   7.380   5.222
 5468WAT     H216647   4.689   7.511   5.252
 5469WAT      O16648   9.273   7.229   1.771
 5469WAT     H116649   9.355   7.170   1.769
 5469WAT     H216650   9.296   7.318   1.733
 5470WAT      O16651   9.121   5.468   7.300
 5470WAT     H116652   9.024   5.450   7.282
 5470WAT     H216653   9.129   5.535   7.373
 5471WAT      O16654   8.248   2.082   2.291
 5471WAT     H116655   8.220   2.178   2.291
 5471WAT     H216656   8.339   2.075   2.334
 5472WAT      O16657   4.814   7.100   6.868
 5472WAT     H116658   4.893   7.157   6.845
 5472WAT     H216659   4.828   7.059   6.958
 5473WAT      O16660   4.429   6.874   6.706
 5473WAT     H116661   4.445   6.852   6.802
 5473WAT     H216662   4.507   6.923   6.669
 5474WAT      O16663   0.208   3.527   9.230
 5474WAT     H116664   0.231   3.446   9.176
 5474WAT     H216665   0.185   3.499   9.323
 5475WAT      O16666   3.125   4.638   0.986
 5475WAT     H116667   3.175   4.720   0.957
 5475WAT     H216668   3.049   4.664   1.045
 5476WAT      O16669   8.710   5.155   4.965
 5476WAT     H116670   8.708   5.109   4.876
 5476WAT     H216671   8.791   5.213   4.971
 5477WAT      O16672   2.480   7.758   6.882
 5477WAT     H116673   2.398   7.711   6.916
 5477WAT     H216674   2.455   7.851   6.854
 5478WAT      O16675   1.939   2.071   1.510
 5478WAT     H116676   1.935   2.092   1.413
 5478WAT     H216677   1.846   2.058   1.546
 5479WAT      O16678   2.994   4.522   4.172
 5479WAT     H116679   3.044   4.605   4.198
 5479WAT     H216680   3.042   4.475   4.099
 5480WAT      O16681   4.473   9.252   3.462
 5480WAT     H116682   4.405   9.325   3.454
 5480WAT     H216683   4.432   9.166   3.433
 5481WAT      O16684   1.267   0.585   1.000
 5481WAT     H116685   1.364   0.608   1.011
 5481WAT     H216686   1.247   0.567   0.904
 5482WAT      O16687   8.457   7.032   5.967
 5482WAT     H116688   8.378   6.989   5.922
 5482WAT     H216689   8.427   7.117   6.011
 5483WAT      O16690   0.135   7.231   8.448
 5483WAT     H116691   0.044   7.192   8.464
 5483WAT     H216692   0.137   7.273   8.357
 5484WAT      O16693   4.864   5.951   1.314
 5484WAT     H116694   4.934   6.016   1.340
 5484WAT     H216695   4.829   5.974   1.223
 5485WAT      O16696   3.019   3.004   8.985
 5485WAT     H116697   2.932   3.053   8.981
 5485WAT     H216698   3.052   2.987   8.892
 5486WAT      O16699   3.652   3.402   9.285
 5486WAT     H116700   3.748   3.401   9.311
 5486WAT     H216701   3.612   3.312   9.301
 5487WAT      O16702   8.377   1.381   2.760
 5487WAT     H116703   8.369   1.445   2.837
 5487WAT     H216704   8.441   1.418   2.693
 5488WAT      O16705   1.382   1.661   5.087
 5488WAT     H116706   1.357   1.633   5.180
 5488WAT     H216707   1.352   1.591   5.022
 5489WAT      O16708   9.398   2.074   7.235
 5489WAT     H116709   9.337   2.153   7.244
 5489WAT     H216710   9.492   2.105   7.225
 5490WAT      O16711   2.017   0.732   0.994
 5490WAT     H116712   1.991   0.758   1.086
 5490WAT     H216713   2.005   0.810   0.932
 5491WAT      O16714   4.935   5.717   3.613
 5491WAT     H116715   4.992   5.778   3.669
 5491WAT     H216716   4.979   5.702   3.525
 5492WAT      O16717   5.307   4.447   8.047
 5492WAT     H116718   5.337   4.377   7.982
 5492WAT     H216719   5.356   4.532   8.030
 5493WAT      O16720   4.500   2.152   0.909
 5493WAT     H116721   4.505   2.211   0.990
 5493WAT     H216722   4.567   2.183   0.842
 5494WAT      O16723   3.767   4.163   0.552
 5494WAT     H116724   3.719   4.185   0.467
 5494WAT     H216725   3.752   4.235   0.619
 5495WAT      O16726   4.009   4.260   8.478
 5495WAT     H116727   4.102   4.241   8.445
 5495WAT     H216728   3.954   4.297   8.403
 5496WAT      O16729   2.705   4.077   4.345
 5496WAT     H116730   2.619   4.125   4.362
 5496WAT     H216731   2.758   4.128   4.276
 5497WAT      O16732   8.612   2.563   2.316
 5497WAT     H116733   8.552   2.563   2.236
 5497WAT     H216734   8.628   2.469   2.346
 5498WAT      O16735   6.224   0.899   2.789
 5498WAT     H116736   6.140   0.845   2.784
 5498WAT     H216737   6.249   0.914   2.884
 5499WAT      O16738   0.790   6.541   2.908
 5499WAT     H116739   0.879   6.524   2.866
 5499WAT     H216740   0.802   6.545   3.008
 5500WAT      O16741   2.736   3.034   5.257
 5500WAT     H116742   2.810   3.089   5.217
 5500WAT     H216743   2.655   3.090   5.269
 5501WAT      O16744   6.226   4.857   8.633
 5501WAT     H116745   6.198   4.768   8.598
 5501WAT     H216746   6.146   4.906   8.667
 5502WAT      O16747   2.560   4.672   0.397
 5502WAT     H116748   2.651   4.715   0.391
 5502WAT     H216749   2.561   4.601   0.467
 5503WAT      O16750   3.719   6.960   8.944
 5503WAT     H116751   3.686   6.962   8.850
 5503WAT     H216752   3.722   6.866   8.977
 5504WAT      O16753   2.375   2.031   3.171
 5504WAT     H116754   2.446   1.974   3.131
 5504WAT     H216755   2.285   1.997   3.142
 5505WAT      O16756   6.797   0.081   3.292
 5505WAT     H116757   6.836   0.162   3.336
 5505WAT     H216758   6.720   0.047   3.346
 5506WAT      O16759   2.993   7.420   6.639
 5506WAT     H116760   3.050   7.489   6.685
 5506WAT     H216761   2.917   7.465   6.593
 5507WAT      O16762   4.656   2.733   0.935
 5507WAT     H116763   4.660   2.643   0.893
 5507WAT     H216764   4.690   2.728   1.029
 5508WAT      O16765   4.169   0.217   1.807
 5508WAT     H116766   4.253   0.184   1.766
 5508WAT     H216767   4.167   0.317   1.803
 5509WAT      O16768   0.116   2.387   3.959
 5509WAT     H116769   0.074   2.410   4.047
 5509WAT     H216770   0.068   2.437   3.886
 5510WAT      O16771   3.368   6.508   1.571
 5510WAT     H116772   3.340   6.434   1.632
 5510WAT     H216773   3.467   6.506   1.560
 5511WAT      O16774   4.502   9.134   3.748
 5511WAT     H116775   4.406   9.150   3.768
 5511WAT     H216776   4.527   9.180   3.662
 5512WAT      O16777   9.490   7.271   0.413
 5512WAT     H116778   9.504   7.330   0.334
 5512WAT     H216779   9.542   7.186   0.402
 5513WAT      O16780   5.789   0.841   1.032
 5513WAT     H116781   5.747   0.926   1.061
 5513WAT     H216782   5.722   0.767   1.037
 5514WAT      O16783   5.676   7.281   2.391
 5514WAT     H116784   5.646   7.232   2.310
 5514WAT     H216785   5.754   7.233   2.432
 5515WAT      O16786   3.009   9.562   5.822
 5515WAT     H116787   2.951   9.564   5.741
 5515WAT     H216788   3.060   9.648   5.829
 5516WAT      O16789   4.086   9.431   7.347
 5516WAT     H116790   4.041   9.463   7.431
 5516WAT     H216791   4.125   9.340   7.363
 5517WAT      O16792   9.828   2.761   1.534
 5517WAT     H116793   9.854   2.701   1.610
 5517WAT     H216794   9.762   2.829   1.566
 5518WAT      O16795   0.837   7.651   1.970
 5518WAT     H116796   0.896   7.710   2.026
 5518WAT     H216797   0.850   7.556   1.997
 5519WAT      O16798   8.268   1.033   8.538
 5519WAT     H116799   8.218   1.061   8.456
 5519WAT     H216800   8.355   1.082   8.543
 5520WAT      O16801   2.490   7.696   2.864
 5520WAT     H116802   2.495   7.774   2.802
 5520WAT     H216803   2.471   7.729   2.957
 5521WAT      O16804   6.236   0.033   3.129
 5521WAT     H116805   6.137   0.023   3.121
 5521WAT     H216806   6.277  -0.057   3.149
 5522WAT      O16807   8.064   9.615   9.374
 5522WAT     H116808   7.967   9.609   9.398
 5522WAT     H216809   8.086   9.544   9.307
 5523WAT      O16810   5.793   4.486   2.486
 5523WAT     H116811   5.821   4.574   2.523
 5523WAT     H216812   5.873   4.435   2.454
 5524WAT      O16813   6.715   3.585   0.713
 5524WAT     H116814   6.812   3.599   0.736
 5524WAT     H216815   6.660   3.592   0.797
 5525WAT      O16816   2.744   4.912   8.137
 5525WAT     H116817   2.733   4.829   8.193
 5525WAT     H216818   2.666   4.921   8.075
 5526WAT      O16819   1.799   8.680   8.406
 5526WAT     H116820   1.720   8.731   8.438
 5526WAT     H216821   1.817   8.702   8.310
 5527WAT      O16822   4.741   1.464   4.897
 5527WAT     H116823   4.681   1.389   4.928
 5527WAT     H216824   4.690   1.522   4.834
 5528WAT      O16825   1.337   8.350   9.029
 5528WAT     H116826   1.424   8.302   9.021
 5528WAT     H216827   1.335   8.402   9.114
 5529WAT      O16828   9.044   2.573   3.606
 5529WAT     H116829   9.118   2.506   3.608
 5529WAT     H216830   9.078   2.662   3.638
 5530WAT      O16831   6.484   1.591   4.636
 5530WAT     H116832   6.487   1.657   4.561
 5530WAT     H216833   6.476   1.499   4.598
 5531WAT      O16834   3.905   3.928   1.766
 5531WAT     H116835   3.858   3.883   1.842
 5531WAT     H216836   3.845   3.927   1.686
 5532WAT      O16837   7.284   8.957   0.026
 5532WAT     H116838   7.284   8.943   0.125
 5532WAT     H216839   7.282   9.056   0.006
 5533WAT      O16840   4.819   8.754   0.662
 5533WAT     H116841   4.850   8.659   0.659
 5533WAT     H216842   4.720   8.757   0.650
 5534WAT      O16843   9.141   5.554   4.864
 5534WAT     H116844   9.150   5.472   4.921
 5534WAT     H216845   9.232   5.592   4.847
 5535WAT      O16846   4.155   4.904   8.060
 5535WAT     H116847   4.120   4.925   7.968
 5535WAT     H216848   4.254   4.889   8.055
 5536WAT      O16849   7.913   4.662   6.502
 5536WAT     H116850   7.953   4.636   6.590
 5536WAT     H216851   7.893   4.579   6.449
 5537WAT      O16852   8.296   7.943   9.254
 5537WAT     H116853   8.209   7.986   9.278
 5537WAT     H216854   8.330   7.982   9.168
 5538WAT      O16855   9.517   1.571   7.903
 5538WAT     H116856   9.591   1.527   7.953
 5538WAT     H216857   9.456   1.501   7.865
 5539WAT      O16858   3.938   7.142   1.873
 5539WAT     H116859   3.872   7.209   1.909
 5539WAT     H216860   4.025   7.152   1.923
 5540WAT      O16861   1.159   8.003   0.650
 5540WAT     H116862   1.225   8.077   0.661
 5540WAT     H216863   1.182   7.928   0.713
 5541WAT      O16864   7.481   2.083   6.241
 5541WAT     H116865   7.534   2.168   6.239
 5541WAT     H216866   7.422   2.079   6.160
 5542WAT      O16867   4.440   6.747   1.621
 5542WAT     H116868   4.465   6.651   1.608
 5542WAT     H216869   4.374   6.775   1.551
 5543WAT      O16870   4.361   9.837   8.301
 5543WAT     H116871   4.422   9.914   8.318
 5543WAT     H216872   4.325   9.802   8.388
 5544WAT      O16873   1.190   2.120   9.497
 5544WAT     H116874   1.158   2.070   9.578
 5544WAT     H216875   1.270   2.175   9.522
 5545WAT      O16876   0.687   2.242   2.105
 5545WAT     H116877   0.781   2.231   2.139
 5545WAT     H216878   0.650   2.152   2.083
 5546WAT      O16879   9.407   4.336   8.038
 5546WAT     H116880   9.463   4.254   8.042
 5546WAT     H216881   9.415   4.377   7.947
 5547WAT      O16882   4.653   0.142   6.457
 5547WAT     H116883   4.677   0.083   6.534
 5547WAT     H216884   4.656   0.237   6.486
 5548WAT      O16885   3.062   0.867   2.141
 5548WAT     H116886   2.964   0.880   2.126
 5548WAT     H216887   3.098   0.944   2.193
 5549WAT      O16888   6.384   8.082   4.405
 5549WAT     H116889   6.441   8.164   4.419
 5549WAT     H216890   6.373   8.035   4.493
 5550WAT      O16891   4.550   4.184   7.941
 5550WAT     H116892   4.597   4.097   7.954
 5550WAT     H216893   4.617   4.258   7.940
 5551WAT      O16894   5.334   3.284   8.772
 5551WAT     H116895   5.295   3.192   8.784
 5551WAT     H216896   5.431   3.282   8.797
 5552WAT      O16897   4.490   0.194   9.553
 5552WAT     H116898   4.408   0.229   9.598
 5552WAT     H216899   4.464   0.122   9.488
 5553WAT      O16900   8.806   7.632   4.425
 5553WAT     H116901   8.903   7.651   4.412
 5553WAT     H216902   8.779   7.655   4.519
 5554WAT      O16903   6.243   8.539   3.254
 5554WAT     H116904   6.287   8.505   3.337
 5554WAT     H216905   6.149   8.505   3.249
 5555WAT      O16906   2.757   1.910   4.960
 5555WAT     H116907   2.737   1.898   5.057
 5555WAT     H216908   2.788   2.003   4.944
 5556WAT      O16909   9.839   2.061   2.809
 5556WAT     H116910   9.810   2.126   2.738
 5556WAT     H216911   9.929   2.088   2.842
 5557WAT      O16912   1.783   5.694   9.510
 5557WAT     H116913   1.749   5.779   9.550
 5557WAT     H216914   1.880   5.705   9.488
 5558WAT      O16915   6.793   8.817   9.138
 5558WAT     H116916   6.733   8.794   9.214
 5558WAT     H216917   6.863   8.882   9.168
 5559WAT      O16918   0.621   9.107   2.387
 5559WAT     H116919   0.643   9.092   2.483
 5559WAT     H216920   0.679   9.049   2.330
 5560WAT      O16921   6.780   8.659   3.562
 5560WAT     H116922   6.684   8.681   3.543
 5560WAT     H216923   6.825   8.634   3.476
 5561WAT      O16924   8.079   9.285   1.684
 5561WAT     H116925   8.079   9.212   1.616
 5561WAT     H216926   8.142   9.263   1.757
 5562WAT      O16927   9.120   9.084   5.860
 5562WAT     H116928   9.076   9.079   5.771
 5562WAT     H216929   9.050   9.090   5.931
 5563WAT      O16930   6.997   0.867   8.956
 5563WAT     H116931   7.074   0.916   8.915
 5563WAT     H216932   6.926   0.933   8.981
 5564WAT      O16933   2.515   2.425   4.626
 5564WAT     H116934   2.567   2.343   4.604
 5564WAT     H216935   2.563   2.506   4.592
 5565WAT      O16936   4.386   0.978   1.820
 5565WAT     H116937   4.349   0.942   1.906
 5565WAT     H216938   4.394   1.078   1.826
 5566WAT      O16939   5.933   3.062   6.665
 5566WAT     H116940   6.014   3.078   6.608
 5566WAT     H216941   5.957   3.005   6.743
 5567WAT      O16942   7.085   8.756   2.817
 5567WAT     H116943   7.106   8.853   2.828
 5567WAT     H216944   7.126   8.705   2.892
 5568WAT      O16945   2.883   2.184   5.576
 5568WAT     H116946   2.959   2.177   5.641
 5568WAT     H216947   2.911   2.148   5.487
 5569WAT      O16948   0.681   1.945   6.454
 5569WAT     H116949   0.669   1.977   6.548
 5569WAT     H216950   0.744   2.006   6.406
 5570WAT      O16951   7.945   8.908   5.304
 5570WAT     H116952   7.874   8.856   5.353
 5570WAT     H216953   7.912   8.931   5.212
 5571WAT      O16954   0.345   3.184   3.900
 5571WAT     H116955   0.426   3.153   3.950
 5571WAT     H216956   0.353   3.282   3.881
 5572WAT      O16957   6.429   1.252   1.739
 5572WAT     H116958   6.449   1.178   1.804
 5572WAT     H216959   6.345   1.298   1.767
 5573WAT      O16960   7.347   7.091   7.769
 5573WAT     H116961   7.369   7.005   7.723
 5573WAT     H216962   7.397   7.095   7.856
 5574WAT      O16963   5.716   9.780   6.151
 5574WAT     H116964   5.687   9.874   6.167
 5574WAT     H216965   5.726   9.764   6.053
 5575WAT      O16966   6.061   5.687   0.050
 5575WAT     H116967   6.010   5.608   0.084
 5575WAT     H216968   6.047   5.696  -0.048
 5576WAT      O16969   1.591   2.403   3.518
 5576WAT     H116970   1.518   2.392   3.451
 5576WAT     H216971   1.678   2.417   3.470
 5577WAT      O16972   4.607   6.339   1.203
 5577WAT     H116973   4.705   6.326   1.189
 5577WAT     H216974   4.556   6.273   1.148
 5578WAT      O16975   7.232   5.948   4.501
 5578WAT     H116976   7.178   6.032   4.503
 5578WAT     H216977   7.326   5.968   4.531
 5579WAT      O16978   9.608   8.795   0.080
 5579WAT     H116979   9.554   8.715   0.108
 5579WAT     H216980   9.705   8.773   0.084
 5580WAT      O16981   8.368   9.804   0.555
 5580WAT     H116982   8.417   9.765   0.477
 5580WAT     H216983   8.370   9.739   0.631
 5581WAT      O16984   1.801   8.314   0.672
 5581WAT     H116985   1.838   8.267   0.752
 5581WAT     H216986   1.796   8.412   0.690
 5582WAT      O16987   5.664   9.803   6.629
 5582WAT     H116988   5.745   9.860   6.642
 5582WAT     H216989   5.683   9.710   6.661
 5583WAT      O16990   7.010   2.391   4.890
 5583WAT     H116991   6.946   2.352   4.956
 5583WAT     H216992   7.008   2.337   4.806
 5584WAT      O16993   0.544   3.095   4.082
 5584WAT     H116994   0.614   3.029   4.056
 5584WAT     H216995   0.584   3.166   4.139
 5585WAT      O16996   4.989   1.074   4.327
 5585WAT     H116997   4.958   1.120   4.243
 5585WAT     H216998   5.075   1.025   4.307
 5586WAT      O16999   3.211   1.812   3.848
 5586WAT     H117000   3.298   1.771   3.874
 5586WAT     H217001   3.223   1.911   3.836
 5587WAT      O17002   8.440   4.528   3.349
 5587WAT     H117003   8.359   4.585   3.362
 5587WAT     H217004   8.441   4.456   3.417
 5588WAT      O17005   2.443   3.714   7.364
 5588WAT     H117006   2.460   3.720   7.265
 5588WAT     H217007   2.529   3.692   7.411
 5589WAT      O17008   2.452   9.454   4.670
 5589WAT     H117009   2.424   9.383   4.606
 5589WAT     H217010   2.509   9.415   4.742
 5590WAT      O17011   4.027   7.380   1.209
 5590WAT     H117012   3.947   7.378   1.149
 5590WAT     H217013   3.996   7.389   1.304
 5591WAT      O17014   1.470   7.027   0.018
 5591WAT     H117015   1.465   6.961  -0.057
 5591WAT     H217016   1.515   7.110  -0.013
 5592WAT      O17017   1.193   1.360   4.026
 5592WAT     H117018   1.114   1.325   4.076
 5592WAT     H217019   1.269   1.296   4.034
 5593WAT      O17020   5.000   0.721   7.956
 5593WAT     H117021   5.060   0.695   7.880
 5593WAT     H217022   5.041   0.691   8.042
 5594WAT      O17023   6.644   2.490   3.292
 5594WAT     H117024   6.671   2.398   3.265
 5594WAT     H217025   6.585   2.485   3.373
 5595WAT      O17026   4.819   5.618   9.724
 5595WAT     H117027   4.865   5.561   9.656
 5595WAT     H217028   4.724   5.632   9.697
 5596WAT      O17029   5.959   5.338   3.715
 5596WAT     H117030   5.961   5.429   3.675
 5596WAT     H217031   5.947   5.344   3.814
 5597WAT      O17032   1.807   3.351   8.612
 5597WAT     H117033   1.787   3.279   8.679
 5597WAT     H217034   1.779   3.439   8.649
 5598WAT      O17035   4.092   8.069   8.459
 5598WAT     H117036   4.177   8.090   8.411
 5598WAT     H217037   4.039   8.003   8.406
 5599WAT      O17038   9.001   3.550   9.248
 5599WAT     H117039   8.945   3.539   9.330
 5599WAT     H217040   9.064   3.472   9.240
 5600WAT      O17041   0.225   9.002   1.201
 5600WAT     H117042   0.182   9.090   1.216
 5600WAT     H217043   0.181   8.932   1.258
 5601WAT      O17044   7.550   0.332   1.552
 5601WAT     H117045   7.557   0.406   1.485
 5601WAT     H217046   7.577   0.365   1.642
 5602WAT      O17047   7.492   7.390   6.761
 5602WAT     H117048   7.463   7.308   6.810
 5602WAT     H217049   7.411   7.441   6.732
 5603WAT      O17050   8.238   7.098   7.843
 5603WAT     H117051   8.261   7.154   7.764
 5603WAT     H217052   8.314   7.098   7.908
 5604WAT      O17053   4.540   2.751   3.761
 5604WAT     H117054   4.451   2.719   3.793
 5604WAT     H217055   4.548   2.735   3.663
 5605WAT      O17056   0.935   4.097   2.276
 5605WAT     H117057   0.966   4.190   2.298
 5605WAT     H217058   0.851   4.078   2.327
 5606WAT      O17059   0.183   1.610   0.590
 5606WAT     H117060   0.262   1.641   0.536
 5606WAT     H217061   0.099   1.643   0.548
 5607WAT      O17062   7.161   1.761   3.232
 5607WAT     H117063   7.249   1.721   3.256
 5607WAT     H217064   7.107   1.775   3.314
 5608WAT      O17065   3.017   3.961   3.851
 5608WAT     H117066   3.075   3.931   3.776
 5608WAT     H217067   3.007   3.887   3.917
 5609WAT      O17068   6.458   7.052   0.310
 5609WAT     H117069   6.513   7.128   0.276
 5609WAT     H217070   6.456   6.979   0.242
 5610WAT      O17071   4.486   9.133   0.564
 5610WAT     H117072   4.461   9.229   0.577
 5610WAT     H217073   4.586   9.125   0.558
 5611WAT      O17074   0.419   8.230   4.957
 5611WAT     H117075   0.491   8.291   4.991
 5611WAT     H217076   0.329   8.270   4.978
 5612WAT      O17077   5.657   4.366   0.620
 5612WAT     H117078   5.563   4.334   0.608
 5612WAT     H217079   5.677   4.437   0.553
 5613WAT      O17080   5.591   1.548   0.109
 5613WAT     H117081   5.655   1.604   0.055
 5613WAT     H217082   5.500   1.592   0.108
 5614WAT      O17083   5.965   1.704   0.983
 5614WAT     H117084   6.029   1.745   0.919
 5614WAT     H217085   5.971   1.752   1.071
 5615WAT      O17086   0.338   4.790   8.855
 5615WAT     H117087   0.297   4.849   8.785
 5615WAT     H217088   0.289   4.703   8.858
 5616WAT      O17089   5.649   2.098   1.990
 5616WAT     H117090   5.679   2.099   1.895
 5616WAT     H217091   5.554   2.130   1.995
 5617WAT      O17092   8.382   3.237   4.128
 5617WAT     H117093   8.289   3.227   4.092
 5617WAT     H217094   8.380   3.223   4.227
 5618WAT      O17095   1.813   8.353   1.661
 5618WAT     H117096   1.829   8.451   1.670
 5618WAT     H217097   1.900   8.305   1.664
 5619WAT      O17098   5.623   7.306   7.285
 5619WAT     H117099   5.539   7.277   7.332
 5619WAT     H217100   5.617   7.404   7.264
 5620WAT      O17101   9.302   2.893   8.170
 5620WAT     H117102   9.345   2.811   8.209
 5620WAT     H217103   9.210   2.871   8.139
 5621WAT      O17104   3.344   5.292   2.725
 5621WAT     H117105   3.412   5.226   2.756
 5621WAT     H217106   3.364   5.319   2.631
 5622WAT      O17107   6.633   7.305   6.859
 5622WAT     H117108   6.569   7.263   6.795
 5622WAT     H217109   6.726   7.293   6.826
 5623WAT      O17110   8.595   9.331   3.777
 5623WAT     H117111   8.565   9.323   3.873
 5623WAT     H217112   8.650   9.414   3.766
 5624WAT      O17113   7.970   4.691   3.248
 5624WAT     H117114   7.966   4.765   3.181
 5624WAT     H217115   7.896   4.701   3.314
 5625WAT      O17116   5.466   8.830   1.382
 5625WAT     H117117   5.505   8.802   1.294
 5625WAT     H217118   5.367   8.812   1.382
 5626WAT      O17119   5.492   7.170   9.494
 5626WAT     H117120   5.538   7.205   9.576
 5626WAT     H217121   5.404   7.130   9.520
 5627WAT      O17122   6.943   7.080   0.237
 5627WAT     H117123   6.894   7.041   0.158
 5627WAT     H217124   6.893   7.059   0.321
 5628WAT      O17125   0.712   0.821   8.888
 5628WAT     H117126   0.623   0.816   8.933
 5628WAT     H217127   0.743   0.730   8.863
 5629WAT      O17128   1.838   5.516   2.073
 5629WAT     H117129   1.753   5.541   2.119
 5629WAT     H217130   1.817   5.465   1.989
 5630WAT      O17131   9.326   0.951   3.793
 5630WAT     H117132   9.314   0.974   3.890
 5630WAT     H217133   9.395   1.011   3.753
 5631WAT      O17134   6.728   9.386   0.775
 5631WAT     H117135   6.632   9.383   0.745
 5631WAT     H217136   6.732   9.420   0.869
 5632WAT      O17137   5.211   4.915   8.582
 5632WAT     H117138   5.190   4.992   8.521
 5632WAT     H217139   5.248   4.950   8.668
 5633WAT      O17140   6.423   3.071   3.894
 5633WAT     H117141   6.511   3.070   3.845
 5633WAT     H217142   6.383   2.980   3.892
 5634WAT      O17143   6.886   6.428   6.501
 5634WAT     H117144   6.794   6.415   6.463
 5634WAT     H217145   6.953   6.397   6.434
 5635WAT      O17146   3.275   2.827   2.858
 5635WAT     H117147   3.177   2.817   2.844
 5635WAT     H217148   3.309   2.751   2.913
 5636WAT      O17149   9.539   0.704   4.079
 5636WAT     H117150   9.592   0.634   4.128
 5636WAT     H217151   9.455   0.663   4.043
 5637WAT      O17152   4.295   2.268   8.069
 5637WAT     H117153   4.307   2.366   8.089
 5637WAT     H217154   4.385   2.226   8.056
 5638WAT      O17155   8.329   1.812   0.107
 5638WAT     H117156   8.419   1.809   0.151
 5638WAT     H217157   8.340   1.796   0.009
 5639WAT      O17158   0.570   2.103   8.095
 5639WAT     H117159   0.665   2.119   8.067
 5639WAT     H217160   0.569   2.065   8.188
 5640WAT      O17161   7.919   3.924   2.306
 5640WAT     H117162   7.917   3.978   2.222
 5640WAT     H217163   8.000   3.866   2.307
 5641WAT      O17164   3.306   9.650   9.724
 5641WAT     H117165   3.302   9.747   9.747
 5641WAT     H217166   3.317   9.639   9.625
 5642WAT      O17167   7.940   6.172   7.278
 5642WAT     H117168   7.967   6.265   7.304
 5642WAT     H217169   7.863   6.143   7.334
 5643WAT      O17170   2.091   7.493   2.915
 5643WAT     H117171   2.082   7.501   2.816
 5643WAT     H217172   2.188   7.498   2.940
 5644WAT      O17173   2.307   8.296   8.584
 5644WAT     H117174   2.305   8.200   8.611
 5644WAT     H217175   2.273   8.305   8.491
 5645WAT      O17176   1.582   8.379   8.748
 5645WAT     H117177   1.532   8.462   8.774
 5645WAT     H217178   1.680   8.396   8.756
 5646WAT      O17179   8.513   2.295   1.634
 5646WAT     H117180   8.576   2.343   1.695
 5646WAT     H217181   8.553   2.207   1.607
 5647WAT      O17182   6.580   9.306   0.162
 5647WAT     H117183   6.592   9.394   0.207
 5647WAT     H217184   6.626   9.308   0.073
 5648WAT      O17185   3.608   8.139   4.441
 5648WAT     H117186   3.562   8.183   4.364
 5648WAT     H217187   3.587   8.189   4.525
 5649WAT      O17188   6.742   6.911   1.197
 5649WAT     H117189   6.687   6.905   1.280
 5649WAT     H217190   6.699   6.975   1.133
 5650WAT      O17191   5.724   6.641   7.839
 5650WAT     H117192   5.666   6.572   7.882
 5650WAT     H217193   5.816   6.602   7.824
 5651WAT      O17194   9.451   2.601   4.558
 5651WAT     H117195   9.543   2.606   4.597
 5651WAT     H217196   9.438   2.677   4.495
 5652WAT      O17197   0.220   0.691   6.404
 5652WAT     H117198   0.196   0.788   6.414
 5652WAT     H217199   0.198   0.660   6.312
 5653WAT      O17200   4.333   4.046   9.520
 5653WAT     H117201   4.248   4.098   9.526
 5653WAT     H217202   4.398   4.095   9.462
 5654WAT      O17203   6.536   1.304   7.428
 5654WAT     H117204   6.489   1.221   7.459
 5654WAT     H217205   6.558   1.295   7.330
 5655WAT      O17206   1.254   9.105   7.555
 5655WAT     H117207   1.278   9.192   7.513
 5655WAT     H217208   1.159   9.083   7.533
 5656WAT      O17209   9.460   2.315   2.118
 5656WAT     H117210   9.413   2.380   2.058
 5656WAT     H217211   9.507   2.246   2.063
 5657WAT      O17212   0.708   0.203   3.035
 5657WAT     H117213   0.697   0.262   3.115
 5657WAT     H217214   0.622   0.157   3.015
 5658WAT      O17215   2.646   9.043   9.149
 5658WAT     H117216   2.665   9.059   9.052
 5658WAT     H217217   2.657   9.129   9.199
 5659WAT      O17218   3.386   6.602   7.587
 5659WAT     H117219   3.360   6.518   7.540
 5659WAT     H217220   3.486   6.610   7.588
 5660WAT      O17221   2.154   9.794   1.089
 5660WAT     H117222   2.231   9.751   1.041
 5660WAT     H217223   2.166   9.783   1.187
 5661WAT      O17224   4.435   2.094   1.575
 5661WAT     H117225   4.530   2.116   1.553
 5661WAT     H217226   4.375   2.163   1.534
 5662WAT      O17227   3.498   7.944   0.143
 5662WAT     H117228   3.453   7.892   0.071
 5662WAT     H217229   3.544   7.882   0.206
 5663WAT      O17230   7.608   8.579   9.149
 5663WAT     H117231   7.586   8.627   9.234
 5663WAT     H217232   7.636   8.645   9.079
 5664WAT      O17233   8.285   1.844   6.091
 5664WAT     H117234   8.228   1.764   6.109
 5664WAT     H217235   8.378   1.814   6.069
 5665WAT      O17236   3.473   6.996   4.693
 5665WAT     H117237   3.537   7.011   4.769
 5665WAT     H217238   3.379   7.008   4.726
 5666WAT      O17239   2.360   2.734   8.530
 5666WAT     H117240   2.330   2.665   8.595
 5666WAT     H217241   2.460   2.741   8.532
 5667WAT      O17242   8.659   6.382   1.354
 5667WAT     H117243   8.698   6.377   1.262
 5667WAT     H217244   8.625   6.292   1.381
 5668WAT      O17245   4.153   0.406   1.063
 5668WAT     H117246   4.160   0.423   0.965
 5668WAT     H217247   4.127   0.491   1.109
 5669WAT      O17248   7.677   8.716   4.712
 5669WAT     H117249   7.687   8.617   4.727
 5669WAT     H217250   7.639   8.732   4.621
 5670WAT      O17251   8.325   2.410   8.491
 5670WAT     H117252   8.375   2.357   8.559
 5670WAT     H217253   8.345   2.507   8.503
 5671WAT      O17254   8.377   3.503   5.654
 5671WAT     H117255   8.325   3.588   5.656
 5671WAT     H217256   8.422   3.492   5.565
 5672WAT      O17257   0.043   4.788   7.303
 5672WAT     H117258   0.123   4.813   7.357
 5672WAT     H217259  -0.025   4.745   7.362
 5673WAT      O17260   0.108   9.444   4.949
 5673WAT     H117261   0.037   9.482   5.009
 5673WAT     H217262   0.075   9.359   4.908
 5674WAT      O17263   4.041   5.966   2.600
 5674WAT     H117264   3.980   6.020   2.657
 5674WAT     H217265   4.134   6.001   2.609
 5675WAT      O17266   0.007   8.092   8.432
 5675WAT     H117267   0.056   8.162   8.380
 5675WAT     H217268   0.037   8.095   8.528
 5676WAT      O17269   0.911   5.661   1.209
 5676WAT     H117270   0.992   5.717   1.193
 5676WAT     H217271   0.834   5.697   1.157
 5677WAT      O17272   1.603   7.667   9.049
 5677WAT     H117273   1.537   7.650   8.975
 5677WAT     H217274   1.606   7.765   9.068
 5678WAT      O17275   9.089   6.899   2.212
 5678WAT     H117276   9.167   6.897   2.276
 5678WAT     H217277   9.014   6.845   2.250
 5679WAT      O17278   1.827   1.323   8.388
 5679WAT     H117279   1.904   1.261   8.372
 5679WAT     H217280   1.831   1.398   8.322
 5680WAT      O17281   5.772   1.542   4.004
 5680WAT     H117282   5.694   1.574   3.951
 5680WAT     H217283   5.853   1.596   3.980
 5681WAT      O17284   3.381   8.248   0.891
 5681WAT     H117285   3.438   8.309   0.947
 5681WAT     H217286   3.285   8.269   0.906
 5682WAT      O17287   4.298   5.976   7.987
 5682WAT     H117288   4.216   5.981   8.044
 5682WAT     H217289   4.349   6.062   7.994
 5683WAT      O17290   2.283   3.209   8.283
 5683WAT     H117291   2.222   3.288   8.277
 5683WAT     H217292   2.289   3.164   8.194
 5684WAT      O17293   8.735   3.503   6.376
 5684WAT     H117294   8.788   3.420   6.365
 5684WAT     H217295   8.676   3.517   6.296
 5685WAT      O17296   9.778   8.175   9.634
 5685WAT     H117297   9.827   8.190   9.548
 5685WAT     H217298   9.740   8.083   9.635
 5686WAT      O17299   7.749   9.202   2.383
 5686WAT     H117300   7.709   9.270   2.443
 5686WAT     H217301   7.843   9.229   2.360
 5687WAT      O17302   0.791   5.141   6.768
 5687WAT     H117303   0.870   5.198   6.788
 5687WAT     H217304   0.710   5.198   6.757
 5688WAT      O17305   3.761   0.652   7.909
 5688WAT     H117306   3.667   0.618   7.904
 5688WAT     H217307   3.783   0.675   8.004
 5689WAT      O17308   0.439   2.111   5.765
 5689WAT     H117309   0.516   2.070   5.814
 5689WAT     H217310   0.400   2.044   5.702
 5690WAT      O17311   3.448   2.804   7.704
 5690WAT     H117312   3.523   2.740   7.720
 5690WAT     H217313   3.361   2.761   7.727
 5691WAT      O17314   8.318   5.615   4.454
 5691WAT     H117315   8.362   5.529   4.478
 5691WAT     H217316   8.333   5.682   4.527
 5692WAT      O17317   1.470   5.925   2.037
 5692WAT     H117318   1.457   5.915   2.135
 5692WAT     H217319   1.566   5.947   2.018
 5693WAT      O17320   6.573   1.820   2.108
 5693WAT     H117321   6.483   1.852   2.138
 5693WAT     H217322   6.588   1.850   2.014
 5694WAT      O17323   2.783   0.804   9.652
 5694WAT     H117324   2.732   0.753   9.583
 5694WAT     H217325   2.813   0.742   9.725
 5695WAT      O17326   4.761   9.132   2.749
 5695WAT     H117327   4.791   9.131   2.654
 5695WAT     H217328   4.840   9.119   2.809
 5696WAT      O17329   4.483   7.283   0.847
 5696WAT     H117330   4.453   7.369   0.805
 5696WAT     H217331   4.445   7.275   0.939
 5697WAT      O17332   2.306   4.838   3.979
 5697WAT     H117333   2.375   4.787   3.927
 5697WAT     H217334   2.325   4.935   3.974
 5698WAT      O17335   4.669   8.176   6.708
 5698WAT     H117336   4.712   8.262   6.733
 5698WAT     H217337   4.666   8.167   6.609
 5699WAT      O17338   9.485   7.765   1.973
 5699WAT     H117339   9.562   7.750   2.034
 5699WAT     H217340   9.426   7.684   1.973
 5700WAT      O17341   3.427   7.764   3.107
 5700WAT     H117342   3.461   7.706   3.181
 5700WAT     H217343   3.487   7.755   3.027
 5701WAT      O17344   1.632   0.800   9.618
 5701WAT     H117345   1.659   0.890   9.586
 5701WAT     H217346   1.657   0.731   9.550
 5702WAT      O17347   8.158   4.976   3.130
 5702WAT     H117348   8.233   4.921   3.095
 5702WAT     H217349   8.156   4.971   3.230
 5703WAT      O17350   5.490   5.319   5.567
 5703WAT     H117351   5.469   5.271   5.482
 5703WAT     H217352   5.583   5.296   5.596
 5704WAT      O17353   8.991   9.658   1.608
 5704WAT     H117354   9.019   9.745   1.569
 5704WAT     H217355   8.907   9.671   1.661
 5705WAT      O17356   0.474   2.930   5.800
 5705WAT     H117357   0.418   2.850   5.778
 5705WAT     H217358   0.415   3.005   5.831
 5706WAT      O17359   3.174   2.315   0.905
 5706WAT     H117360   3.150   2.345   0.813
 5706WAT     H217361   3.094   2.270   0.947
 5707WAT      O17362   7.126   3.504   7.477
 5707WAT     H117363   7.119   3.588   7.530
 5707WAT     H217364   7.109   3.524   7.380
 5708WAT      O17365   0.687   5.883   3.126
 5708WAT     H117366   0.678   5.786   3.150
 5708WAT     H217367   0.623   5.937   3.181
 5709WAT      O17368   1.307   1.475   0.706
 5709WAT     H117369   1.235   1.503   0.642
 5709WAT     H217370   1.273   1.481   0.799
 5710WAT      O17371   1.129   5.029   9.381
 5710WAT     H117372   1.118   4.947   9.438
 5710WAT     H217373   1.181   5.098   9.431
 5711WAT      O17374   2.175   1.878   8.243
 5711WAT     H117375   2.083   1.887   8.205
 5711WAT     H217376   2.170   1.884   8.343
 5712WAT      O17377   7.322   7.818   0.594
 5712WAT     H117378   7.244   7.874   0.567
 5712WAT     H217379   7.292   7.722   0.604
 5713WAT      O17380   0.631   3.878   3.848
 5713WAT     H117381   0.666   3.915   3.934
 5713WAT     H217382   0.655   3.941   3.774
 5714WAT      O17383   6.994   5.371   1.272
 5714WAT     H117384   7.043   5.412   1.350
 5714WAT     H217385   7.025   5.277   1.259
 5715WAT      O17386   5.450   5.496   4.106
 5715WAT     H117387   5.405   5.427   4.161
 5715WAT     H217388   5.468   5.460   4.014
 5716WAT      O17389   0.779   4.019   9.263
 5716WAT     H117390   0.868   4.065   9.260
 5716WAT     H217391   0.778   3.955   9.340
 5717WAT      O17392   3.120   4.160   7.270
 5717WAT     H117393   3.054   4.133   7.200
 5717WAT     H217394   3.186   4.224   7.230
 5718WAT      O17395   7.633   5.272   8.277
 5718WAT     H117396   7.535   5.285   8.257
 5718WAT     H217397   7.678   5.361   8.276
 5719WAT      O17398   7.417   5.093   2.170
 5719WAT     H117399   7.404   5.099   2.071
 5719WAT     H217400   7.369   5.013   2.205
 5720WAT      O17401   8.337   6.466   6.872
 5720WAT     H117402   8.337   6.554   6.825
 5720WAT     H217403   8.253   6.417   6.850
 5721WAT      O17404   6.928   8.507   2.331
 5721WAT     H117405   6.871   8.573   2.380
 5721WAT     H217406   6.947   8.542   2.239
 5722WAT      O17407   6.714   6.813   7.784
 5722WAT     H117408   6.809   6.784   7.791
 5722WAT     H217409   6.658   6.737   7.752
 5723WAT      O17410   6.517   8.324   7.184
 5723WAT     H117411   6.456   8.255   7.222
 5723WAT     H217412   6.537   8.303   7.088
 5724WAT      O17413   6.125   8.300   5.193
 5724WAT     H117414   6.213   8.346   5.187
 5724WAT     H217415   6.139   8.201   5.201
 5725WAT      O17416   7.189   0.093   1.522
 5725WAT     H117417   7.254   0.065   1.592
 5725WAT     H217418   7.201   0.190   1.501
 5726WAT      O17419   6.858   6.214   6.089
 5726WAT     H117420   6.913   6.166   6.020
 5726WAT     H217421   6.811   6.291   6.047
 5727WAT      O17422   6.644   2.048   6.310
 5727WAT     H117423   6.605   2.140   6.325
 5727WAT     H217424   6.622   1.990   6.388
 5728WAT      O17425   6.835   7.147   6.551
 5728WAT     H117426   6.845   7.229   6.606
 5728WAT     H217427   6.889   7.156   6.467
 5729WAT      O17428   5.242   1.289   1.225
 5729WAT     H117429   5.180   1.360   1.257
 5729WAT     H217430   5.305   1.264   1.300
 5730WAT      O17431   4.086   0.244   2.076
 5730WAT     H117432   4.084   0.344   2.068
 5730WAT     H217433   4.138   0.205   2.000
 5731WAT      O17434   0.527   2.864   8.565
 5731WAT     H117435   0.599   2.851   8.634
 5731WAT     H217436   0.469   2.783   8.562
 5732WAT      O17437   1.468   3.479   3.062
 5732WAT     H117438   1.445   3.555   3.122
 5732WAT     H217439   1.385   3.443   3.020
 5733WAT      O17440   3.971   6.229   3.667
 5733WAT     H117441   4.053   6.271   3.707
 5733WAT     H217442   3.982   6.130   3.664
 5734WAT      O17443   1.238   6.454   7.070
 5734WAT     H117444   1.299   6.412   7.003
 5734WAT     H217445   1.263   6.425   7.162
 5735WAT      O17446   9.865   0.001   3.116
 5735WAT     H117447   9.881   0.098   3.096
 5735WAT     H217448   9.818  -0.041   3.039
 5736WAT      O17449   6.350   3.702   7.630
 5736WAT     H117450   6.296   3.619   7.627
 5736WAT     H217451   6.406   3.704   7.713
 5737WAT      O17452   1.019   2.367   0.788
 5737WAT     H117453   0.968   2.434   0.842
 5737WAT     H217454   1.059   2.412   0.708
 5738WAT      O17455   5.810   8.334   8.613
 5738WAT     H117456   5.810   8.371   8.521
 5738WAT     H217457   5.751   8.253   8.617
 5739WAT      O17458   0.769   3.695   1.121
 5739WAT     H117459   0.690   3.752   1.098
 5739WAT     H217460   0.776   3.619   1.057
 5740WAT      O17461   3.205   7.595   0.672
 5740WAT     H117462   3.119   7.620   0.716
 5740WAT     H217463   3.206   7.496   0.656
 5741WAT      O17464   2.289   3.219   2.312
 5741WAT     H117465   2.220   3.181   2.374
 5741WAT     H217466   2.250   3.228   2.221
 5742WAT      O17467   1.019   2.532   1.883
 5742WAT     H117468   1.016   2.588   1.966
 5742WAT     H217469   0.937   2.475   1.878
 5743WAT      O17470   5.091   4.772   1.845
 5743WAT     H117471   5.015   4.770   1.780
 5743WAT     H217472   5.114   4.866   1.867
 5744WAT      O17473   5.116   3.531   0.610
 5744WAT     H117474   5.169   3.480   0.678
 5744WAT     H217475   5.019   3.522   0.631
 5745WAT      O17476   0.292   2.790   3.224
 5745WAT     H117477   0.388   2.817   3.223
 5745WAT     H217478   0.279   2.712   3.163
 5746WAT      O17479   5.751   7.300   6.820
 5746WAT     H117480   5.740   7.201   6.818
 5746WAT     H217481   5.840   7.324   6.859
 5747WAT      O17482   3.814   2.578   1.868
 5747WAT     H117483   3.767   2.496   1.899
 5747WAT     H217484   3.912   2.559   1.859
 5748WAT      O17485   1.204   5.122   3.627
 5748WAT     H117486   1.254   5.131   3.541
 5748WAT     H217487   1.144   5.042   3.624
 5749WAT      O17488   5.172   5.929   5.423
 5749WAT     H117489   5.153   5.835   5.452
 5749WAT     H217490   5.190   5.930   5.325
 5750WAT      O17491   5.295   9.379   5.385
 5750WAT     H117492   5.297   9.343   5.291
 5750WAT     H217493   5.200   9.384   5.416
 5751WAT      O17494   6.832   2.386   6.879
 5751WAT     H117495   6.797   2.438   6.802
 5751WAT     H217496   6.875   2.302   6.846
 5752WAT      O17497   9.532   4.568   1.823
 5752WAT     H117498   9.554   4.615   1.738
 5752WAT     H217499   9.574   4.478   1.823
 5753WAT      O17500   8.323   1.759   7.406
 5753WAT     H117501   8.249   1.703   7.443
 5753WAT     H217502   8.373   1.801   7.481
 5754WAT      O17503   5.297   6.801   2.605
 5754WAT     H117504   5.249   6.766   2.525
 5754WAT     H217505   5.239   6.869   2.652
 5755WAT      O17506   2.721   3.345   4.006
 5755WAT     H117507   2.745   3.301   4.093
 5755WAT     H217508   2.744   3.285   3.930
 5756WAT      O17509   7.970   6.273   6.135
 5756WAT     H117510   7.969   6.173   6.133
 5756WAT     H217511   8.064   6.305   6.128
 5757WAT      O17512   5.210   2.252   5.636
 5757WAT     H117513   5.214   2.169   5.691
 5757WAT     H217514   5.290   2.309   5.654
 5758WAT      O17515   3.684   9.230   4.280
 5758WAT     H117516   3.603   9.208   4.335
 5758WAT     H217517   3.759   9.258   4.340
 5759WAT      O17518   4.537   0.207   0.343
 5759WAT     H117519   4.626   0.165   0.356
 5759WAT     H217520   4.538   0.299   0.382
 5760WAT      O17521   9.253   8.774   0.861
 5760WAT     H117522   9.249   8.676   0.879
 5760WAT     H217523   9.277   8.822   0.946
 5761WAT      O17524   1.050   5.691   8.733
 5761WAT     H117525   1.001   5.664   8.816
 5761WAT     H217526   1.015   5.639   8.655
 5762WAT      O17527   7.460   3.378   6.899
 5762WAT     H117528   7.480   3.444   6.971
 5762WAT     H217529   7.429   3.292   6.939
 5763WAT      O17530   5.678   0.064   4.671
 5763WAT     H117531   5.741   0.002   4.625
 5763WAT     H217532   5.585   0.047   4.638
 5764WAT      O17533   2.446   3.183   0.860
 5764WAT     H117534   2.429   3.096   0.907
 5764WAT     H217535   2.419   3.175   0.764
 5765WAT      O17536   1.963   0.645   6.936
 5765WAT     H117537   1.936   0.669   7.029
 5765WAT     H217538   1.949   0.547   6.922
 5766WAT      O17539   4.567   2.166   6.570
 5766WAT     H117540   4.661   2.170   6.603
 5766WAT     H217541   4.514   2.106   6.630
 5767WAT      O17542   2.870   3.567   5.465
 5767WAT     H117543   2.897   3.559   5.560
 5767WAT     H217544   2.770   3.574   5.459
 5768WAT      O17545   5.342   4.636   3.346
 5768WAT     H117546   5.247   4.608   3.337
 5768WAT     H217547   5.347   4.718   3.404
 5769WAT      O17548   1.291   8.060   6.321
 5769WAT     H117549   1.229   8.132   6.351
 5769WAT     H217550   1.382   8.077   6.359
 5770WAT      O17551   9.312   4.480   7.800
 5770WAT     H117552   9.385   4.544   7.776
 5770WAT     H217553   9.225   4.529   7.809
 5771WAT      O17554   9.062   0.652   2.124
 5771WAT     H117555   9.116   0.601   2.191
 5771WAT     H217556   9.057   0.748   2.153
 5772WAT      O17557   5.252   7.355   4.758
 5772WAT     H117558   5.248   7.348   4.858
 5772WAT     H217559   5.319   7.289   4.723
 5773WAT      O17560   9.005   3.849   6.087
 5773WAT     H117561   9.025   3.940   6.050
 5773WAT     H217562   8.949   3.858   6.169
 5774WAT      O17563   3.127   5.023   3.088
 5774WAT     H117564   3.145   5.120   3.071
 5774WAT     H217565   3.204   4.984   3.139
 5775WAT      O17566   4.571   6.150   6.228
 5775WAT     H117567   4.485   6.109   6.198
 5775WAT     H217568   4.554   6.243   6.261
 5776WAT      O17569   0.803   5.306   8.720
 5776WAT     H117570   0.723   5.277   8.773
 5776WAT     H217571   0.776   5.326   8.626
 5777WAT      O17572   1.708   4.807   6.858
 5777WAT     H117573   1.641   4.807   6.932
 5777WAT     H217574   1.717   4.714   6.822
 5778WAT      O17575   7.474   8.715   0.945
 5778WAT     H117576   7.501   8.633   0.895
 5778WAT     H217577   7.383   8.744   0.916
 5779WAT      O17578   9.591   7.123   3.880
 5779WAT     H117579   9.672   7.065   3.874
 5779WAT     H217580   9.509   7.068   3.863
 5780WAT      O17581   1.725   5.533   8.867
 5780WAT     H117582   1.627   5.513   8.859
 5780WAT     H217583   1.758   5.570   8.780
 5781WAT      O17584   9.597   2.638   9.135
 5781WAT     H117585   9.635   2.654   9.044
 5781WAT     H217586   9.542   2.716   9.163
 5782WAT      O17587   5.470   0.478   9.793
 5782WAT     H117588   5.379   0.498   9.755
 5782WAT     H217589   5.483   0.379   9.795
 5783WAT      O17590   9.517   5.616   6.406
 5783WAT     H117591   9.577   5.692   6.430
 5783WAT     H217592   9.456   5.596   6.483
 5784WAT      O17593   5.532   4.856   9.722
 5784WAT     H117594   5.580   4.919   9.661
 5784WAT     H217595   5.455   4.816   9.674
 5785WAT      O17596   9.307   1.821   7.278
 5785WAT     H117597   9.240   1.816   7.203
 5785WAT     H217598   9.350   1.911   7.278
 5786WAT      O17599   5.515   4.236   9.287
 5786WAT     H117600   5.592   4.247   9.225
 5786WAT     H217601   5.526   4.297   9.365
 5787WAT      O17602   7.315   1.116   5.388
 5787WAT     H117603   7.406   1.133   5.427
 5787WAT     H217604   7.320   1.128   5.289
 5788WAT      O17605   3.820   8.753   6.855
 5788WAT     H117606   3.886   8.699   6.907
 5788WAT     H217607   3.839   8.745   6.757
 5789WAT      O17608   0.535   4.791   6.782
 5789WAT     H117609   0.572   4.703   6.753
 5789WAT     H217610   0.604   4.840   6.835
 5790WAT      O17611   1.218   1.385   3.176
 5790WAT     H117612   1.298   1.443   3.190
 5790WAT     H217613   1.136   1.442   3.172
 5791WAT      O17614   6.595   0.935   4.909
 5791WAT     H117615   6.688   0.899   4.924
 5791WAT     H217616   6.562   0.904   4.820
 5792WAT      O17617   5.353   1.175   4.130
 5792WAT     H117618   5.441   1.151   4.089
 5792WAT     H217619   5.340   1.274   4.127
 5793WAT      O17620   3.564   1.764   0.739
 5793WAT     H117621   3.484   1.713   0.707
 5793WAT     H217622   3.634   1.763   0.668
 5794WAT      O17623   6.250   5.095   7.533
 5794WAT     H117624   6.347   5.108   7.516
 5794WAT     H217625   6.202   5.182   7.520
 5795WAT      O17626   9.650   5.684   3.654
 5795WAT     H117627   9.634   5.780   3.676
 5795WAT     H217628   9.656   5.631   3.739
 5796WAT      O17629   0.074   6.642   2.732
 5796WAT     H117630   0.133   6.609   2.805
 5796WAT     H217631  -0.021   6.619   2.752
 5797WAT      O17632   4.880   0.603   6.879
 5797WAT     H117633   4.845   0.586   6.971
 5797WAT     H217634   4.912   0.517   6.838
 5798WAT      O17635   6.911   4.157   6.480
 5798WAT     H117636   6.973   4.102   6.536
 5798WAT     H217637   6.877   4.101   6.404
 5799WAT      O17638   5.567   4.869   1.746
 5799WAT     H117639   5.477   4.828   1.761
 5799WAT     H217640   5.631   4.799   1.715
 5800WAT      O17641   3.261   1.495   0.454
 5800WAT     H117642   3.333   1.470   0.389
 5800WAT     H217643   3.174   1.455   0.425
 5801WAT      O17644   3.379   3.375   9.520
 5801WAT     H117645   3.401   3.326   9.436
 5801WAT     H217646   3.310   3.445   9.500
 5802WAT      O17647   8.089   8.043   0.057
 5802WAT     H117648   8.021   8.002   0.119
 5802WAT     H217649   8.178   7.999   0.071
 5803WAT      O17650   6.793   1.468   2.136
 5803WAT     H117651   6.697   1.477   2.107
 5803WAT     H217652   6.801   1.391   2.199
 5804WAT      O17653   7.365   1.364   3.359
 5804WAT     H117654   7.337   1.270   3.340
 5804WAT     H217655   7.302   1.427   3.315
 5805WAT      O17656   0.588   6.382   8.175
 5805WAT     H117657   0.633   6.299   8.141
 5805WAT     H217658   0.602   6.457   8.111
 5806WAT      O17659   9.615   6.209   1.362
 5806WAT     H117660   9.617   6.281   1.292
 5806WAT     H217661   9.572   6.244   1.445
 5807WAT      O17662   2.957   9.379   7.554
 5807WAT     H117663   2.924   9.473   7.546
 5807WAT     H217664   2.910   9.321   7.487
 5808WAT      O17665   4.300   8.662   9.243
 5808WAT     H117666   4.398   8.652   9.228
 5808WAT     H217667   4.284   8.697   9.336
 5809WAT      O17668   1.526   8.679   6.049
 5809WAT     H117669   1.515   8.686   5.950
 5809WAT     H217670   1.510   8.768   6.091
 5810WAT      O17671   7.802   5.476   9.099
 5810WAT     H117672   7.761   5.515   9.017
 5810WAT     H217673   7.747   5.398   9.130
 5811WAT      O17674   8.492   2.539   2.057
 5811WAT     H117675   8.463   2.613   1.997
 5811WAT     H217676   8.429   2.461   2.046
 5812WAT      O17677   8.530   4.223   4.612
 5812WAT     H117678   8.550   4.288   4.538
 5812WAT     H217679   8.573   4.135   4.592
 5813WAT      O17680   2.916   2.597   1.016
 5813WAT     H117681   2.896   2.631   0.925
 5813WAT     H217682   2.855   2.521   1.038
 5814WAT      O17683   2.259   2.869   4.773
 5814WAT     H117684   2.340   2.840   4.722
 5814WAT     H217685   2.187   2.896   4.708
 5815WAT      O17686   8.149   1.303   6.195
 5815WAT     H117687   8.143   1.283   6.293
 5815WAT     H217688   8.168   1.219   6.145
 5816WAT      O17689   0.192   5.296   2.280
 5816WAT     H117690   0.263   5.243   2.326
 5816WAT     H217691   0.137   5.236   2.222
 5817WAT      O17692   6.293   8.650   8.735
 5817WAT     H117693   6.277   8.713   8.659
 5817WAT     H217694   6.277   8.556   8.704
 5818WAT      O17695   9.409   3.408   4.980
 5818WAT     H117696   9.470   3.415   5.059
 5818WAT     H217697   9.443   3.465   4.906
 5819WAT      O17698   8.662   2.279   2.342
 5819WAT     H117699   8.731   2.241   2.280
 5819WAT     H217700   8.583   2.217   2.346
 5820WAT      O17701   7.395   0.040   8.145
 5820WAT     H117702   7.472   0.094   8.179
 5820WAT     H217703   7.364   0.077   8.058
 5821WAT      O17704   2.973   2.469   7.843
 5821WAT     H117705   3.062   2.472   7.799
 5821WAT     H217706   2.919   2.549   7.814
 5822WAT      O17707   9.031   9.549   7.706
 5822WAT     H117708   8.998   9.464   7.747
 5822WAT     H217709   8.967   9.579   7.635
 5823WAT      O17710   4.407   9.786   2.544
 5823WAT     H117711   4.335   9.771   2.613
 5823WAT     H217712   4.368   9.831   2.464
 5824WAT      O17713   2.580   3.695   9.304
 5824WAT     H117714   2.646   3.770   9.299
 5824WAT     H217715   2.510   3.708   9.233
 5825WAT      O17716   2.733   6.659   1.069
 5825WAT     H117717   2.822   6.683   1.107
 5825WAT     H217718   2.745   6.612   0.982
 5826WAT      O17719   8.898   4.773   0.001
 5826WAT     H117720   8.894   4.675   0.021
 5826WAT     H217721   8.809   4.815   0.022
 5827WAT      O17722   3.075   3.755   6.034
 5827WAT     H117723   3.094   3.663   6.002
 5827WAT     H217724   2.978   3.765   6.054
 5828WAT      O17725   9.573   1.827   1.997
 5828WAT     H117726   9.641   1.840   2.068
 5828WAT     H217727   9.592   1.743   1.947
 5829WAT      O17728   1.841   8.498   2.522
 5829WAT     H117729   1.749   8.492   2.483
 5829WAT     H217730   1.852   8.585   2.570
 5830WAT      O17731   3.506   9.075   9.657
 5830WAT     H117732   3.466   8.986   9.635
 5830WAT     H217733   3.473   9.143   9.592
 5831WAT      O17734   1.393   4.419   3.534
 5831WAT     H117735   1.297   4.394   3.528
 5831WAT     H217736   1.420   4.469   3.452
 5832WAT      O17737   3.118   2.036   8.153
 5832WAT     H117738   3.134   2.133   8.170
 5832WAT     H217739   3.204   1.992   8.125
 5833WAT      O17740   2.108   0.991   3.010
 5833WAT     H117741   2.020   1.029   2.983
 5833WAT     H217742   2.121   0.903   2.965
 5834WAT      O17743   0.870   0.312   7.210
 5834WAT     H117744   0.861   0.328   7.112
 5834WAT     H217745   0.966   0.303   7.234
 5835WAT      O17746   7.713   9.490   8.509
 5835WAT     H117747   7.710   9.401   8.554
 5835WAT     H217748   7.747   9.559   8.573
 5836WAT      O17749   1.402   0.061   6.722
 5836WAT     H117750   1.351  -0.017   6.757
 5836WAT     H217751   1.359   0.146   6.755
 5837WAT      O17752   5.740   0.989   2.905
 5837WAT     H117753   5.786   1.004   2.818
 5837WAT     H217754   5.651   0.947   2.888
 5838WAT      O17755   6.634   8.301   4.028
 5838WAT     H117756   6.729   8.326   4.010
 5838WAT     H217757   6.585   8.380   4.066
 5839WAT      O17758   9.385   4.712   9.811
 5839WAT     H117759   9.437   4.631   9.782
 5839WAT     H217760   9.324   4.688   9.886
 5840WAT      O17761   8.165   6.106   0.109
 5840WAT     H117762   8.202   6.147   0.026
 5840WAT     H217763   8.065   6.116   0.109
 5841WAT      O17764   0.400   4.635   8.556
 5841WAT     H117765   0.333   4.615   8.628
 5841WAT     H217766   0.353   4.647   8.469
 5842WAT      O17767   5.004   5.277   7.025
 5842WAT     H117768   4.984   5.193   7.075
 5842WAT     H217769   5.079   5.260   6.961
 5843WAT      O17770   4.953   6.513   5.745
 5843WAT     H117771   5.039   6.493   5.792
 5843WAT     H217772   4.962   6.492   5.648
 5844WAT      O17773   8.617   8.300   1.758
 5844WAT     H117774   8.706   8.254   1.768
 5844WAT     H217775   8.544   8.232   1.770
 5845WAT      O17776   4.261   8.889   6.883
 5845WAT     H117777   4.249   8.803   6.834
 5845WAT     H217778   4.303   8.872   6.972
 5846WAT      O17779   9.388   7.941   6.122
 5846WAT     H117780   9.389   7.892   6.209
 5846WAT     H217781   9.482   7.960   6.093
 5847WAT      O17782   8.561   7.786   8.903
 5847WAT     H117783   8.579   7.734   8.820
 5847WAT     H217784   8.646   7.799   8.954
 5848WAT      O17785   9.778   2.417   1.975
 5848WAT     H117786   9.864   2.451   2.012
 5848WAT     H217787   9.703   2.476   2.006
 5849WAT      O17788   0.784   3.008   5.416
 5849WAT     H117789   0.763   2.924   5.366
 5849WAT     H217790   0.828   3.073   5.355
 5850WAT      O17791   3.491   0.383   3.233
 5850WAT     H117792   3.563   0.424   3.177
 5850WAT     H217793   3.402   0.408   3.195
 5851WAT      O17794   1.813   1.395   2.513
 5851WAT     H117795   1.850   1.488   2.520
 5851WAT     H217796   1.717   1.399   2.488
 5852WAT      O17797   6.630   7.649   1.628
 5852WAT     H117798   6.565   7.577   1.652
 5852WAT     H217799   6.588   7.738   1.641
 5853WAT      O17800   7.134   7.442   0.427
 5853WAT     H117801   7.114   7.481   0.517
 5853WAT     H217802   7.164   7.347   0.438
 5854WAT      O17803   3.918   4.711   1.951
 5854WAT     H117804   3.934   4.776   2.026
 5854WAT     H217805   3.961   4.624   1.972
 5855WAT      O17806   6.466   0.839   2.398
 5855WAT     H117807   6.370   0.837   2.426
 5855WAT     H217808   6.512   0.755   2.427
 5856WAT      O17809   0.383   4.041   5.426
 5856WAT     H117810   0.416   4.048   5.332
 5856WAT     H217811   0.304   4.100   5.439
 5857WAT      O17812   8.431   7.954   5.637
 5857WAT     H117813   8.432   7.854   5.640
 5857WAT     H217814   8.401   7.985   5.547
 5858WAT      O17815   1.635   3.427   7.941
 5858WAT     H117816   1.561   3.424   7.875
 5858WAT     H217817   1.718   3.462   7.896
 5859WAT      O17818   6.467   8.454   4.177
 5859WAT     H117819   6.370   8.430   4.182
 5859WAT     H217820   6.477   8.552   4.193
 5860WAT      O17821   7.845   3.168   1.675
 5860WAT     H117822   7.786   3.088   1.675
 5860WAT     H217823   7.818   3.230   1.749
 5861WAT      O17824   7.301   2.278   8.134
 5861WAT     H117825   7.334   2.245   8.222
 5861WAT     H217826   7.293   2.378   8.137
 5862WAT      O17827   6.403   8.310   0.204
 5862WAT     H117828   6.432   8.328   0.111
 5862WAT     H217829   6.308   8.277   0.203
 5863WAT      O17830   8.356   0.421   7.267
 5863WAT     H117831   8.281   0.354   7.264
 5863WAT     H217832   8.323   0.509   7.230
 5864WAT      O17833   9.276   7.235   6.939
 5864WAT     H117834   9.302   7.150   6.985
 5864WAT     H217835   9.305   7.232   6.843
 5865WAT      O17836   1.665   4.636   2.886
 5865WAT     H117837   1.690   4.562   2.824
 5865WAT     H217838   1.706   4.722   2.855
 5866WAT      O17839   1.104   6.590   7.782
 5866WAT     H117840   1.139   6.663   7.724
 5866WAT     H217841   1.093   6.507   7.728
 5867WAT      O17842   5.189   6.712   2.368
 5867WAT     H117843   5.265   6.693   2.307
 5867WAT     H217844   5.143   6.627   2.393
 5868WAT      O17845   9.243   5.053   1.106
 5868WAT     H117846   9.326   5.106   1.123
 5868WAT     H217847   9.229   5.044   1.008
 5869WAT      O17848   9.214   5.583   0.868
 5869WAT     H117849   9.211   5.508   0.802
 5869WAT     H217850   9.229   5.546   0.960
 5870WAT      O17851   8.749   8.100   5.873
 5870WAT     H117852   8.822   8.149   5.921
 5870WAT     H217853   8.670   8.159   5.864
 5871WAT      O17854   4.633   1.999   6.291
 5871WAT     H117855   4.642   1.943   6.374
 5871WAT     H217856   4.586   2.084   6.314
 5872WAT      O17857   4.817   1.082   8.251
 5872WAT     H117858   4.784   1.031   8.171
 5872WAT     H217859   4.824   1.179   8.228
 5873WAT      O17860   1.980   7.378   0.964
 5873WAT     H117861   1.968   7.427   1.050
 5873WAT     H217862   2.072   7.395   0.929
 5874WAT      O17863   5.294   0.474   9.357
 5874WAT     H117864   5.383   0.519   9.365
 5874WAT     H217865   5.282   0.441   9.263
 5875WAT      O17866   8.154   8.950   2.181
 5875WAT     H117867   8.171   9.041   2.219
 5875WAT     H217868   8.241   8.903   2.167
 5876WAT      O17869   6.117   3.042   6.465
 5876WAT     H117870   6.142   2.952   6.428
 5876WAT     H217871   6.198   3.101   6.466
 5877WAT      O17872   8.411   5.652   0.500
 5877WAT     H117873   8.423   5.567   0.553
 5877WAT     H217874   8.486   5.715   0.521
 5878WAT      O17875   5.744   1.846   7.643
 5878WAT     H117876   5.658   1.801   7.618
 5878WAT     H217877   5.752   1.849   7.743
 5879WAT      O17878   4.029   8.572   9.469
 5879WAT     H117879   4.006   8.617   9.382
 5879WAT     H217880   3.987   8.482   9.472
 5880WAT      O17881   6.927   4.238   5.028
 5880WAT     H117882   6.833   4.217   5.001
 5880WAT     H217883   6.948   4.333   5.003
 5881WAT      O17884   6.997   3.174   5.125
 5881WAT     H117885   7.000   3.159   5.224
 5881WAT     H217886   6.915   3.131   5.087
 5882WAT      O17887   1.699   1.612   6.719
 5882WAT     H117888   1.674   1.626   6.623
 5882WAT     H217889   1.688   1.515   6.742
 5883WAT      O17890   9.171   1.091   9.001
 5883WAT     H117891   9.235   1.024   9.037
 5883WAT     H217892   9.097   1.044   8.953
 5884WAT      O17893   4.896   6.387   0.628
 5884WAT     H117894   4.871   6.482   0.647
 5884WAT     H217895   4.979   6.386   0.572
 5885WAT      O17896   2.989   6.533   3.707
 5885WAT     H117897   3.081   6.498   3.690
 5885WAT     H217898   2.995   6.625   3.746
 5886WAT      O17899   3.765   7.347   4.079
 5886WAT     H117900   3.824   7.367   4.157
 5886WAT     H217901   3.696   7.419   4.070
 5887WAT      O17902   7.991   3.668   9.634
 5887WAT     H117903   7.911   3.675   9.575
 5887WAT     H217904   8.058   3.738   9.609
 5888WAT      O17905   8.530   8.843   1.803
 5888WAT     H117906   8.538   8.791   1.889
 5888WAT     H217907   8.446   8.897   1.804
 5889WAT      O17908   2.836   0.499   7.770
 5889WAT     H117909   2.930   0.527   7.748
 5889WAT     H217910   2.837   0.437   7.849
 5890WAT      O17911   2.456   5.002   3.736
 5890WAT     H117912   2.527   5.057   3.693
 5890WAT     H217913   2.497   4.916   3.769
 5891WAT      O17914   4.757   7.411   0.845
 5891WAT     H117915   4.816   7.420   0.925
 5891WAT     H217916   4.664   7.390   0.874
 5892WAT      O17917   9.031   4.699   0.843
 5892WAT     H117918   8.939   4.685   0.805
 5892WAT     H217919   9.058   4.620   0.896
 5893WAT      O17920   8.406   5.847   5.415
 5893WAT     H117921   8.380   5.868   5.321
 5893WAT     H217922   8.335   5.880   5.477
 5894WAT      O17923   8.664   3.357   0.693
 5894WAT     H117924   8.681   3.261   0.670
 5894WAT     H217925   8.577   3.385   0.653
 5895WAT      O17926   9.465   6.190   5.981
 5895WAT     H117927   9.446   6.221   5.888
 5895WAT     H217928   9.471   6.091   5.983
 5896WAT      O17929   6.740   1.871   1.060
 5896WAT     H117930   6.725   1.943   1.127
 5896WAT     H217931   6.677   1.795   1.077
 5897WAT      O17932   4.397   2.311   2.137
 5897WAT     H117933   4.429   2.217   2.149
 5897WAT     H217934   4.431   2.369   2.211
 5898WAT      O17935   4.726   4.640   7.597
 5898WAT     H117936   4.658   4.570   7.576
 5898WAT     H217937   4.815   4.612   7.561
 5899WAT      O17938   6.746   1.922   7.935
 5899WAT     H117939   6.784   1.977   8.009
 5899WAT     H217940   6.669   1.970   7.894
 5900WAT      O17941   7.403   4.937   1.104
 5900WAT     H117942   7.418   5.033   1.127
 5900WAT     H217943   7.358   4.892   1.181
 5901WAT      O17944   0.191   5.203   4.697
 5901WAT     H117945   0.285   5.217   4.730
 5901WAT     H217946   0.175   5.105   4.687
 5902WAT      O17947   6.285   8.390   3.854
 5902WAT     H117948   6.257   8.384   3.949
 5902WAT     H217949   6.251   8.311   3.803
 5903WAT      O17950   0.216   7.151   1.298
 5903WAT     H117951   0.310   7.138   1.328
 5903WAT     H217952   0.168   7.063   1.300
 5904WAT      O17953   1.541   5.957   0.506
 5904WAT     H117954   1.601   6.029   0.539
 5904WAT     H217955   1.455   5.996   0.475
 5905WAT      O17956   9.085   4.214   5.726
 5905WAT     H117957   9.119   4.306   5.744
 5905WAT     H217958   9.153   4.164   5.672
 5906WAT      O17959   0.465   5.008   1.491
 5906WAT     H117960   0.461   4.908   1.488
 5906WAT     H217961   0.502   5.037   1.579
 5907WAT      O17962   4.443   4.631   9.736
 5907WAT     H117963   4.381   4.559   9.766
 5907WAT     H217964   4.406   4.675   9.654
 5908WAT      O17965   4.699   4.491   6.650
 5908WAT     H117966   4.749   4.559   6.597
 5908WAT     H217967   4.654   4.426   6.588
 5909WAT      O17968   0.154   8.949   7.620
 5909WAT     H117969   0.208   9.032   7.633
 5909WAT     H217970   0.080   8.947   7.687
 5910WAT      O17971   8.405   2.915   5.020
 5910WAT     H117972   8.489   2.970   5.017
 5910WAT     H217973   8.426   2.821   4.994
 5911WAT      O17974   6.304   6.086   6.889
 5911WAT     H117975   6.329   6.137   6.971
 5911WAT     H217976   6.335   5.991   6.898
 5912WAT      O17977   0.232   2.744   1.897
 5912WAT     H117978   0.146   2.709   1.859
 5912WAT     H217979   0.300   2.671   1.900
 5913WAT      O17980   5.619   4.331   2.634
 5913WAT     H117981   5.607   4.387   2.717
 5913WAT     H217982   5.663   4.386   2.563
 5914WAT      O17983   7.684   7.740   1.425
 5914WAT     H117984   7.611   7.804   1.447
 5914WAT     H217985   7.655   7.647   1.450
 5915WAT      O17986   8.527   1.066   5.158
 5915WAT     H117987   8.430   1.051   5.175
 5915WAT     H217988   8.539   1.105   5.066
 5916WAT      O17989   7.261   4.824   7.690
 5916WAT     H117990   7.300   4.772   7.766
 5916WAT     H217991   7.171   4.859   7.715
 5917WAT      O17992   8.998   7.744   5.972
 5917WAT     H117993   8.902   7.768   5.954
 5917WAT     H217994   9.049   7.827   5.996
 5918WAT      O17995   1.116   5.200   0.605
 5918WAT     H117996   1.090   5.121   0.550
 5918WAT     H217997   1.168   5.169   0.685
 5919WAT      O17998   3.051   0.884   9.596
 5919WAT     H117999   2.969   0.841   9.635
 5919WAT     H218000   3.032   0.979   9.575
 5920WAT      O18001   7.716   3.000   1.013
 5920WAT     H118002   7.751   2.918   0.968
 5920WAT     H218003   7.733   3.079   0.955
 5921WAT      O18004   2.816   4.466   7.613
 5921WAT     H118005   2.752   4.492   7.686
 5921WAT     H218006   2.835   4.546   7.556
 5922WAT      O18007   2.280   0.271   4.041
 5922WAT     H118008   2.229   0.235   3.963
 5922WAT     H218009   2.301   0.197   4.104
 5923WAT      O18010   5.048   6.242   8.404
 5923WAT     H118011   5.044   6.191   8.319
 5923WAT     H218012   5.100   6.190   8.472
 5924WAT      O18013   0.201   2.400   2.862
 5924WAT     H118014   0.180   2.302   2.867
 5924WAT     H218015   0.260   2.417   2.784
 5925WAT      O18016   2.498   1.124   4.097
 5925WAT     H118017   2.536   1.133   4.189
 5925WAT     H218018   2.425   1.055   4.097
 5926WAT      O18019   4.791   3.732   7.625
 5926WAT     H118020   4.742   3.763   7.707
 5926WAT     H218021   4.823   3.638   7.639
 5927WAT      O18022   7.350   2.608   4.240
 5927WAT     H118023   7.381   2.514   4.228
 5927WAT     H218024   7.370   2.660   4.157
 5928WAT      O18025   6.589   1.616   4.005
 5928WAT     H118026   6.662   1.647   4.065
 5928WAT     H218027   6.626   1.599   3.913
 5929WAT      O18028   0.990   0.705   1.616
 5929WAT     H118029   1.038   0.617   1.608
 5929WAT     H218030   1.057   0.777   1.634
 5930WAT      O18031   1.657   9.269   9.728
 5930WAT     H118032   1.605   9.227   9.654
 5930WAT     H218033   1.753   9.241   9.721
 5931WAT      O18034   3.595   3.102   1.285
 5931WAT     H118035   3.658   3.074   1.212
 5931WAT     H218036   3.564   3.021   1.335
 5932WAT      O18037   2.826   9.177   1.519
 5932WAT     H118038   2.803   9.169   1.422
 5932WAT     H218039   2.814   9.272   1.548
 5933WAT      O18040   7.937   7.695   8.428
 5933WAT     H118041   7.853   7.651   8.459
 5933WAT     H218042   7.922   7.736   8.338
 5934WAT      O18043   6.641   2.961   9.450
 5934WAT     H118044   6.587   3.010   9.381
 5934WAT     H218045   6.673   2.875   9.411
 5935WAT      O18046   4.652   7.274   5.854
 5935WAT     H118047   4.631   7.351   5.915
 5935WAT     H218048   4.659   7.306   5.760
 5936WAT      O18049   9.026   4.008   4.700
 5936WAT     H118050   8.983   3.918   4.700
 5936WAT     H218051   9.119   4.001   4.663
 5937WAT      O18052   4.492   2.989   7.617
 5937WAT     H118053   4.555   3.063   7.593
 5937WAT     H218054   4.425   3.022   7.683
 5938WAT      O18055   3.570   4.433   7.703
 5938WAT     H118056   3.524   4.440   7.615
 5938WAT     H218057   3.504   4.448   7.777
 5939WAT      O18058   8.483   9.250   9.612
 5939WAT     H118059   8.468   9.345   9.640
 5939WAT     H218060   8.453   9.188   9.684
 5940WAT      O18061   3.398   5.820   6.714
 5940WAT     H118062   3.385   5.902   6.657
 5940WAT     H218063   3.491   5.787   6.702
 5941WAT      O18064   2.525   1.716   8.948
 5941WAT     H118065   2.451   1.670   8.898
 5941WAT     H218066   2.587   1.647   8.985
 5942WAT      O18067   2.814   0.235   4.270
 5942WAT     H118068   2.909   0.265   4.272
 5942WAT     H218069   2.766   0.270   4.351
 5943WAT      O18070   7.799   7.513   7.042
 5943WAT     H118071   7.762   7.546   6.955
 5943WAT     H218072   7.833   7.419   7.030
 5944WAT      O18073   1.314   1.968   6.482
 5944WAT     H118074   1.309   2.000   6.577
 5944WAT     H218075   1.241   2.010   6.428
 5945WAT      O18076   6.487   8.785   9.263
 5945WAT     H118077   6.444   8.746   9.181
 5945WAT     H218078   6.483   8.718   9.337
 5946WAT      O18079   0.692   3.310   9.497
 5946WAT     H118080   0.682   3.318   9.596
 5946WAT     H218081   0.745   3.228   9.476
 5947WAT      O18082   6.135   6.661   5.280
 5947WAT     H118083   6.062   6.688   5.218
 5947WAT     H218084   6.137   6.723   5.358
 5948WAT      O18085   7.615   3.045   2.192
 5948WAT     H118086   7.561   2.973   2.236
 5948WAT     H218087   7.568   3.132   2.203
 5949WAT      O18088   5.441   4.195   7.301
 5949WAT     H118089   5.445   4.260   7.377
 5949WAT     H218090   5.392   4.237   7.225
 5950WAT      O18091   0.351   5.489   0.795
 5950WAT     H118092   0.288   5.417   0.765
 5950WAT     H218093   0.307   5.545   0.865
 5951WAT      O18094   1.428   6.507   2.248
 5951WAT     H118095   1.492   6.440   2.209
 5951WAT     H218096   1.364   6.536   2.177
 5952WAT      O18097   6.706   9.628   9.043
 5952WAT     H118098   6.623   9.598   8.995
 5952WAT     H218099   6.778   9.561   9.029
 5953WAT      O18100   1.767   8.116   2.678
 5953WAT     H118101   1.818   8.198   2.706
 5953WAT     H218102   1.783   8.043   2.744
 5954WAT      O18103   9.075   4.126   9.137
 5954WAT     H118104   9.145   4.065   9.100
 5954WAT     H218105   9.035   4.179   9.063
 5955WAT      O18106   4.041   0.577   9.443
 5955WAT     H118107   4.024   0.484   9.477
 5955WAT     H218108   3.953   0.624   9.430
 5956WAT      O18109   7.794   9.501   1.625
 5956WAT     H118110   7.746   9.588   1.636
 5956WAT     H218111   7.826   9.469   1.714
 5957WAT      O18112   6.939   8.344   6.392
 5957WAT     H118113   6.901   8.429   6.355
 5957WAT     H218114   6.877   8.268   6.373
 5958WAT      O18115   9.794   9.370   5.953
 5958WAT     H118116   9.806   9.450   5.895
 5958WAT     H218117   9.770   9.291   5.896
 5959WAT      O18118   8.956   8.102   1.017
 5959WAT     H118119   9.051   8.101   1.048
 5959WAT     H218120   8.896   8.121   1.094
 5960WAT      O18121   3.278   6.109   9.079
 5960WAT     H118122   3.209   6.107   9.007
 5960WAT     H218123   3.243   6.159   9.158
 5961WAT      O18124   2.861   0.091   0.465
 5961WAT     H118125   2.791   0.038   0.513
 5961WAT     H218126   2.931   0.030   0.430
 5962WAT      O18127   2.775   6.537   4.204
 5962WAT     H118128   2.702   6.575   4.148
 5962WAT     H218129   2.765   6.437   4.208
 5963WAT      O18130   2.839   9.253   7.339
 5963WAT     H118131   2.743   9.275   7.321
 5963WAT     H218132   2.850   9.154   7.342
 5964WAT      O18133   2.854   1.602   7.955
 5964WAT     H118134   2.884   1.647   8.039
 5964WAT     H218135   2.812   1.514   7.977
 5965WAT      O18136   2.532   7.237   0.988
 5965WAT     H118137   2.587   7.177   1.046
 5965WAT     H218138   2.474   7.295   1.045
 5966WAT      O18139   3.129   8.093   4.155
 5966WAT     H118140   3.224   8.079   4.183
 5966WAT     H218141   3.105   8.189   4.170
 5967WAT      O18142   0.176   4.198   9.473
 5967WAT     H118143   0.267   4.230   9.449
 5967WAT     H218144   0.168   4.100   9.454
 5968WAT      O18145   9.074   1.971   1.258
 5968WAT     H118146   9.155   1.917   1.283
 5968WAT     H218147   9.102   2.044   1.195
 5969WAT      O18148   4.725   0.220   6.206
 5969WAT     H118149   4.793   0.151   6.177
 5969WAT     H218150   4.698   0.202   6.300
 5970WAT      O18151   2.878   1.656   2.917
 5970WAT     H118152   2.851   1.583   2.980
 5970WAT     H218153   2.856   1.744   2.958
 5971WAT      O18154   7.552   5.617   9.854
 5971WAT     H118155   7.509   5.686   9.796
 5971WAT     H218156   7.593   5.547   9.796
 5972WAT      O18157   9.566   0.506   9.713
 5972WAT     H118158   9.529   0.420   9.750
 5972WAT     H218159   9.628   0.547   9.779
 5973WAT      O18160   8.779   7.479   4.228
 5973WAT     H118161   8.775   7.540   4.307
 5973WAT     H218162   8.754   7.387   4.256
 5974WAT      O18163   1.263   6.049   1.168
 5974WAT     H118164   1.172   6.088   1.158
 5974WAT     H218165   1.309   6.092   1.246
 5975WAT      O18166   8.836   5.694   2.907
 5975WAT     H118167   8.829   5.706   2.808
 5975WAT     H218168   8.848   5.784   2.950
 5976WAT      O18169   3.703   6.852   2.073
 5976WAT     H118170   3.755   6.817   1.995
 5976WAT     H218171   3.607   6.862   2.047
 5977WAT      O18172   4.580   7.872   7.640
 5977WAT     H118173   4.587   7.785   7.591
 5977WAT     H218174   4.617   7.861   7.733
 5978WAT      O18175   6.031   7.783   2.833
 5978WAT     H118176   6.129   7.774   2.848
 5978WAT     H218177   5.985   7.698   2.861
 5979WAT      O18178   9.239   6.388   2.997
 5979WAT     H118179   9.319   6.328   2.992
 5979WAT     H218180   9.169   6.346   3.056
 5980WAT      O18181   1.352   5.990   8.673
 5980WAT     H118182   1.314   6.038   8.593
 5980WAT     H218183   1.428   6.044   8.711
 5981WAT      O18184   4.045   1.870   3.909
 5981WAT     H118185   4.118   1.928   3.874
 5981WAT     H218186   4.075   1.826   3.994
 5982WAT      O18187   6.566   2.786   4.340
 5982WAT     H118188   6.595   2.767   4.433
 5982WAT     H218189   6.619   2.729   4.276
 5983WAT      O18190   0.986   5.610   6.932
 5983WAT     H118191   0.957   5.520   6.965
 5983WAT     H218192   1.032   5.600   6.844
 5984WAT      O18193   6.976   4.099   2.705
 5984WAT     H118194   7.042   4.123   2.776
 5984WAT     H218195   6.985   4.002   2.682
 5985WAT      O18196   1.785   7.699   7.848
 5985WAT     H118197   1.714   7.714   7.917
 5985WAT     H218198   1.798   7.783   7.795
 5986WAT      O18199   8.531   9.731   5.470
 5986WAT     H118200   8.557   9.724   5.567
 5986WAT     H218201   8.557   9.647   5.423
 5987WAT      O18202   8.284   9.339   4.531
 5987WAT     H118203   8.213   9.274   4.503
 5987WAT     H218204   8.290   9.341   4.631
 5988WAT      O18205   7.949   3.081   4.829
 5988WAT     H118206   7.896   3.114   4.907
 5988WAT     H218207   8.046   3.090   4.848
 5989WAT      O18208   2.746   3.545   2.627
 5989WAT     H118209   2.778   3.457   2.661
 5989WAT     H218210   2.812   3.582   2.561
 5990WAT      O18211   1.653   4.300   3.160
 5990WAT     H118212   1.580   4.246   3.117
 5990WAT     H218213   1.712   4.338   3.089
 5991WAT      O18214   2.118   1.271   3.074
 5991WAT     H118215   2.118   1.171   3.068
 5991WAT     H218216   2.045   1.301   3.136
 5992WAT      O18217   9.561   4.976   2.005
 5992WAT     H118218   9.657   4.980   2.035
 5992WAT     H218219   9.505   5.032   2.066
 5993WAT      O18220   5.079   6.866   6.800
 5993WAT     H118221   5.155   6.808   6.770
 5993WAT     H218222   5.036   6.908   6.720
 5994WAT      O18223   0.893   2.172   9.448
 5994WAT     H118224   0.992   2.166   9.465
 5994WAT     H218225   0.863   2.090   9.400
 5995WAT      O18226   8.121   4.788   2.309
 5995WAT     H118227   8.111   4.873   2.257
 5995WAT     H218228   8.198   4.737   2.273
 5996WAT      O18229   7.601   1.535   8.590
 5996WAT     H118230   7.510   1.550   8.553
 5996WAT     H218231   7.630   1.615   8.643
 5997WAT      O18232   6.368   5.126   8.552
 5997WAT     H118233   6.396   5.173   8.636
 5997WAT     H218234   6.329   5.037   8.575
 5998WAT      O18235   0.676   9.479   3.911
 5998WAT     H118236   0.677   9.406   3.980
 5998WAT     H218237   0.581   9.499   3.885
 5999WAT      O18238   0.907   6.620   6.929
 5999WAT     H118239   0.916   6.563   6.848
 5999WAT     H218240   0.918   6.564   7.011
 6000WAT      O18241   7.680   2.247   0.074
 6000WAT     H118242   7.591   2.213   0.042
 6000WAT     H218243   7.718   2.309   0.005
 6001WAT      O18244   1.860   2.599   5.545
 6001WAT     H118245   1.847   2.616   5.643
 6001WAT     H218246   1.956   2.576   5.528
 6002WAT      O18247   2.708   1.834   3.977
 6002WAT     H118248   2.674   1.926   3.957
 6002WAT     H218249   2.661   1.798   4.057
 6003WAT      O18250   7.242   6.037   5.669
 6003WAT     H118251   7.322   5.994   5.710
 6003WAT     H218252   7.228   6.127   5.710
 6004WAT      O18253   9.135   5.000   2.111
 6004WAT     H118254   9.124   4.901   2.116
 6004WAT     H218255   9.065   5.044   2.166
 6005WAT      O18256   3.476   1.736   5.202
 6005WAT     H118257   3.506   1.826   5.170
 6005WAT     H218258   3.377   1.738   5.217
 6006WAT      O18259   8.449   5.943   7.168
 6006WAT     H118260   8.397   5.875   7.219
 6006WAT     H218261   8.391   5.981   7.096
 6007WAT      O18262   8.765   2.806   2.743
 6007WAT     H118263   8.693   2.774   2.804
 6007WAT     H218264   8.737   2.791   2.648
 6008WAT      O18265   5.621   6.135   6.586
 6008WAT     H118266   5.713   6.102   6.563
 6008WAT     H218267   5.609   6.228   6.551
 6009WAT      O18268   4.937   4.347   1.855
 6009WAT     H118269   4.984   4.262   1.878
 6009WAT     H218270   4.852   4.354   1.908
 6010WAT      O18271   1.499   6.238   2.116
 6010WAT     H118272   1.448   6.219   2.200
 6010WAT     H218273   1.546   6.154   2.087
 6011WAT      O18274   3.181   7.395   8.095
 6011WAT     H118275   3.093   7.420   8.055
 6011WAT     H218276   3.179   7.299   8.124
 6012WAT      O18277   9.194   9.423   4.227
 6012WAT     H118278   9.280   9.474   4.232
 6012WAT     H218279   9.121   9.485   4.197
 6013WAT      O18280   1.764   2.373   6.068
 6013WAT     H118281   1.784   2.330   5.980
 6013WAT     H218282   1.778   2.306   6.142
 6014WAT      O18283   8.683   4.099   8.284
 6014WAT     H118284   8.599   4.143   8.252
 6014WAT     H218285   8.688   4.006   8.249
 6015WAT      O18286   6.413   9.030   9.631
 6015WAT     H118287   6.430   8.933   9.612
 6015WAT     H218288   6.465   9.086   9.566
 6016WAT      O18289   1.157   4.218   0.974
 6016WAT     H118290   1.228   4.286   0.992
 6016WAT     H218291   1.197   4.127   0.971
 6017WAT      O18292   5.257   6.602   1.370
 6017WAT     H118293   5.249   6.540   1.293
 6017WAT     H218294   5.176   6.661   1.374
 6018WAT      O18295   2.190   1.819   2.313
 6018WAT     H118296   2.284   1.803   2.282
 6018WAT     H218297   2.176   1.774   2.401
 6019WAT      O18298   7.822   6.299   6.373
 6019WAT     H118299   7.893   6.315   6.305
 6019WAT     H218300   7.753   6.371   6.368
 6020WAT      O18301   4.271   9.152   6.718
 6020WAT     H118302   4.328   9.233   6.734
 6020WAT     H218303   4.271   9.095   6.800
 6021WAT      O18304   9.069   3.171   8.453
 6021WAT     H118305   9.051   3.143   8.359
 6021WAT     H218306   9.130   3.105   8.496
 6022WAT      O18307   4.153   4.401   1.160
 6022WAT     H118308   4.114   4.486   1.126
 6022WAT     H218309   4.083   4.329   1.159
 6023WAT      O18310   6.702   2.481   6.251
 6023WAT     H118311   6.780   2.534   6.285
 6023WAT     H218312   6.677   2.514   6.160
 6024WAT      O18313   4.499   5.494   8.499
 6024WAT     H118314   4.580   5.470   8.445
 6024WAT     H218315   4.524   5.563   8.567
 6025WAT      O18316   1.758   5.071   8.300
 6025WAT     H118317   1.779   5.025   8.385
 6025WAT     H218318   1.839   5.118   8.266
 6026WAT      O18319   8.645   9.485   6.018
 6026WAT     H118320   8.625   9.442   6.106
 6026WAT     H218321   8.729   9.539   6.026
 6027WAT      O18322   1.427   4.790   5.475
 6027WAT     H118323   1.362   4.866   5.484
 6027WAT     H218324   1.486   4.787   5.555
 6028WAT      O18325   9.536   6.619   5.014
 6028WAT     H118326   9.557   6.699   5.069
 6028WAT     H218327   9.485   6.647   4.933
 6029WAT      O18328   7.073   4.961   1.415
 6029WAT     H118329   7.132   4.889   1.380
 6029WAT     H218330   7.125   5.047   1.420
 6030WAT      O18331   9.406   8.840   2.922
 6030WAT     H118332   9.476   8.772   2.941
 6030WAT     H218333   9.348   8.808   2.847
 6031WAT      O18334   2.888   7.451   0.582
 6031WAT     H118335   2.871   7.518   0.654
 6031WAT     H218336   2.830   7.372   0.595
 6032WAT      O18337   5.861   0.225   8.510
 6032WAT     H118338   5.851   0.282   8.592
 6032WAT     H218339   5.882   0.284   8.431
 6033WAT      O18340   3.989   0.411   2.457
 6033WAT     H118341   3.938   0.326   2.444
 6033WAT     H218342   4.083   0.399   2.424
 6034WAT      O18343   4.827   6.118   9.071
 6034WAT     H118344   4.855   6.034   9.118
 6034WAT     H218345   4.856   6.113   8.975
 6035WAT      O18346   4.625   0.413   9.594
 6035WAT     H118347   4.568   0.334   9.569
 6035WAT     H218348   4.716   0.401   9.555
 6036WAT      O18349   2.726   3.690   9.009
 6036WAT     H118350   2.636   3.648   9.024
 6036WAT     H218351   2.756   3.734   9.093
 6037WAT      O18352   1.516   9.580   6.425
 6037WAT     H118353   1.438   9.560   6.365
 6037WAT     H218354   1.506   9.529   6.510
 6038WAT      O18355   6.124   4.991   3.382
 6038WAT     H118356   6.167   5.078   3.407
 6038WAT     H218357   6.189   4.916   3.394
 6039WAT      O18358   9.033   2.301   1.519
 6039WAT     H118359   8.959   2.330   1.458
 6039WAT     H218360   9.114   2.278   1.464
 6040WAT      O18361   4.215   8.492   4.863
 6040WAT     H118362   4.124   8.531   4.849
 6040WAT     H218363   4.280   8.566   4.882
 6041WAT      O18364   1.223   4.791   6.447
 6041WAT     H118365   1.275   4.708   6.469
 6041WAT     H218366   1.270   4.870   6.488
 6042WAT      O18367   2.166   3.294   5.981
 6042WAT     H118368   2.163   3.317   5.884
 6042WAT     H218369   2.181   3.196   5.991
 6043WAT      O18370   2.545   4.499   7.214
 6043WAT     H118371   2.480   4.558   7.261
 6043WAT     H218372   2.589   4.438   7.279
 6044WAT      O18373   2.921   1.040   0.926
 6044WAT     H118374   2.999   0.979   0.936
 6044WAT     H218375   2.843   0.990   0.889
 6045WAT      O18376   0.909   5.855   5.602
 6045WAT     H118377   0.937   5.901   5.518
 6045WAT     H218378   0.941   5.761   5.600
 6046WAT      O18379   5.965   5.369   3.995
 6046WAT     H118380   5.901   5.446   4.001
 6046WAT     H218381   6.036   5.380   4.065
 6047WAT      O18382   7.477   3.647   3.058
 6047WAT     H118383   7.526   3.623   3.142
 6047WAT     H218384   7.436   3.738   3.068
 6048WAT      O18385   1.956   2.220   7.048
 6048WAT     H118386   1.857   2.217   7.059
 6048WAT     H218387   1.978   2.273   6.966
 6049WAT      O18388   9.729   3.130   4.560
 6049WAT     H118389   9.702   3.202   4.624
 6049WAT     H218390   9.759   3.171   4.474
 6050WAT      O18391   8.235   4.782   1.061
 6050WAT     H118392   8.314   4.837   1.032
 6050WAT     H218393   8.164   4.786   0.990
 6051WAT      O18394   7.118   1.035   4.812
 6051WAT     H118395   7.175   0.991   4.742
 6051WAT     H218396   7.130   0.988   4.899
 6052WAT      O18397   5.997   2.336   1.972
 6052WAT     H118398   5.924   2.357   1.907
 6052WAT     H218399   5.957   2.307   2.059
 6053WAT      O18400   5.837   2.435   9.173
 6053WAT     H118401   5.848   2.370   9.098
 6053WAT     H218402   5.850   2.528   9.139
 6054WAT      O18403   2.885   3.958   5.254
 6054WAT     H118404   2.862   4.020   5.330
 6054WAT     H218405   2.918   4.011   5.177
 6055WAT      O18406   0.196   9.777   5.436
 6055WAT     H118407   0.163   9.854   5.382
 6055WAT     H218408   0.246   9.714   5.377
 6056WAT      O18409   5.612   8.298   0.847
 6056WAT     H118410   5.672   8.378   0.850
 6056WAT     H218411   5.530   8.319   0.794
 6057WAT      O18412   4.316   3.201   2.126
 6057WAT     H118413   4.358   3.282   2.086
 6057WAT     H218414   4.217   3.213   2.130
 6058WAT      O18415   4.922   5.031   0.075
 6058WAT     H118416   5.005   5.084   0.061
 6058WAT     H218417   4.883   5.052   0.164
 6059WAT      O18418   7.816   1.677   0.777
 6059WAT     H118419   7.776   1.616   0.846
 6059WAT     H218420   7.892   1.727   0.817
 6060WAT      O18421   1.414   6.882   3.992
 6060WAT     H118422   1.450   6.845   3.907
 6060WAT     H218423   1.461   6.840   4.070
 6061WAT      O18424   1.005   3.564   8.884
 6061WAT     H118425   1.043   3.535   8.796
 6061WAT     H218426   1.022   3.661   8.898
 6062WAT      O18427   8.000   0.880   6.123
 6062WAT     H118428   7.990   0.843   6.215
 6062WAT     H218429   7.921   0.938   6.101
 6063WAT      O18430   5.425   7.818   4.344
 6063WAT     H118431   5.341   7.858   4.307
 6063WAT     H218432   5.491   7.805   4.271
 6064WAT      O18433   7.731   5.950   2.164
 6064WAT     H118434   7.708   5.873   2.223
 6064WAT     H218435   7.647   5.987   2.124
 6065WAT      O18436   8.545   5.283   8.043
 6065WAT     H118437   8.483   5.360   8.044
 6065WAT     H218438   8.532   5.228   8.125
 6066WAT      O18439   9.735   3.091   5.628
 6066WAT     H118440   9.688   3.083   5.540
 6066WAT     H218441   9.668   3.105   5.700
 6067WAT      O18442   1.346   8.448   8.145
 6067WAT     H118443   1.251   8.444   8.114
 6067WAT     H218444   1.350   8.430   8.243
 6068WAT      O18445   6.089   6.438   9.553
 6068WAT     H118446   6.092   6.352   9.603
 6068WAT     H218447   6.021   6.499   9.595
 6069WAT      O18448   8.980   5.226   6.322
 6069WAT     H118449   8.965   5.145   6.379
 6069WAT     H218450   8.914   5.226   6.247
 6070WAT      O18451   3.555   7.304   1.404
 6070WAT     H118452   3.516   7.269   1.489
 6070WAT     H218453   3.650   7.274   1.395
 6071WAT      O18454   0.618   2.573   1.462
 6071WAT     H118455   0.533   2.548   1.509
 6071WAT     H218456   0.654   2.658   1.502
 6072WAT      O18457   1.162   0.202   0.907
 6072WAT     H118458   1.088   0.269   0.913
 6072WAT     H218459   1.215   0.218   0.824
 6073WAT      O18460   1.326   4.905   6.757
 6073WAT     H118461   1.298   4.976   6.692
 6073WAT     H218462   1.294   4.929   6.848
 6074WAT      O18463   2.996   5.855   0.968
 6074WAT     H118464   3.090   5.888   0.963
 6074WAT     H218465   2.933   5.929   0.947
 6075WAT      O18466   2.915   5.377   5.836
 6075WAT     H118467   2.867   5.291   5.815
 6075WAT     H218468   2.996   5.384   5.778
 6076WAT      O18469   6.449   8.302   7.934
 6076WAT     H118470   6.374   8.340   7.880
 6076WAT     H218471   6.535   8.312   7.882
 6077WAT      O18472   2.630   7.585   7.031
 6077WAT     H118473   2.703   7.552   6.971
 6077WAT     H218474   2.584   7.662   6.989
 6078WAT      O18475   0.867   9.512   0.598
 6078WAT     H118476   0.963   9.486   0.597
 6078WAT     H218477   0.849   9.576   0.523
 6079WAT      O18478   6.272   2.467   9.707
 6079WAT     H118479   6.320   2.380   9.715
 6079WAT     H218480   6.190   2.466   9.764
 6080WAT      O18481   7.475   0.463   8.114
 6080WAT     H118482   7.400   0.481   8.050
 6080WAT     H218483   7.496   0.546   8.165
 6081WAT      O18484   2.480   5.496   2.516
 6081WAT     H118485   2.573   5.523   2.490
 6081WAT     H218486   2.444   5.432   2.448
 6082WAT      O18487   5.509   6.898   2.299
 6082WAT     H118488   5.412   6.923   2.290
 6082WAT     H218489   5.525   6.809   2.256
 6083WAT      O18490   4.861   8.095   7.847
 6083WAT     H118491   4.813   8.008   7.862
 6083WAT     H218492   4.913   8.091   7.763
 6084WAT      O18493   6.385   4.022   2.862
 6084WAT     H118494   6.351   3.933   2.891
 6084WAT     H218495   6.317   4.092   2.885
 6085WAT      O18496   4.778   0.248   7.699
 6085WAT     H118497   4.684   0.281   7.689
 6085WAT     H218498   4.776   0.149   7.712
 6086WAT      O18499   3.860   2.075   2.390
 6086WAT     H118500   3.826   2.047   2.300
 6086WAT     H218501   3.820   2.016   2.460
 6087WAT      O18502   1.520   8.667   0.337
 6087WAT     H118503   1.557   8.597   0.276
 6087WAT     H218504   1.445   8.714   0.291
 6088WAT      O18505   2.334   3.477   3.496
 6088WAT     H118506   2.355   3.461   3.592
 6088WAT     H218507   2.256   3.421   3.469
 6089WAT      O18508   6.397   2.958   4.158
 6089WAT     H118509   6.384   2.931   4.062
 6089WAT     H218510   6.491   2.940   4.185
 6090WAT      O18511   7.029   7.941   2.349
 6090WAT     H118512   7.097   7.869   2.333
 6090WAT     H218513   7.009   7.988   2.264
 6091WAT      O18514   3.469   7.097   0.283
 6091WAT     H118515   3.502   7.190   0.298
 6091WAT     H218516   3.495   7.040   0.360
 6092WAT      O18517   5.022   8.636   0.474
 6092WAT     H118518   5.114   8.663   0.444
 6092WAT     H218519   4.954   8.691   0.426
 6093WAT      O18520   7.366   6.219   4.489
 6093WAT     H118521   7.449   6.274   4.473
 6093WAT     H218522   7.326   6.194   4.401
 6094WAT      O18523   6.275   1.078   7.264
 6094WAT     H118524   6.258   1.118   7.355
 6094WAT     H218525   6.363   1.031   7.265
 6095WAT      O18526   4.099   6.176   1.126
 6095WAT     H118527   4.138   6.260   1.090
 6095WAT     H218528   4.163   6.135   1.191
 6096WAT      O18529   5.869   8.350   9.723
 6096WAT     H118530   5.887   8.320   9.629
 6096WAT     H218531   5.791   8.300   9.760
 6097WAT      O18532   8.057   5.223   8.233
 6097WAT     H118533   7.977   5.164   8.239
 6097WAT     H218534   8.128   5.190   8.296
 6098WAT      O18535   5.082   5.627   4.380
 6098WAT     H118536   5.013   5.575   4.329
 6098WAT     H218537   5.049   5.644   4.472
 6099WAT      O18538   2.906   2.226   4.325
 6099WAT     H118539   2.814   2.241   4.290
 6099WAT     H218540   2.916   2.272   4.413
 6100WAT      O18541   9.512   0.772   0.267
 6100WAT     H118542   9.558   0.808   0.187
 6100WAT     H218543   9.579   0.746   0.336
 6101WAT      O18544   7.103   5.149   8.729
 6101WAT     H118545   7.167   5.204   8.675
 6101WAT     H218546   7.010   5.161   8.694
 6102WAT      O18547   3.409   6.064   1.395
 6102WAT     H118548   3.480   6.034   1.331
 6102WAT     H218549   3.451   6.090   1.482
 6103WAT      O18550   2.515   2.094   0.727
 6103WAT     H118551   2.564   2.020   0.772
 6103WAT     H218552   2.580   2.163   0.694
 6104WAT      O18553   5.036   0.729   4.022
 6104WAT     H118554   4.937   0.728   4.011
 6104WAT     H218555   5.079   0.743   3.932
 6105WAT      O18556   6.645   5.590   7.936
 6105WAT     H118557   6.608   5.516   7.880
 6105WAT     H218558   6.653   5.673   7.880
 6106WAT      O18559   2.223   4.176   0.468
 6106WAT     H118560   2.286   4.155   0.394
 6106WAT     H218561   2.186   4.092   0.506
 6107WAT      O18562   3.435   3.196   5.520
 6107WAT     H118563   3.405   3.291   5.507
 6107WAT     H218564   3.476   3.162   5.435
 6108WAT      O18565   2.536   3.965   2.375
 6108WAT     H118566   2.459   3.901   2.380
 6108WAT     H218567   2.548   4.010   2.463
 6109WAT      O18568   6.680   3.752   2.558
 6109WAT     H118569   6.641   3.797   2.639
 6109WAT     H218570   6.638   3.790   2.476
 6110WAT      O18571   1.911   4.061   3.374
 6110WAT     H118572   1.818   4.095   3.360
 6110WAT     H218573   1.921   4.031   3.469
 6111WAT      O18574   4.820   6.075   1.840
 6111WAT     H118575   4.884   6.145   1.874
 6111WAT     H218576   4.834   5.990   1.891
 6112WAT      O18577   8.501   7.884   9.437
 6112WAT     H118578   8.432   7.898   9.366
 6112WAT     H218579   8.491   7.956   9.506
 6113WAT      O18580   4.439   1.982   6.717
 6113WAT     H118581   4.490   1.970   6.802
 6113WAT     H218582   4.348   1.940   6.727
 6114WAT      O18583   2.524   2.002   5.979
 6114WAT     H118584   2.601   1.944   6.007
 6114WAT     H218585   2.457   1.946   5.930
 6115WAT      O18586   0.891   6.236   7.863
 6115WAT     H118587   0.937   6.273   7.781
 6115WAT     H218588   0.944   6.262   7.944
 6116WAT      O18589   3.000   1.147   9.509
 6116WAT     H118590   2.982   1.219   9.576
 6116WAT     H218591   2.943   1.161   9.428
 6117WAT      O18592   7.384   9.290   5.361
 6117WAT     H118593   7.289   9.305   5.335
 6117WAT     H218594   7.434   9.250   5.284
 6118WAT      O18595   2.040   6.948   8.058
 6118WAT     H118596   2.038   6.865   8.114
 6118WAT     H218597   1.947   6.984   8.048
 6119WAT      O18598   4.805   3.039   0.401
 6119WAT     H118599   4.821   2.997   0.490
 6119WAT     H218600   4.725   2.995   0.358
 6120WAT      O18601   6.268   0.304   3.218
 6120WAT     H118602   6.229   0.283   3.308
 6120WAT     H218603   6.206   0.273   3.146
 6121WAT      O18604   3.024   8.066   0.618
 6121WAT     H118605   3.014   8.053   0.717
 6121WAT     H218606   3.121   8.071   0.595
 6122WAT      O18607   8.750   8.901   5.669
 6122WAT     H118608   8.691   8.820   5.665
 6122WAT     H218609   8.724   8.956   5.748
 6123WAT      O18610   8.217   1.875   6.508
 6123WAT     H118611   8.195   1.942   6.436
 6123WAT     H218612   8.202   1.783   6.473
 6124WAT      O18613   6.948   2.607   0.169
 6124WAT     H118614   6.926   2.653   0.083
 6124WAT     H218615   6.912   2.514   0.167
 6125WAT      O18616   3.003   2.379   1.565
 6125WAT     H118617   2.990   2.364   1.467
 6125WAT     H218618   2.922   2.346   1.614
 6126WAT      O18619   2.998   3.595   2.877
 6126WAT     H118620   3.047   3.633   2.956
 6126WAT     H218621   2.911   3.556   2.907
 6127WAT      O18622   9.329   2.492   9.285
 6127WAT     H118623   9.232   2.505   9.301
 6127WAT     H218624   9.345   2.400   9.248
 6128WAT      O18625   1.216   3.621   0.523
 6128WAT     H118626   1.193   3.584   0.433
 6128WAT     H218627   1.134   3.661   0.565
 6129WAT      O18628   9.611   9.436   7.911
 6129WAT     H118629   9.668   9.501   7.861
 6129WAT     H218630   9.669   9.371   7.959
 6130WAT      O18631   7.414   4.546   9.381
 6130WAT     H118632   7.458   4.561   9.469
 6130WAT     H218633   7.331   4.602   9.374
 6131WAT      O18634   6.069   7.244   1.743
 6131WAT     H118635   6.084   7.304   1.665
 6131WAT     H218636   6.146   7.251   1.806
 6132WAT      O18637   2.070   3.896   9.569
 6132WAT     H118638   2.051   3.994   9.567
 6132WAT     H218639   2.020   3.854   9.645
 6133WAT      O18640   7.700   1.020   4.255
 6133WAT     H118641   7.630   1.046   4.188
 6133WAT     H218642   7.722   1.099   4.313
 6134WAT      O18643   5.203   6.550   4.290
 6134WAT     H118644   5.251   6.549   4.377
 6134WAT     H218645   5.140   6.473   4.285
 6135WAT      O18646   3.144   1.915   6.923
 6135WAT     H118647   3.108   1.948   6.835
 6135WAT     H218648   3.188   1.826   6.910
 6136WAT      O18649   7.253   8.926   4.607
 6136WAT     H118650   7.336   8.969   4.571
 6136WAT     H218651   7.185   8.919   4.534
 6137WAT      O18652   0.219   7.002   6.283
 6137WAT     H118653   0.199   7.047   6.196
 6137WAT     H218654   0.157   6.924   6.295
 6138WAT      O18655   6.433   0.596   1.356
 6138WAT     H118656   6.413   0.694   1.363
 6138WAT     H218657   6.390   0.547   1.432
 6139WAT      O18658   3.460   8.001   8.804
 6139WAT     H118659   3.372   8.035   8.771
 6139WAT     H218660   3.532   8.025   8.739
 6140WAT      O18661   1.897   1.709   5.890
 6140WAT     H118662   1.983   1.724   5.842
 6140WAT     H218663   1.836   1.653   5.834
 6141WAT      O18664   1.615   2.125   9.787
 6141WAT     H118665   1.646   2.211   9.827
 6141WAT     H218666   1.594   2.059   9.859
 6142WAT      O18667   9.711   0.312   6.932
 6142WAT     H118668   9.810   0.302   6.944
 6142WAT     H218669   9.690   0.407   6.909
 6143WAT      O18670   4.583   0.453   1.937
 6143WAT     H118671   4.593   0.394   1.857
 6143WAT     H218672   4.634   0.415   2.014
 6144WAT      O18673   0.467   3.750   4.149
 6144WAT     H118674   0.456   3.813   4.226
 6144WAT     H218675   0.392   3.684   4.150
 6145WAT      O18676   3.900   0.420   0.721
 6145WAT     H118677   3.877   0.335   0.769
 6145WAT     H218678   3.824   0.447   0.663
 6146WAT      O18679   4.480   3.539   1.779
 6146WAT     H118680   4.453   3.615   1.720
 6146WAT     H218681   4.579   3.529   1.777
 6147WAT      O18682   8.376   0.794   3.903
 6147WAT     H118683   8.465   0.837   3.888
 6147WAT     H218684   8.372   0.709   3.851
 6148WAT      O18685   6.901   8.746   8.397
 6148WAT     H118686   6.842   8.669   8.373
 6148WAT     H218687   6.887   8.770   8.493
 6149WAT      O18688   1.206   8.726   7.971
 6149WAT     H118689   1.265   8.649   7.946
 6149WAT     H218690   1.243   8.810   7.932
 6150WAT      O18691   9.385   0.226   6.640
 6150WAT     H118692   9.345   0.268   6.722
 6150WAT     H218693   9.380   0.291   6.564
 6151WAT      O18694   1.769   0.813   8.419
 6151WAT     H118695   1.862   0.808   8.382
 6151WAT     H218696   1.704   0.797   8.345
 6152WAT      O18697   8.676   1.391   6.306
 6152WAT     H118698   8.654   1.478   6.350
 6152WAT     H218699   8.675   1.318   6.375
 6153WAT      O18700   6.051   8.215   2.911
 6153WAT     H118701   6.009   8.160   2.839
 6153WAT     H218702   5.994   8.295   2.930
 6154WAT      O18703   8.317   3.632   6.491
 6154WAT     H118704   8.237   3.664   6.542
 6154WAT     H218705   8.330   3.689   6.410
 6155WAT      O18706   4.140   8.314   1.050
 6155WAT     H118707   4.151   8.406   1.087
 6155WAT     H218708   4.108   8.320   0.955
 6156WAT      O18709   8.099   8.063   8.257
 6156WAT     H118710   8.128   8.022   8.343
 6156WAT     H218711   8.000   8.078   8.258
 6157WAT      O18712   3.605   7.112   3.212
 6157WAT     H118713   3.506   7.107   3.215
 6157WAT     H218714   3.642   7.027   3.175
 6158WAT      O18715   8.357   4.190   9.461
 6158WAT     H118716   8.381   4.199   9.558
 6158WAT     H218717   8.385   4.100   9.427
 6159WAT      O18718   5.124   7.532   0.659
 6159WAT     H118719   5.033   7.559   0.629
 6159WAT     H218720   5.193   7.580   0.604
 6160WAT      O18721   8.631   1.832   8.499
 6160WAT     H118722   8.724   1.796   8.509
 6160WAT     H218723   8.571   1.760   8.466
 6161WAT      O18724   6.545   8.379   2.428
 6161WAT     H118725   6.563   8.295   2.377
 6161WAT     H218726   6.563   8.458   2.370
 6162WAT      O18727   8.657   0.060   4.372
 6162WAT     H118728   8.624   0.104   4.288
 6162WAT     H218729   8.717   0.124   4.421
 6163WAT      O18730   9.673   4.418   7.329
 6163WAT     H118731   9.703   4.513   7.321
 6163WAT     H218732   9.583   4.407   7.286
 6164WAT      O18733   9.321   3.311   9.720
 6164WAT     H118734   9.418   3.326   9.701
 6164WAT     H218735   9.277   3.275   9.638
 6165WAT      O18736   4.184   5.802   4.011
 6165WAT     H118737   4.278   5.807   4.043
 6165WAT     H218738   4.139   5.723   4.053
 6166WAT      O18739   2.727   2.446   8.730
 6166WAT     H118740   2.628   2.440   8.747
 6166WAT     H218741   2.743   2.494   8.644
 6167WAT      O18742   4.449   7.333   7.365
 6167WAT     H118743   4.392   7.324   7.284
 6167WAT     H218744   4.396   7.309   7.446
 6168WAT      O18745   8.619   8.796   0.486
 6168WAT     H118746   8.576   8.714   0.449
 6168WAT     H218747   8.623   8.789   0.586
 6169WAT      O18748   9.352   5.273   5.407
 6169WAT     H118749   9.254   5.290   5.399
 6169WAT     H218750   9.401   5.328   5.339
 6170WAT      O18751   2.428   3.682   9.081
 6170WAT     H118752   2.378   3.768   9.081
 6170WAT     H218753   2.411   3.633   8.996
 6171WAT      O18754   3.523   7.001   7.551
 6171WAT     H118755   3.622   6.993   7.541
 6171WAT     H218756   3.496   7.097   7.547
 6172WAT      O18757   6.931   3.706   0.209
 6172WAT     H118758   6.884   3.793   0.220
 6172WAT     H218759   7.030   3.720   0.211
 6173WAT      O18760   0.022   0.818   8.989
 6173WAT     H118761   0.053   0.913   8.982
 6173WAT     H218762   0.009   0.781   8.898
 6174WAT      O18763   2.077   5.555   6.981
 6174WAT     H118764   2.073   5.655   6.978
 6174WAT     H218765   2.160   5.527   7.029
 6175WAT      O18766   5.759   9.584   2.680
 6175WAT     H118767   5.766   9.517   2.754
 6175WAT     H218768   5.673   9.634   2.690
 6176WAT      O18769   3.609   8.195   0.731
 6176WAT     H118770   3.518   8.172   0.767
 6176WAT     H218771   3.601   8.272   0.667
 6177WAT      O18772   6.173   7.330   0.339
 6177WAT     H118773   6.257   7.384   0.331
 6177WAT     H218774   6.173   7.257   0.271
 6178WAT      O18775   8.459   2.993   3.436
 6178WAT     H118776   8.362   3.017   3.442
 6178WAT     H218777   8.476   2.910   3.490
 6179WAT      O18778   1.730   0.114   2.204
 6179WAT     H118779   1.631   0.125   2.212
 6179WAT     H218780   1.764   0.056   2.279
 6180WAT      O18781   9.437   5.460   4.544
 6180WAT     H118782   9.386   5.546   4.552
 6180WAT     H218783   9.378   5.384   4.570
 6181WAT      O18784   0.395   6.808   6.724
 6181WAT     H118785   0.467   6.877   6.714
 6181WAT     H218786   0.395   6.749   6.643
 6182WAT      O18787   4.958   9.646   0.940
 6182WAT     H118788   5.003   9.594   1.012
 6182WAT     H218789   4.923   9.732   0.977
 6183WAT      O18790   0.622   6.456   4.639
 6183WAT     H118791   0.700   6.415   4.685
 6183WAT     H218792   0.540   6.401   4.658
 6184WAT      O18793   8.543   9.816   8.906
 6184WAT     H118794   8.629   9.857   8.933
 6184WAT     H218795   8.467   9.869   8.943
 6185WAT      O18796   3.830   0.339   2.721
 6185WAT     H118797   3.888   0.340   2.639
 6185WAT     H218798   3.773   0.421   2.722
 6186WAT      O18799   2.230   9.091   2.262
 6186WAT     H118800   2.135   9.100   2.292
 6186WAT     H218801   2.248   8.997   2.234
 6187WAT      O18802   9.142   7.052   6.215
 6187WAT     H118803   9.144   6.960   6.175
 6187WAT     H218804   9.214   7.059   6.285
 6188WAT      O18805   6.498   1.175   2.113
 6188WAT     H118806   6.486   1.183   2.212
 6188WAT     H218807   6.591   1.144   2.093
 6189WAT      O18808   2.350   7.422   4.593
 6189WAT     H118809   2.363   7.349   4.659
 6189WAT     H218810   2.288   7.491   4.632
 6190WAT      O18811   6.142   0.323   2.515
 6190WAT     H118812   6.190   0.311   2.603
 6190WAT     H218813   6.186   0.396   2.463
 6191WAT      O18814   6.081   3.727   6.275
 6191WAT     H118815   6.000   3.785   6.273
 6191WAT     H218816   6.160   3.780   6.305
 6192WAT      O18817   1.567   8.997   6.995
 6192WAT     H118818   1.477   9.021   7.030
 6192WAT     H218819   1.637   9.048   7.045
 6193WAT      O18820   6.701   1.868   9.810
 6193WAT     H118821   6.769   1.818   9.863
 6193WAT     H218822   6.646   1.804   9.756
 6194WAT      O18823   6.309   7.728   2.954
 6194WAT     H118824   6.277   7.634   2.946
 6194WAT     H218825   6.254   7.776   3.023
 6195WAT      O18826   4.440   7.186   8.381
 6195WAT     H118827   4.344   7.188   8.352
 6195WAT     H218828   4.447   7.132   8.465
 6196WAT      O18829   7.056   4.417   5.860
 6196WAT     H118830   7.028   4.511   5.877
 6196WAT     H218831   7.069   4.403   5.762
 6197WAT      O18832   5.893   1.183   2.127
 6197WAT     H118833   5.835   1.264   2.131
 6197WAT     H218834   5.883   1.138   2.038
 6198WAT      O18835   2.589   2.978   0.486
 6198WAT     H118836   2.500   2.966   0.443
 6198WAT     H218837   2.618   3.074   0.476
 6199WAT      O18838   4.288   3.238   5.765
 6199WAT     H118839   4.351   3.161   5.766
 6199WAT     H218840   4.338   3.320   5.734
 6200WAT      O18841   1.362   0.375   8.792
 6200WAT     H118842   1.343   0.350   8.697
 6200WAT     H218843   1.324   0.304   8.853
 6201WAT      O18844   6.303   5.297   5.078
 6201WAT     H118845   6.327   5.200   5.074
 6201WAT     H218846   6.226   5.315   5.017
 6202WAT      O18847   4.285   2.794   4.196
 6202WAT     H118848   4.318   2.888   4.209
 6202WAT     H218849   4.185   2.796   4.188
 6203WAT      O18850   6.735   0.595   4.972
 6203WAT     H118851   6.748   0.557   4.881
 6203WAT     H218852   6.787   0.541   5.038
 6204WAT      O18853   8.681   6.632   1.173
 6204WAT     H118854   8.620   6.596   1.243
 6204WAT     H218855   8.737   6.558   1.136
 6205WAT      O18856   5.894   5.409   2.432
 6205WAT     H118857   5.822   5.459   2.481
 6205WAT     H218858   5.964   5.473   2.402
 6206WAT      O18859   3.238   1.415   3.657
 6206WAT     H118860   3.205   1.509   3.651
 6206WAT     H218861   3.268   1.384   3.567
 6207WAT      O18862   6.761   5.818   4.647
 6207WAT     H118863   6.708   5.874   4.584
 6207WAT     H218864   6.800   5.740   4.598
 6208WAT      O18865   8.908   8.614   7.355
 6208WAT     H118866   8.921   8.525   7.400
 6208WAT     H218867   8.810   8.633   7.347
 6209WAT      O18868   2.734   7.716   5.830
 6209WAT     H118869   2.723   7.802   5.780
 6209WAT     H218870   2.724   7.639   5.767
 6210WAT      O18871   6.840   9.640   1.316
 6210WAT     H118872   6.885   9.719   1.357
 6210WAT     H218873   6.863   9.558   1.367
 6211WAT      O18874   7.002   9.542   0.518
 6211WAT     H118875   6.948   9.495   0.448
 6211WAT     H218876   7.044   9.624   0.479
 6212WAT      O18877   2.849   9.617   6.473
 6212WAT     H118878   2.770   9.611   6.411
 6212WAT     H218879   2.889   9.708   6.466
 6213WAT      O18880   7.482   5.827   5.554
 6213WAT     H118881   7.406   5.824   5.489
 6213WAT     H218882   7.532   5.740   5.550
 6214WAT      O18883   1.201   4.828   6.173
 6214WAT     H118884   1.227   4.859   6.264
 6214WAT     H218885   1.283   4.798   6.123
 6215WAT      O18886   5.412   4.492   6.299
 6215WAT     H118887   5.455   4.491   6.389
 6215WAT     H218888   5.375   4.401   6.279
 6216WAT      O18889   3.599   1.276   4.723
 6216WAT     H118890   3.663   1.353   4.723
 6216WAT     H218891   3.541   1.281   4.641
 6217WAT      O18892   2.720   5.828   8.360
 6217WAT     H118893   2.780   5.893   8.312
 6217WAT     H218894   2.652   5.793   8.296
 6218WAT      O18895   5.674   2.928   7.064
 6218WAT     H118896   5.694   3.001   6.999
 6218WAT     H218897   5.581   2.939   7.100
 6219WAT      O18898   5.351   4.243   2.688
 6219WAT     H118899   5.435   4.285   2.653
 6219WAT     H218900   5.316   4.177   2.621
 6220WAT      O18901   5.947   0.540   7.073
 6220WAT     H118902   5.881   0.605   7.035
 6220WAT     H218903   5.929   0.449   7.037
 6221WAT      O18904   2.980   5.605   7.518
 6221WAT     H118905   3.065   5.569   7.555
 6221WAT     H218906   2.990   5.622   7.420
 6222WAT      O18907   7.599   0.520   9.876
 6222WAT     H118908   7.544   0.440   9.897
 6222WAT     H218909   7.579   0.592   9.943
 6223WAT      O18910   2.558   3.159   2.452
 6223WAT     H118911   2.470   3.201   2.473
 6223WAT     H218912   2.563   3.138   2.355
 6224WAT      O18913   5.723   1.318   5.377
 6224WAT     H118914   5.750   1.236   5.427
 6224WAT     H218915   5.654   1.295   5.308
 6225WAT      O18916   6.331   2.304   3.135
 6225WAT     H118917   6.272   2.383   3.123
 6225WAT     H218918   6.425   2.328   3.111
 6226WAT      O18919   4.610   2.966   4.134
 6226WAT     H118920   4.636   3.009   4.220
 6226WAT     H218921   4.573   2.875   4.151
 6227WAT      O18922   5.502   1.155   1.845
 6227WAT     H118923   5.485   1.107   1.931
 6227WAT     H218924   5.557   1.096   1.785
 6228WAT      O18925   5.213   9.094   1.367
 6228WAT     H118926   5.270   9.128   1.292
 6228WAT     H218927   5.254   9.119   1.455
 6229WAT      O18928   5.515   1.083   0.231
 6229WAT     H118929   5.535   1.055   0.325
 6229WAT     H218930   5.550   1.014   0.168
 6230WAT      O18931   0.343   0.357   3.485
 6230WAT     H118932   0.262   0.331   3.433
 6230WAT     H218933   0.383   0.440   3.446
 6231WAT      O18934   7.366   9.509   0.705
 6231WAT     H118935   7.378   9.429   0.646
 6231WAT     H218936   7.374   9.481   0.801
 6232WAT      O18937   8.700   6.253   6.914
 6232WAT     H118938   8.664   6.334   6.960
 6232WAT     H218939   8.800   6.255   6.915
 6233WAT      O18940   1.472   6.822   7.946
 6233WAT     H118941   1.383   6.867   7.951
 6233WAT     H218942   1.517   6.827   8.036
 6234WAT      O18943   5.656   4.365   9.887
 6234WAT     H118944   5.602   4.431   9.834
 6234WAT     H218945   5.722   4.415   9.944
 6235WAT      O18946   2.196   7.982   9.362
 6235WAT     H118947   2.219   7.892   9.400
 6235WAT     H218948   2.219   8.053   9.428
 6236WAT      O18949   6.366   3.849   9.093
 6236WAT     H118950   6.393   3.907   9.170
 6236WAT     H218951   6.266   3.851   9.083
 6237WAT      O18952   3.697   0.608   6.948
 6237WAT     H118953   3.796   0.590   6.953
 6237WAT     H218954   3.677   0.657   6.862
 6238WAT      O18955   5.932   8.446   3.966
 6238WAT     H118956   5.853   8.494   4.004
 6238WAT     H218957   6.002   8.512   3.940
 6239WAT      O18958   1.824   7.856   0.409
 6239WAT     H118959   1.874   7.821   0.330
 6239WAT     H218960   1.865   7.822   0.493
 6240WAT      O18961   2.028   8.591   6.691
 6240WAT     H118962   2.046   8.673   6.637
 6240WAT     H218963   2.114   8.553   6.724
 6241WAT      O18964   7.938   2.860   7.316
 6241WAT     H118965   7.976   2.952   7.306
 6241WAT     H218966   7.914   2.844   7.412
 6242WAT      O18967   8.267   8.355   1.843
 6242WAT     H118968   8.179   8.365   1.796
 6242WAT     H218969   8.297   8.260   1.839
 6243WAT      O18970   2.512   0.450   3.982
 6243WAT     H118971   2.591   0.389   3.980
 6243WAT     H218972   2.429   0.396   3.998
 6244WAT      O18973   4.008   0.737   0.368
 6244WAT     H118974   3.965   0.675   0.304
 6244WAT     H218975   4.096   0.699   0.397
 6245WAT      O18976   2.075   8.582   8.972
 6245WAT     H118977   2.059   8.659   8.910
 6245WAT     H218978   2.132   8.514   8.926
 6246WAT      O18979   8.553   7.289   4.901
 6246WAT     H118980   8.649   7.317   4.903
 6246WAT     H218981   8.503   7.336   4.974
 6247WAT      O18982   0.987   4.794   4.868
 6247WAT     H118983   1.063   4.845   4.828
 6247WAT     H218984   0.929   4.757   4.795
 6248WAT      O18985   9.365   1.757   9.708
 6248WAT     H118986   9.376   1.851   9.743
 6248WAT     H218987   9.444   1.733   9.651
 6249WAT      O18988   1.434   3.654   3.938
 6249WAT     H118989   1.396   3.571   3.980
 6249WAT     H218990   1.433   3.644   3.839
 6250WAT      O18991   4.338   3.774   4.557
 6250WAT     H118992   4.421   3.813   4.518
 6250WAT     H218993   4.270   3.847   4.570
 6251WAT      O18994   4.439   7.595   7.136
 6251WAT     H118995   4.402   7.595   7.229
 6251WAT     H218996   4.458   7.689   7.108
 6252WAT      O18997   0.127   7.194   8.844
 6252WAT     H118998   0.213   7.148   8.822
 6252WAT     H218999   0.066   7.190   8.765
 6253WAT      O19000   7.271   6.555   0.348
 6253WAT     H119001   7.181   6.565   0.306
 6253WAT     H219002   7.282   6.622   0.422
 6254WAT      O19003   3.894   1.453   5.494
 6254WAT     H119004   3.807   1.501   5.488
 6254WAT     H219005   3.881   1.364   5.537
 6255WAT      O19006   3.661   1.540   5.104
 6255WAT     H119007   3.633   1.447   5.128
 6255WAT     H219008   3.586   1.603   5.124
 6256WAT      O19009   6.943   7.974   9.699
 6256WAT     H119010   6.904   7.906   9.761
 6256WAT     H219011   6.925   7.948   9.605
 6257WAT      O19012   6.804   6.780   8.790
 6257WAT     H119013   6.836   6.873   8.771
 6257WAT     H219014   6.865   6.737   8.857
 6258WAT      O19015   7.459   8.221   0.294
 6258WAT     H119016   7.480   8.313   0.327
 6258WAT     H219017   7.489   8.212   0.199
 6259WAT      O19018   3.786   1.161   8.697
 6259WAT     H119019   3.878   1.124   8.708
 6259WAT     H219020   3.790   1.261   8.699
 6260WAT      O19021   2.950   8.003   6.166
 6260WAT     H119022   2.858   8.040   6.175
 6260WAT     H219023   2.947   7.920   6.110
 6261WAT      O19024   0.135   1.007   4.826
 6261WAT     H119025   0.116   0.926   4.881
 6261WAT     H219026   0.054   1.030   4.772
 6262WAT      O19027   8.411   0.297   3.443
 6262WAT     H119028   8.483   0.306   3.374
 6262WAT     H219029   8.452   0.287   3.534
 6263WAT      O19030   8.592   8.977   6.447
 6263WAT     H119031   8.629   8.928   6.526
 6263WAT     H219032   8.534   8.915   6.393
 6264WAT      O19033   8.953   1.330   7.410
 6264WAT     H119034   8.920   1.362   7.322
 6264WAT     H219035   8.986   1.236   7.401
 6265WAT      O19036   6.408   1.243   2.361
 6265WAT     H119037   6.311   1.220   2.362
 6265WAT     H219038   6.424   1.323   2.419
 6266WAT      O19039   3.047   2.097   7.737
 6266WAT     H119040   3.003   2.033   7.800
 6266WAT     H219041   2.979   2.163   7.703
 6267WAT      O19042   5.847   3.792   9.706
 6267WAT     H119043   5.807   3.806   9.616
 6267WAT     H219044   5.850   3.879   9.755
 6268WAT      O19045   5.826   0.829   0.130
 6268WAT     H119046   5.727   0.824   0.114
 6268WAT     H219047   5.869   0.746   0.096
 6269WAT      O19048   7.546   7.115   8.946
 6269WAT     H119049   7.572   7.020   8.965
 6269WAT     H219050   7.458   7.135   8.988
 6270WAT      O19051   8.480   7.956   2.063
 6270WAT     H119052   8.409   7.971   2.132
 6270WAT     H219053   8.467   7.866   2.021
 6271WAT      O19054   8.811   5.866   2.433
 6271WAT     H119055   8.852   5.946   2.476
 6271WAT     H219056   8.729   5.893   2.382
 6272WAT      O19057   1.613   9.421   8.805
 6272WAT     H119058   1.687   9.358   8.829
 6272WAT     H219059   1.627   9.508   8.852
 6273WAT      O19060   9.703   9.779   4.626
 6273WAT     H119061   9.701   9.679   4.628
 6273WAT     H219062   9.652   9.815   4.704
 6274WAT      O19063   1.001   4.109   3.674
 6274WAT     H119064   1.082   4.068   3.716
 6274WAT     H219065   0.968   4.184   3.731
 6275WAT      O19066   4.191   8.681   8.334
 6275WAT     H119067   4.207   8.730   8.420
 6275WAT     H219068   4.123   8.609   8.348
 6276WAT      O19069   2.312   2.004   8.830
 6276WAT     H119070   2.351   2.053   8.752
 6276WAT     H219071   2.266   1.921   8.797
 6277WAT      O19072   7.534   3.427   0.606
 6277WAT     H119073   7.595   3.379   0.542
 6277WAT     H219074   7.485   3.360   0.661
 6278WAT      O19075   5.823   7.093   3.259
 6278WAT     H119076   5.860   7.111   3.168
 6278WAT     H219077   5.752   7.022   3.252
 6279WAT      O19078   2.610   0.426   5.568
 6279WAT     H119079   2.699   0.459   5.539
 6279WAT     H219080   2.540   0.454   5.501
 6280WAT      O19081   1.074   7.141   8.710
 6280WAT     H119082   1.166   7.181   8.714
 6280WAT     H219083   1.034   7.141   8.801
 6281WAT      O19084   2.842   0.346   7.132
 6281WAT     H119085   2.837   0.378   7.226
 6281WAT     H219086   2.880   0.254   7.129
 6282WAT      O19087   7.505   2.688   3.756
 6282WAT     H119088   7.598   2.706   3.723
 6282WAT     H219089   7.441   2.751   3.711
 6283WAT      O19090   7.402   9.252   3.970
 6283WAT     H119091   7.458   9.263   4.052
 6283WAT     H219092   7.404   9.336   3.917
 6284WAT      O19093   4.246   6.678   4.640
 6284WAT     H119094   4.178   6.616   4.679
 6284WAT     H219095   4.267   6.751   4.706
 6285WAT      O19096   3.570   0.623   3.992
 6285WAT     H119097   3.523   0.667   3.916
 6285WAT     H219098   3.546   0.526   3.995
 6286WAT      O19099   9.115   0.284   4.449
 6286WAT     H119100   9.058   0.347   4.502
 6286WAT     H219101   9.140   0.327   4.362
 6287WAT      O19102   3.912   3.350   7.251
 6287WAT     H119103   4.007   3.327   7.230
 6287WAT     H219104   3.881   3.294   7.329
 6288WAT      O19105   6.525   0.582   2.479
 6288WAT     H119106   6.516   0.602   2.576
 6288WAT     H219107   6.616   0.544   2.461
 6289WAT      O19108   4.941   7.901   3.770
 6289WAT     H119109   5.004   7.916   3.847
 6289WAT     H219110   4.933   7.985   3.716
 6290WAT      O19111   2.470   1.364   5.579
 6290WAT     H119112   2.381   1.409   5.577
 6290WAT     H219113   2.457   1.265   5.591
 6291WAT      O19114   5.947   5.885   0.209
 6291WAT     H119115   6.030   5.936   0.229
 6291WAT     H219116   5.969   5.808   0.149
 6292WAT      O19117   4.295   6.806   0.438
 6292WAT     H119118   4.334   6.816   0.530
 6292WAT     H219119   4.329   6.880   0.380
 6293WAT      O19120   5.284   1.725   7.975
 6293WAT     H119121   5.235   1.702   7.891
 6293WAT     H219122   5.336   1.646   8.006
 6294WAT      O19123   9.777   7.532   9.814
 6294WAT     H119124   9.706   7.593   9.849
 6294WAT     H219125   9.864   7.552   9.860
 6295WAT      O19126   7.432   3.677   3.915
 6295WAT     H119127   7.438   3.597   3.974
 6295WAT     H219128   7.336   3.694   3.893
 6296WAT      O19129   4.809   5.825   0.703
 6296WAT     H119130   4.716   5.855   0.722
 6296WAT     H219131   4.809   5.766   0.623
 6297WAT      O19132   5.330   4.538   9.199
 6297WAT     H119133   5.306   4.514   9.293
 6297WAT     H219134   5.319   4.457   9.140
 6298WAT      O19135   2.540   8.908   2.022
 6298WAT     H119136   2.497   8.901   1.932
 6298WAT     H219137   2.474   8.881   2.093
 6299WAT      O19138   3.253   6.927   0.463
 6299WAT     H119139   3.222   6.993   0.394
 6299WAT     H219140   3.352   6.915   0.455
 6300WAT      O19141   4.977   4.377   4.037
 6300WAT     H119142   4.947   4.443   4.105
 6300WAT     H219143   4.941   4.403   3.947
 6301WAT      O19144   3.966   6.142   1.681
 6301WAT     H119145   3.937   6.126   1.776
 6301WAT     H219146   4.021   6.064   1.650
 6302WAT      O19147   3.021   6.668   4.136
 6302WAT     H119148   2.960   6.603   4.181
 6302WAT     H219149   2.977   6.702   4.053
 6303WAT      O19150   4.271   0.954   6.727
 6303WAT     H119151   4.370   0.958   6.732
 6303WAT     H219152   4.235   0.913   6.811
 6304WAT      O19153   1.586   4.851   0.084
 6304WAT     H119154   1.587   4.757   0.119
 6304WAT     H219155   1.588   4.915   0.160
 6305WAT      O19156   7.642   3.223   7.244
 6305WAT     H119157   7.557   3.273   7.261
 6305WAT     H219158   7.641   3.136   7.292
 6306WAT      O19159   8.826   1.134   8.691
 6306WAT     H119160   8.757   1.204   8.709
 6306WAT     H219161   8.844   1.083   8.775
 6307WAT      O19162   1.221   0.224   3.363
 6307WAT     H119163   1.300   0.212   3.302
 6307WAT     H219164   1.239   0.300   3.425
 6308WAT      O19165   9.113   6.938   7.821
 6308WAT     H119166   9.162   6.982   7.747
 6308WAT     H219167   9.024   6.906   7.789
 6309WAT      O19168   7.952   8.491   3.899
 6309WAT     H119169   7.959   8.394   3.876
 6309WAT     H219170   8.038   8.522   3.941
 6310WAT      O19171   9.353   6.607   2.249
 6310WAT     H119172   9.429   6.598   2.184
 6310WAT     H219173   9.371   6.550   2.329
 6311WAT      O19174   5.840   8.905   7.060
 6311WAT     H119175   5.779   8.871   6.989
 6311WAT     H219176   5.918   8.842   7.070
 6312WAT      O19177   5.496   3.777   9.639
 6312WAT     H119178   5.532   3.766   9.731
 6312WAT     H219179   5.405   3.818   9.642
 6313WAT      O19180   8.126   3.663   6.965
 6313WAT     H119181   8.120   3.625   7.058
 6313WAT     H219182   8.185   3.605   6.910
 6314WAT      O19183   3.071   1.360   2.379
 6314WAT     H119184   3.049   1.354   2.282
 6314WAT     H219185   3.142   1.429   2.393
 6315WAT      O19186   4.636   9.568   9.440
 6315WAT     H119187   4.712   9.633   9.433
 6315WAT     H219188   4.566   9.605   9.500
 6316WAT      O19189   0.834   2.523   2.276
 6316WAT     H119190   0.794   2.471   2.200
 6316WAT     H219191   0.896   2.463   2.327
 6317WAT      O19192   8.572   2.621   4.083
 6317WAT     H119193   8.473   2.637   4.081
 6317WAT     H219194   8.616   2.677   4.012
 6318WAT      O19195   7.392   1.492   2.699
 6318WAT     H119196   7.354   1.433   2.771
 6318WAT     H219197   7.324   1.502   2.626
 6319WAT      O19198   9.672   1.282   2.284
 6319WAT     H119199   9.721   1.196   2.299
 6319WAT     H219200   9.732   1.347   2.237
 6320WAT      O19201   4.528   4.725   1.187
 6320WAT     H119202   4.627   4.708   1.186
 6320WAT     H219203   4.510   4.815   1.228
 6321WAT      O19204   4.590   6.767   8.607
 6321WAT     H119205   4.518   6.830   8.636
 6321WAT     H219206   4.649   6.813   8.541
 6322WAT      O19207   1.316   6.327   4.880
 6322WAT     H119208   1.275   6.279   4.958
 6322WAT     H219209   1.266   6.305   4.797
 6323WAT      O19210   9.392   7.035   8.252
 6323WAT     H119211   9.407   6.980   8.170
 6323WAT     H219212   9.349   7.121   8.227
 6324WAT      O19213   0.630   8.558   9.690
 6324WAT     H119214   0.672   8.474   9.723
 6324WAT     H219215   0.544   8.573   9.740
 6325WAT      O19216   1.109   0.912   9.380
 6325WAT     H119217   1.037   0.843   9.391
 6325WAT     H219218   1.117   0.965   9.465
 6326WAT      O19219   4.038   6.843   2.557
 6326WAT     H119220   4.121   6.806   2.516
 6326WAT     H219221   4.053   6.859   2.655
 6327WAT      O19222   0.651   8.734   5.233
 6327WAT     H119223   0.595   8.721   5.152
 6327WAT     H219224   0.702   8.650   5.253
 6328WAT      O19225   7.191   4.191   0.560
 6328WAT     H119226   7.158   4.158   0.472
 6328WAT     H219227   7.290   4.205   0.556
 6329WAT      O19228   8.258   0.420   0.270
 6329WAT     H119229   8.293   0.391   0.359
 6329WAT     H219230   8.159   0.406   0.266
 6330WAT      O19231   1.167   4.707   3.457
 6330WAT     H119232   1.077   4.708   3.500
 6330WAT     H219233   1.170   4.633   3.389
 6331WAT      O19234   8.717   0.705   1.234
 6331WAT     H119235   8.672   0.708   1.145
 6331WAT     H219236   8.673   0.636   1.291
 6332WAT      O19237   6.512   9.819   4.844
 6332WAT     H119238   6.454   9.898   4.864
 6332WAT     H219239   6.528   9.814   4.745
 6333WAT      O19240   3.226   0.441   3.139
 6333WAT     H119241   3.193   0.379   3.068
 6333WAT     H219242   3.152   0.502   3.167
 6334WAT      O19243   1.305   4.157   1.733
 6334WAT     H119244   1.232   4.162   1.665
 6334WAT     H219245   1.295   4.073   1.786
 6335WAT      O19246   1.199   8.162   3.308
 6335WAT     H119247   1.156   8.199   3.225
 6335WAT     H219248   1.143   8.185   3.387
 6336WAT      O19249   4.200   9.064   0.976
 6336WAT     H119250   4.214   9.162   0.963
 6336WAT     H219251   4.144   9.048   1.058
 6337WAT      O19252   0.290   1.209   4.715
 6337WAT     H119253   0.237   1.129   4.742
 6337WAT     H219254   0.255   1.244   4.628
 6338WAT      O19255   9.008   9.228   8.865
 6338WAT     H119256   8.911   9.245   8.847
 6338WAT     H219257   9.056   9.314   8.876
 6339WAT      O19258   9.813   7.348   3.715
 6339WAT     H119259   9.862   7.280   3.769
 6339WAT     H219260   9.717   7.351   3.744
 6340WAT      O19261   9.540   0.659   3.687
 6340WAT     H119262   9.603   0.700   3.753
 6340WAT     H219263   9.460   0.624   3.734
 6341WAT      O19264   7.084   2.161   0.086
 6341WAT     H119265   7.044   2.194   0.001
 6341WAT     H219266   7.055   2.220   0.162
 6342WAT      O19267   6.593   4.081   7.602
 6342WAT     H119268   6.609   4.172   7.639
 6342WAT     H219269   6.571   4.018   7.677
 6343WAT      O19270   0.145   4.757   7.978
 6343WAT     H119271   0.078   4.779   8.049
 6343WAT     H219272   0.167   4.659   7.982
 6344WAT      O19273   1.113   5.153   2.954
 6344WAT     H119274   1.150   5.189   2.869
 6344WAT     H219275   1.074   5.063   2.938
 6345WAT      O19276   0.206   8.586   7.943
 6345WAT     H119277   0.218   8.647   7.864
 6345WAT     H219278   0.187   8.641   8.024
 6346WAT      O19279   9.889   0.304   8.707
 6346WAT     H119280   9.800   0.330   8.745
 6346WAT     H219281   9.933   0.238   8.768
 6347WAT      O19282   7.642   4.200   4.710
 6347WAT     H119283   7.611   4.128   4.772
 6347WAT     H219284   7.568   4.225   4.648
 6348WAT      O19285   6.663   6.759   4.030
 6348WAT     H119286   6.666   6.859   4.037
 6348WAT     H219287   6.648   6.720   4.121
 6349WAT      O19288   7.649   6.459   4.081
 6349WAT     H119289   7.698   6.494   4.002
 6349WAT     H219290   7.565   6.512   4.095
 6350WAT      O19291   1.187   4.353   8.319
 6350WAT     H119292   1.205   4.329   8.414
 6350WAT     H219293   1.107   4.304   8.286
 6351WAT      O19294   0.467   1.542   8.282
 6351WAT     H119295   0.436   1.461   8.331
 6351WAT     H219296   0.416   1.622   8.315
 6352WAT      O19297   0.282   3.375   0.871
 6352WAT     H119298   0.283   3.471   0.843
 6352WAT     H219299   0.360   3.357   0.932
 6353WAT      O19300   5.847   7.780   3.671
 6353WAT     H119301   5.862   7.815   3.764
 6353WAT     H219302   5.866   7.851   3.604
 6354WAT      O19303   0.299   5.482   6.501
 6354WAT     H119304   0.217   5.485   6.444
 6354WAT     H219305   0.273   5.486   6.597
 6355WAT      O19306   0.070   7.506   3.118
 6355WAT     H119307   0.057   7.497   3.217
 6355WAT     H219308   0.137   7.578   3.100
 6356WAT      O19309   8.844   5.352   9.851
 6356WAT     H119310   8.822   5.449   9.861
 6356WAT     H219311   8.771   5.296   9.889
 6357WAT      O19312   5.335   4.900   7.426
 6357WAT     H119313   5.308   4.945   7.340
 6357WAT     H219314   5.434   4.905   7.436
 6358WAT      O19315   2.722   5.162   9.392
 6358WAT     H119316   2.792   5.231   9.407
 6358WAT     H219317   2.726   5.132   9.296
 6359WAT      O19318   2.341   6.931   7.242
 6359WAT     H119319   2.264   6.889   7.196
 6359WAT     H219320   2.322   7.028   7.257
 6360WAT      O19321   8.101   3.967   5.609
 6360WAT     H119322   8.053   4.020   5.678
 6360WAT     H219323   8.035   3.921   5.550
 6361WAT      O19324   2.702   5.310   2.992
 6361WAT     H119325   2.768   5.239   2.967
 6361WAT     H219326   2.651   5.338   2.910
 6362WAT      O19327   6.687   5.680   9.222
 6362WAT     H119328   6.662   5.761   9.276
 6362WAT     H219329   6.740   5.617   9.278
 6363WAT      O19330   1.704   9.332   2.263
 6363WAT     H119331   1.794   9.352   2.225
 6363WAT     H219332   1.665   9.253   2.218
 6364WAT      O19333   7.976   1.476   2.318
 6364WAT     H119334   7.894   1.455   2.371
 6364WAT     H219335   8.043   1.520   2.378
 6365WAT      O19336   3.840   3.038   9.356
 6365WAT     H119337   3.880   3.128   9.374
 6365WAT     H219338   3.788   3.041   9.271
 6366WAT      O19339   1.008   2.717   6.638
 6366WAT     H119340   0.970   2.643   6.693
 6366WAT     H219341   0.947   2.796   6.641
 6367WAT      O19342   7.706   7.227   6.682
 6367WAT     H119343   7.798   7.219   6.722
 6367WAT     H219344   7.646   7.273   6.747
 6368WAT      O19345   7.127   6.214   3.396
 6368WAT     H119346   7.217   6.187   3.363
 6368WAT     H219347   7.063   6.138   3.384
 6369WAT      O19348   5.842   3.120   7.893
 6369WAT     H119349   5.839   3.208   7.939
 6369WAT     H219350   5.817   3.048   7.957
 6370WAT      O19351   6.397   0.295   2.225
 6370WAT     H119352   6.449   0.285   2.310
 6370WAT     H219353   6.342   0.213   2.211
 6371WAT      O19354   1.197   2.564   2.423
 6371WAT     H119355   1.287   2.549   2.381
 6371WAT     H219356   1.177   2.662   2.425
 6372WAT      O19357   7.497   7.088   4.054
 6372WAT     H119358   7.545   7.105   3.968
 6372WAT     H219359   7.511   7.165   4.116
 6373WAT      O19360   1.711   7.326   5.639
 6373WAT     H119361   1.624   7.281   5.621
 6373WAT     H219362   1.694   7.412   5.689
 6374WAT      O19363   0.414   4.725   0.573
 6374WAT     H119364   0.416   4.654   0.503
 6374WAT     H219365   0.334   4.783   0.559
 6375WAT      O19366   9.094   5.600   9.834
 6375WAT     H119367   9.093   5.533   9.761
 6375WAT     H219368   9.002   5.611   9.871
 6376WAT      O19369   1.257   1.746   2.001
 6376WAT     H119370   1.172   1.709   1.962
 6376WAT     H219371   1.253   1.846   1.997
 6377WAT      O19372   8.788   5.780   6.835
 6377WAT     H119373   8.768   5.854   6.900
 6377WAT     H219374   8.702   5.734   6.810
 6378WAT      O19375   3.949   7.428   1.711
 6378WAT     H119376   3.852   7.412   1.730
 6378WAT     H219377   4.001   7.421   1.796
 6379WAT      O19378   2.626   9.317   5.844
 6379WAT     H119379   2.644   9.412   5.870
 6379WAT     H219380   2.708   9.277   5.803
 6380WAT      O19381   3.086   2.412   0.657
 6380WAT     H119382   3.030   2.494   0.644
 6380WAT     H219383   3.170   2.420   0.603
 6381WAT      O19384   3.861   2.734   4.668
 6381WAT     H119385   3.916   2.652   4.685
 6381WAT     H219386   3.767   2.707   4.651
 6382WAT      O19387   2.269   7.295   0.111
 6382WAT     H119388   2.242   7.387   0.083
 6382WAT     H219389   2.286   7.295   0.210
 6383WAT      O19390   1.799   3.017   1.817
 6383WAT     H119391   1.896   3.006   1.839
 6383WAT     H219392   1.770   2.942   1.757
 6384WAT      O19393   2.033   6.146   5.435
 6384WAT     H119394   2.004   6.153   5.531
 6384WAT     H219395   2.020   6.235   5.390
 6385WAT      O19396   4.440   7.782   8.028
 6385WAT     H119397   4.440   7.710   8.098
 6385WAT     H219398   4.351   7.786   7.984
 6386WAT      O19399   8.949   7.810   3.153
 6386WAT     H119400   8.952   7.772   3.246
 6386WAT     H219401   8.977   7.906   3.156
 6387WAT      O19402   0.759   6.930   8.736
 6387WAT     H119403   0.730   6.964   8.646
 6387WAT     H219404   0.858   6.913   8.735
 6388WAT      O19405   9.697   9.130   7.811
 6388WAT     H119406   9.626   9.186   7.769
 6388WAT     H219407   9.787   9.171   7.793
 6389WAT      O19408   4.603   0.264   7.127
 6389WAT     H119409   4.692   0.241   7.088
 6389WAT     H219410   4.539   0.188   7.110
 6390WAT      O19411   5.729   2.330   0.400
 6390WAT     H119412   5.638   2.365   0.420
 6390WAT     H219413   5.792   2.406   0.385
 6391WAT      O19414   4.945   7.299   5.814
 6391WAT     H119415   4.857   7.307   5.767
 6391WAT     H219416   5.014   7.265   5.749
 6392WAT      O19417   4.499   1.657   0.481
 6392WAT     H119418   4.521   1.632   0.575
 6392WAT     H219419   4.571   1.624   0.420
 6393WAT      O19420   5.251   9.624   1.989
 6393WAT     H119421   5.157   9.648   1.964
 6393WAT     H219422   5.266   9.527   1.971
 6394WAT      O19423   2.381   7.798   7.617
 6394WAT     H119424   2.365   7.722   7.680
 6394WAT     H219425   2.404   7.880   7.669
 6395WAT      O19426   5.813   4.535   0.117
 6395WAT     H119427   5.912   4.535   0.105
 6395WAT     H219428   5.784   4.619   0.162
 6396WAT      O19429   4.877   5.105   8.350
 6396WAT     H119430   4.859   5.099   8.251
 6396WAT     H219431   4.975   5.119   8.365
 6397WAT      O19432   1.994   0.714   5.219
 6397WAT     H119433   1.969   0.636   5.162
 6397WAT     H219434   1.957   0.702   5.311
 6398WAT      O19435   1.691   9.215   1.244
 6398WAT     H119436   1.609   9.162   1.264
 6398WAT     H219437   1.770   9.154   1.240
 6399WAT      O19438   1.120   2.508   9.866
 6399WAT     H119439   1.200   2.447   9.860
 6399WAT     H219440   1.071   2.490   9.952
 6400WAT      O19441   4.687   1.330   8.966
 6400WAT     H119442   4.776   1.373   8.979
 6400WAT     H219443   4.692   1.265   8.890
 6401WAT      O19444   8.053   3.190   4.240
 6401WAT     H119445   8.048   3.270   4.180
 6401WAT     H219446   8.148   3.171   4.264
 6402WAT      O19447   3.955   8.554   8.437
 6402WAT     H119448   3.913   8.574   8.526
 6402WAT     H219449   4.034   8.494   8.450
 6403WAT      O19450   2.901   3.247   2.147
 6403WAT     H119451   2.969   3.198   2.093
 6403WAT     H219452   2.831   3.284   2.087
 6404WAT      O19453   6.437   1.663   8.107
 6404WAT     H119454   6.375   1.741   8.094
 6404WAT     H219455   6.519   1.676   8.050
 6405WAT      O19456   6.406   1.800   3.927
 6405WAT     H119457   6.393   1.877   3.989
 6405WAT     H219458   6.464   1.731   3.971
 6406WAT      O19459   7.123   1.828   7.996
 6406WAT     H119460   7.182   1.907   7.984
 6406WAT     H219461   7.092   1.795   7.906
 6407WAT      O19462   5.549   4.225   6.660
 6407WAT     H119463   5.464   4.273   6.680
 6407WAT     H219464   5.531   4.153   6.593
 6408WAT      O19465   6.906   0.796   3.151
 6408WAT     H119466   6.974   0.733   3.114
 6408WAT     H219467   6.821   0.746   3.169
 6409WAT      O19468   7.881   2.924   0.015
 6409WAT     H119469   7.889   3.008  -0.039
 6409WAT     H219470   7.923   2.938   0.104
 6410WAT      O19471   3.218   0.011   4.928
 6410WAT     H119472   3.216  -0.058   4.855
 6410WAT     H219473   3.158   0.086   4.904
 6411WAT      O19474   9.649   5.475   5.379
 6411WAT     H119475   9.723   5.412   5.357
 6411WAT     H219476   9.570   5.454   5.321
 6412WAT      O19477   1.155   6.395   1.860
 6412WAT     H119478   1.137   6.412   1.957
 6412WAT     H219479   1.122   6.304   1.835
 6413WAT      O19480   5.181   7.329   9.493
 6413WAT     H119481   5.214   7.251   9.546
 6413WAT     H219482   5.148   7.297   9.404
 6414WAT      O19483   5.748   7.915   7.762
 6414WAT     H119484   5.787   8.005   7.786
 6414WAT     H219485   5.696   7.923   7.677
 6415WAT      O19486   3.323   4.569   3.711
 6415WAT     H119487   3.328   4.657   3.663
 6415WAT     H219488   3.243   4.518   3.679
 6416WAT      O19489   0.278   5.222   8.634
 6416WAT     H119490   0.366   5.179   8.655
 6416WAT     H219491   0.286   5.274   8.550
 6417WAT      O19492   4.100   4.767   9.682
 6417WAT     H119493   4.087   4.859   9.719
 6417WAT     H219494   4.114   4.702   9.757
 6418WAT      O19495   6.908   3.811   1.755
 6418WAT     H119496   6.943   3.720   1.732
 6418WAT     H219497   6.808   3.809   1.759
 6419WAT      O19498   5.312   6.248   6.249
 6419WAT     H119499   5.249   6.184   6.294
 6419WAT     H219500   5.275   6.341   6.256
 6420WAT      O19501   4.244   9.557   0.819
 6420WAT     H119502   4.207   9.633   0.765
 6420WAT     H219503   4.344   9.567   0.827
 6421WAT      O19504   0.783   6.348   1.748
 6421WAT     H119505   0.743   6.373   1.837
 6421WAT     H219506   0.750   6.410   1.678
 6422WAT      O19507   2.324   7.640   7.949
 6422WAT     H119508   2.225   7.657   7.953
 6422WAT     H219509   2.339   7.544   7.924
 6423WAT      O19510   1.182   3.219   4.096
 6423WAT     H119511   1.223   3.272   4.022
 6423WAT     H219512   1.111   3.272   4.140
 6424WAT      O19513   1.107   0.787   8.452
 6424WAT     H119514   1.056   0.861   8.496
 6424WAT     H219515   1.064   0.700   8.475
 6425WAT      O19516   6.892   4.774   0.580
 6425WAT     H119517   6.924   4.868   0.592
 6425WAT     H219518   6.924   4.719   0.658
 6426WAT      O19519   4.490   6.430   9.086
 6426WAT     H119520   4.473   6.348   9.032
 6426WAT     H219521   4.428   6.503   9.056
 6427WAT      O19522   2.879   0.358   0.346
 6427WAT     H119523   2.851   0.296   0.419
 6427WAT     H219524   2.806   0.425   0.330
 6428WAT      O19525   4.629   0.618   5.519
 6428WAT     H119526   4.670   0.611   5.609
 6428WAT     H219527   4.675   0.555   5.456
 6429WAT      O19528   4.945   4.572   8.476
 6429WAT     H119529   5.035   4.614   8.467
 6429WAT     H219530   4.937   4.497   8.410
 6430WAT      O19531   7.765   1.983   7.178
 6430WAT     H119532   7.853   2.023   7.206
 6430WAT     H219533   7.702   2.056   7.152
 6431WAT      O19534   5.808   8.796   4.639
 6431WAT     H119535   5.711   8.819   4.648
 6431WAT     H219536   5.862   8.879   4.631
 6432WAT      O19537   9.306   1.612   0.421
 6432WAT     H119538   9.252   1.629   0.504
 6432WAT     H219539   9.284   1.683   0.353
 6433WAT      O19540   4.648   1.330   4.568
 6433WAT     H119541   4.712   1.254   4.560
 6433WAT     H219542   4.565   1.310   4.517
 6434WAT      O19543   8.830   2.074   8.962
 6434WAT     H119544   8.747   2.031   8.927
 6434WAT     H219545   8.844   2.048   9.057
 6435WAT      O19546   3.464   9.216   1.041
 6435WAT     H119547   3.517   9.264   1.110
 6435WAT     H219548   3.366   9.226   1.060
 6436WAT      O19549   3.578   3.588   2.310
 6436WAT     H119550   3.509   3.542   2.255
 6436WAT     H219551   3.540   3.672   2.348
 6437WAT      O19552   2.268   5.684   2.516
 6437WAT     H119553   2.294   5.778   2.498
 6437WAT     H219554   2.344   5.623   2.495
 6438WAT      O19555   5.086   5.099   2.909
 6438WAT     H119556   5.140   5.167   2.860
 6438WAT     H219557   5.080   5.015   2.854
 6439WAT      O19558   7.041   1.001   5.710
 6439WAT     H119559   7.031   0.901   5.712
 6439WAT     H219560   7.050   1.032   5.616
 6440WAT      O19561   9.791   5.616   5.598
 6440WAT     H119562   9.849   5.692   5.571
 6440WAT     H219563   9.766   5.563   5.517
 6441WAT      O19564   9.488   3.054   3.559
 6441WAT     H119565   9.481   2.973   3.501
 6441WAT     H219566   9.421   3.049   3.632
 6442WAT      O19567   1.032   1.056   6.222
 6442WAT     H119568   0.973   1.106   6.159
 6442WAT     H219569   1.007   1.080   6.316
 6443WAT      O19570   3.308   8.530   0.824
 6443WAT     H119571   3.242   8.494   0.758
 6443WAT     H219572   3.260   8.560   0.906
 6444WAT      O19573   4.727   3.967   8.035
 6444WAT     H119574   4.761   3.946   8.126
 6444WAT     H219575   4.802   3.999   7.977
 6445WAT      O19576   8.834   5.058   9.688
 6445WAT     H119577   8.913   5.061   9.627
 6445WAT     H219578   8.861   5.013   9.774
 6446WAT      O19579   3.431   4.534   9.486
 6446WAT     H119580   3.487   4.556   9.406
 6446WAT     H219581   3.461   4.589   9.564
 6447WAT      O19582   0.794   8.118   1.240
 6447WAT     H119583   0.709   8.166   1.221
 6447WAT     H219584   0.782   8.060   1.321
 6448WAT      O19585   5.875   3.045   0.558
 6448WAT     H119586   5.849   3.128   0.508
 6448WAT     H219587   5.972   3.028   0.546
 6449WAT      O19588   1.566   0.504   6.180
 6449WAT     H119589   1.577   0.566   6.257
 6449WAT     H219590   1.652   0.499   6.129
 6450WAT      O19591   5.868   6.468   7.493
 6450WAT     H119592   5.792   6.429   7.441
 6450WAT     H219593   5.869   6.567   7.482
 6451WAT      O19594   9.426   8.988   9.283
 6451WAT     H119595   9.515   9.022   9.250
 6451WAT     H219596   9.354   9.048   9.249
 6452WAT      O19597   2.094   6.878   3.387
 6452WAT     H119598   2.185   6.838   3.380
 6452WAT     H219599   2.029   6.820   3.337
 6453WAT      O19600   5.761   1.179   9.269
 6453WAT     H119601   5.859   1.178   9.246
 6453WAT     H219602   5.749   1.220   9.359
 6454WAT      O19603   0.254   5.776   5.602
 6454WAT     H119604   0.209   5.865   5.613
 6454WAT     H219605   0.229   5.737   5.514
 6455WAT      O19606   1.728   6.306   9.349
 6455WAT     H119607   1.713   6.302   9.448
 6455WAT     H219608   1.781   6.387   9.325
 6456WAT      O19609   9.137   4.815   0.212
 6456WAT     H119610   9.219   4.867   0.237
 6456WAT     H219611   9.165   4.727   0.172
 6457WAT      O19612   8.214   2.516   4.304
 6457WAT     H119613   8.166   2.438   4.345
 6457WAT     H219614   8.300   2.532   4.353
 6458WAT      O19615   9.210   6.437   7.079
 6458WAT     H119616   9.307   6.456   7.064
 6458WAT     H219617   9.157   6.463   6.998
 6459WAT      O19618   8.172   1.544   7.064
 6459WAT     H119619   8.152   1.530   6.967
 6459WAT     H219620   8.197   1.640   7.080
 6460WAT      O19621   5.789   7.529   8.349
 6460WAT     H119622   5.740   7.568   8.271
 6460WAT     H219623   5.865   7.473   8.317
 6461WAT      O19624   3.737   4.758   2.371
 6461WAT     H119625   3.727   4.717   2.280
 6461WAT     H219626   3.646   4.783   2.406
 6462WAT      O19627   5.704   3.121   2.711
 6462WAT     H119628   5.740   3.029   2.699
 6462WAT     H219629   5.684   3.137   2.807
 6463WAT      O19630   7.653   5.591   3.189
 6463WAT     H119631   7.588   5.604   3.264
 6463WAT     H219632   7.665   5.678   3.140
 6464WAT      O19633   5.444   2.833   0.923
 6464WAT     H119634   5.382   2.771   0.972
 6464WAT     H219635   5.523   2.781   0.891
 6465WAT      O19636   8.236   4.478   4.441
 6465WAT     H119637   8.243   4.412   4.367
 6465WAT     H219638   8.182   4.557   4.411
 6466WAT      O19639   7.526   6.424   2.553
 6466WAT     H119640   7.550   6.332   2.585
 6466WAT     H219641   7.520   6.486   2.632
 6467WAT      O19642   6.130   9.678   8.899
 6467WAT     H119643   6.136   9.616   8.977
 6467WAT     H219644   6.199   9.750   8.908
 6468WAT      O19645   8.600   3.409   0.230
 6468WAT     H119646   8.564   3.474   0.163
 6468WAT     H219647   8.670   3.455   0.286
 6469WAT      O19648   9.045   1.382   1.160
 6469WAT     H119649   9.096   1.428   1.087
 6469WAT     H219650   9.109   1.330   1.217
 6470WAT      O19651   7.454   3.903   7.719
 6470WAT     H119652   7.391   3.847   7.773
 6470WAT     H219653   7.453   3.873   7.624
 6471WAT      O19654   0.417   3.771   8.695
 6471WAT     H119655   0.496   3.729   8.738
 6471WAT     H219656   0.336   3.714   8.710
 6472WAT      O19657   8.940   5.629   8.479
 6472WAT     H119658   8.935   5.531   8.497
 6472WAT     H219659   8.876   5.678   8.539
 6473WAT      O19660   6.315   3.360   8.198
 6473WAT     H119661   6.382   3.431   8.175
 6473WAT     H219662   6.347   3.272   8.163
 6474WAT      O19663   0.998   1.649   4.532
 6474WAT     H119664   0.956   1.708   4.601
 6474WAT     H219665   0.943   1.565   4.523
 6475WAT      O19666   0.968   6.439   6.727
 6475WAT     H119667   0.889   6.382   6.706
 6475WAT     H219668   1.039   6.384   6.770
 6476WAT      O19669   2.959   7.942   5.736
 6476WAT     H119670   2.963   7.888   5.820
 6476WAT     H219671   2.864   7.951   5.708
 6477WAT      O19672   8.758   4.280   0.912
 6477WAT     H119673   8.673   4.333   0.905
 6477WAT     H219674   8.797   4.291   1.003
 6478WAT      O19675   9.496   2.012   5.614
 6478WAT     H119676   9.534   2.102   5.595
 6478WAT     H219677   9.510   1.989   5.710
 6479WAT      O19678   4.851   4.030   2.177
 6479WAT     H119679   4.862   4.097   2.103
 6479WAT     H219680   4.754   4.006   2.186
 6480WAT      O19681   0.293   2.111   1.131
 6480WAT     H119682   0.340   2.069   1.208
 6480WAT     H219683   0.356   2.173   1.083
 6481WAT      O19684   3.714   2.055   6.174
 6481WAT     H119685   3.742   2.150   6.190
 6481WAT     H219686   3.795   1.996   6.176
 6482WAT      O19687   7.462   8.586   6.302
 6482WAT     H119688   7.516   8.537   6.233
 6482WAT     H219689   7.465   8.535   6.388
 6483WAT      O19690   7.974   6.636   9.500
 6483WAT     H119691   8.021   6.607   9.583
 6483WAT     H219692   8.003   6.579   9.423
 6484WAT      O19693   0.434   2.375   4.489
 6484WAT     H119694   0.489   2.455   4.514
 6484WAT     H219695   0.360   2.404   4.428
 6485WAT      O19696   5.209   7.533   1.701
 6485WAT     H119697   5.250   7.456   1.750
 6485WAT     H219698   5.249   7.538   1.609
 6486WAT      O19699   0.549   1.146   7.958
 6486WAT     H119700   0.520   1.051   7.946
 6486WAT     H219701   0.475   1.207   7.931
 6487WAT      O19702   6.567   5.354   7.775
 6487WAT     H119703   6.470   5.374   7.789
 6487WAT     H219704   6.589   5.266   7.817
 6488WAT      O19705   8.483   0.034   3.321
 6488WAT     H119706   8.562   0.091   3.296
 6488WAT     H219707   8.399   0.086   3.310
 6489WAT      O19708   4.523   4.720   0.918
 6489WAT     H119709   4.518   4.714   1.018
 6489WAT     H219710   4.554   4.633   0.881
 6490WAT      O19711   2.421   3.487   4.642
 6490WAT     H119712   2.342   3.491   4.702
 6490WAT     H219713   2.391   3.468   4.548
 6491WAT      O19714   5.829   0.698   5.280
 6491WAT     H119715   5.842   0.789   5.319
 6491WAT     H219716   5.751   0.654   5.325
 6492WAT      O19717   0.444   1.962   2.973
 6492WAT     H119718   0.474   1.907   2.895
 6492WAT     H219719   0.524   2.007   3.014
 6493WAT      O19720   6.055   9.821   8.505
 6493WAT     H119721   6.004   9.908   8.506
 6493WAT     H219722   6.153   9.840   8.513
 6494WAT      O19723   6.998   5.997   6.292
 6494WAT     H119724   7.037   5.976   6.202
 6494WAT     H219725   7.068   5.983   6.363
 6495WAT      O19726   4.943   4.560   6.239
 6495WAT     H119727   4.990   4.477   6.267
 6495WAT     H219728   5.004   4.614   6.180
 6496WAT      O19729   1.139   9.676   9.385
 6496WAT     H119730   1.191   9.624   9.317
 6496WAT     H219731   1.083   9.614   9.439
 6497WAT      O19732   4.967   6.215   6.551
 6497WAT     H119733   4.926   6.127   6.529
 6497WAT     H219734   5.067   6.208   6.544
 6498WAT      O19735   5.228   3.239   8.308
 6498WAT     H119736   5.162   3.172   8.340
 6498WAT     H219737   5.288   3.198   8.239
 6499WAT      O19738   1.954   3.718   5.367
 6499WAT     H119739   1.941   3.667   5.451
 6499WAT     H219740   1.911   3.808   5.375
 6500WAT      O19741   4.351   0.356   6.151
 6500WAT     H119742   4.335   0.413   6.232
 6500WAT     H219743   4.370   0.263   6.180
 6501WAT      O19744   8.234   2.132   0.102
 6501WAT     H119745   8.251   2.149   0.005
 6501WAT     H219746   8.313   2.085   0.142
 6502WAT      O19747   6.742   6.709   8.533
 6502WAT     H119748   6.762   6.740   8.626
 6502WAT     H219749   6.826   6.678   8.489
 6503WAT      O19750   9.755   6.894   4.112
 6503WAT     H119751   9.735   6.796   4.117
 6503WAT     H219752   9.779   6.928   4.203
 6504WAT      O19753   1.713   7.765   3.081
 6504WAT     H119754   1.776   7.743   3.156
 6504WAT     H219755   1.679   7.680   3.040
 6505WAT      O19756   8.350   5.729   7.326
 6505WAT     H119757   8.353   5.794   7.402
 6505WAT     H219758   8.378   5.639   7.357
 6506WAT      O19759   4.108   3.414   0.714
 6506WAT     H119760   4.192   3.390   0.762
 6506WAT     H219761   4.031   3.365   0.754
 6507WAT      O19762   1.767   6.176   8.258
 6507WAT     H119763   1.763   6.206   8.354
 6507WAT     H219764   1.862   6.175   8.228
 6508WAT      O19765   0.079   6.886   2.876
 6508WAT     H119766   0.116   6.815   2.816
 6508WAT     H219767  -0.012   6.860   2.907
 6509WAT      O19768   2.243   6.090   3.717
 6509WAT     H119769   2.222   5.993   3.716
 6509WAT     H219770   2.183   6.137   3.781
 6510WAT      O19771   3.987   3.425   9.218
 6510WAT     H119772   3.963   3.384   9.305
 6510WAT     H219773   4.059   3.371   9.173
 6511WAT      O19774   8.559   1.082   1.736
 6511WAT     H119775   8.622   1.144   1.784
 6511WAT     H219776   8.560   1.102   1.638
 6512WAT      O19777   2.189   6.794   6.914
 6512WAT     H119778   2.217   6.698   6.909
 6512WAT     H219779   2.183   6.822   7.010
 6513WAT      O19780   9.095   4.826   9.295
 6513WAT     H119781   9.005   4.785   9.280
 6513WAT     H219782   9.156   4.758   9.336
 6514WAT      O19783   2.140   0.990   1.374
 6514WAT     H119784   2.171   1.043   1.295
 6514WAT     H219785   2.162   1.039   1.458
 6515WAT      O19786   7.074   9.599   7.705
 6515WAT     H119787   7.120   9.512   7.722
 6515WAT     H219788   7.111   9.669   7.766
 6516WAT      O19789   8.415   2.005   4.432
 6516WAT     H119790   8.349   2.056   4.487
 6516WAT     H219791   8.422   2.046   4.341
 6517WAT      O19792   9.229   3.673   4.647
 6517WAT     H119793   9.134   3.647   4.660
 6517WAT     H219794   9.241   3.712   4.556
 6518WAT      O19795   5.791   2.714   6.377
 6518WAT     H119796   5.860   2.786   6.381
 6518WAT     H219797   5.746   2.706   6.466
 6519WAT      O19798   3.809   9.656   9.054
 6519WAT     H119799   3.888   9.684   9.110
 6519WAT     H219800   3.822   9.689   8.960
 6520WAT      O19801   1.483   4.907   4.663
 6520WAT     H119802   1.493   4.986   4.724
 6520WAT     H219803   1.458   4.826   4.717
 6521WAT      O19804   8.892   3.263   0.247
 6521WAT     H119805   8.921   3.257   0.343
 6521WAT     H219806   8.956   3.319   0.195
 6522WAT      O19807   2.011   2.511   4.556
 6522WAT     H119808   2.013   2.551   4.465
 6522WAT     H219809   2.104   2.493   4.588
 6523WAT      O19810   5.718   9.206   4.346
 6523WAT     H119811   5.647   9.246   4.287
 6523WAT     H219812   5.685   9.118   4.381
 6524WAT      O19813   6.045   6.414   1.702
 6524WAT     H119814   6.035   6.497   1.756
 6524WAT     H219815   5.985   6.420   1.622
 6525WAT      O19816   0.087   4.535   1.431
 6525WAT     H119817   0.129   4.547   1.341
 6525WAT     H219818   0.018   4.606   1.445
 6526WAT      O19819   6.644   1.657   6.328
 6526WAT     H119820   6.624   1.733   6.390
 6526WAT     H219821   6.724   1.680   6.272
 6527WAT      O19822   6.196   5.798   4.036
 6527WAT     H119823   6.162   5.718   4.085
 6527WAT     H219824   6.158   5.799   3.944
 6528WAT      O19825   6.638   8.192   0.812
 6528WAT     H119826   6.708   8.137   0.857
 6528WAT     H219827   6.574   8.228   0.880
 6529WAT      O19828   7.714   7.243   4.361
 6529WAT     H119829   7.669   7.257   4.449
 6529WAT     H219830   7.645   7.247   4.288
 6530WAT      O19831   2.512   2.307   7.285
 6530WAT     H119832   2.462   2.330   7.202
 6530WAT     H219833   2.472   2.355   7.363
 6531WAT      O19834   0.568   0.970   1.341
 6531WAT     H119835   0.534   1.043   1.399
 6531WAT     H219836   0.647   0.927   1.384
 6532WAT      O19837   9.886   7.636   4.752
 6532WAT     H119838   9.975   7.675   4.732
 6532WAT     H219839   9.816   7.680   4.695
 6533WAT      O19840   6.769   3.402   3.514
 6533WAT     H119841   6.779   3.471   3.442
 6533WAT     H219842   6.687   3.421   3.567
 6534WAT      O19843   4.109   4.707   9.085
 6534WAT     H119844   4.144   4.763   9.009
 6534WAT     H219845   4.050   4.634   9.049
 6535WAT      O19846   5.289   6.925   4.161
 6535WAT     H119847   5.289   6.851   4.094
 6535WAT     H219848   5.364   6.912   4.225
 6536WAT      O19849   3.086   2.810   7.902
 6536WAT     H119850   3.173   2.766   7.927
 6536WAT     H219851   3.066   2.791   7.806
 6537WAT      O19852   7.961   1.334   3.486
 6537WAT     H119853   8.027   1.367   3.554
 6537WAT     H219854   7.949   1.403   3.415
 6538WAT      O19855   3.960   8.963   3.859
 6538WAT     H119856   3.981   8.873   3.897
 6538WAT     H219857   4.000   8.970   3.767
 6539WAT      O19858   5.914   6.429   2.442
 6539WAT     H119859   6.006   6.416   2.477
 6539WAT     H219860   5.890   6.526   2.446
 6540WAT      O19861   6.286   8.327   9.508
 6540WAT     H119862   6.211   8.392   9.512
 6540WAT     H219863   6.256   8.243   9.463
 6541WAT      O19864   1.665   4.661   1.525
 6541WAT     H119865   1.745   4.685   1.470
 6541WAT     H219866   1.687   4.677   1.622
 6542WAT      O19867   7.147   9.022   2.874
 6542WAT     H119868   7.216   9.063   2.933
 6542WAT     H219869   7.165   9.048   2.779
 6543WAT      O19870   4.156   5.958   3.336
 6543WAT     H119871   4.196   5.881   3.386
 6543WAT     H219872   4.063   5.934   3.308
 6544WAT      O19873   3.798   8.959   7.013
 6544WAT     H119874   3.739   8.958   7.094
 6544WAT     H219875   3.787   8.873   6.963
 6545WAT      O19876   6.935   7.554   2.927
 6545WAT     H119877   6.871   7.520   2.858
 6545WAT     H219878   6.947   7.484   2.998
 6546WAT      O19879   4.793   2.258   2.094
 6546WAT     H119880   4.807   2.197   2.017
 6546WAT     H219881   4.768   2.204   2.175
 6547WAT      O19882   3.283   7.196   2.634
 6547WAT     H119883   3.264   7.143   2.717
 6547WAT     H219884   3.376   7.176   2.602
 6548WAT      O19885   1.166   0.232   5.840
 6548WAT     H119886   1.080   0.253   5.794
 6548WAT     H219887   1.163   0.266   5.934
 6549WAT      O19888   4.590   5.979   3.801
 6549WAT     H119889   4.529   5.948   3.874
 6549WAT     H219890   4.637   6.063   3.830
 6550WAT      O19891   8.413   3.500   9.038
 6550WAT     H119892   8.352   3.447   9.097
 6550WAT     H219893   8.364   3.579   9.001
 6551WAT      O19894   8.745   7.234   5.284
 6551WAT     H119895   8.806   7.310   5.261
 6551WAT     H219896   8.688   7.259   5.362
 6552WAT      O19897   9.076   2.957   0.995
 6552WAT     H119898   9.065   2.907   1.081
 6552WAT     H219899   9.004   2.929   0.931
 6553WAT      O19900   1.322   4.505   1.968
 6553WAT     H119901   1.309   4.604   1.966
 6553WAT     H219902   1.237   4.461   1.998
 6554WAT      O19903   8.989   3.958   4.240
 6554WAT     H119904   9.058   3.991   4.304
 6554WAT     H219905   8.950   4.036   4.191
 6555WAT      O19906   2.941   5.725   2.599
 6555WAT     H119907   2.951   5.626   2.601
 6555WAT     H219908   2.882   5.751   2.522
 6556WAT      O19909   8.437   7.368   6.574
 6556WAT     H119910   8.339   7.355   6.564
 6556WAT     H219911   8.462   7.361   6.670
 6557WAT      O19912   0.491   3.622   6.768
 6557WAT     H119913   0.402   3.614   6.723
 6557WAT     H219914   0.478   3.638   6.866
 6558WAT      O19915   1.908   0.343   6.883
 6558WAT     H119916   1.922   0.389   6.795
 6558WAT     H219917   1.817   0.302   6.885
 6559WAT      O19918   8.827   8.943   2.833
 6559WAT     H119919   8.917   8.984   2.822
 6559WAT     H219920   8.821   8.900   2.923
 6560WAT      O19921   7.658   9.081   1.947
 6560WAT     H119922   7.755   9.059   1.955
 6560WAT     H219923   7.620   9.097   2.038
 6561WAT      O19924   8.093   9.216   7.772
 6561WAT     H119925   8.163   9.278   7.807
 6561WAT     H219926   8.119   9.184   7.681
 6562WAT      O19927   1.497   5.746   8.576
 6562WAT     H119928   1.431   5.744   8.651
 6562WAT     H219929   1.505   5.839   8.541
 6563WAT      O19930   4.447   4.163   2.630
 6563WAT     H119931   4.470   4.185   2.725
 6563WAT     H219932   4.523   4.190   2.571
 6564WAT      O19933   5.893   7.863   8.133
 6564WAT     H119934   5.967   7.918   8.172
 6564WAT     H219935   5.930   7.797   8.068
 6565WAT      O19936   4.309   2.935   2.982
 6565WAT     H119937   4.285   2.924   2.886
 6565WAT     H219938   4.334   3.030   3.000
 6566WAT      O19939   0.028   9.763   8.061
 6566WAT     H119940   0.124   9.773   8.084
 6566WAT     H219941   0.011   9.801   7.970
 6567WAT      O19942   7.634   4.697   5.689
 6567WAT     H119943   7.733   4.691   5.676
 6567WAT     H219944   7.611   4.789   5.720
 6568WAT      O19945   6.133   4.208   1.341
 6568WAT     H119946   6.218   4.185   1.389
 6568WAT     H219947   6.089   4.124   1.309
 6569WAT      O19948   3.556   5.454   3.151
 6569WAT     H119949   3.570   5.355   3.152
 6569WAT     H219950   3.645   5.500   3.153
 6570WAT      O19951   9.555   4.894   2.370
 6570WAT     H119952   9.607   4.976   2.396
 6570WAT     H219953   9.604   4.845   2.298
 6571WAT      O19954   6.927   5.438   8.991
 6571WAT     H119955   6.964   5.530   8.973
 6571WAT     H219956   6.998   5.381   9.031
 6572WAT      O19957   8.947   3.419   7.617
 6572WAT     H119958   9.019   3.482   7.645
 6572WAT     H219959   8.931   3.353   7.689
 6573WAT      O19960   5.439   0.361   6.074
 6573WAT     H119961   5.352   0.402   6.101
 6573WAT     H219962   5.510   0.431   6.070
 6574WAT      O19963   4.799   8.713   8.297
 6574WAT     H119964   4.706   8.677   8.303
 6574WAT     H219965   4.814   8.750   8.205
 6575WAT      O19966   3.804   6.693   7.791
 6575WAT     H119967   3.850   6.682   7.880
 6575WAT     H219968   3.855   6.643   7.721
 6576WAT      O19969   1.888   6.969   0.181
 6576WAT     H119970   1.912   6.874   0.204
 6576WAT     H219971   1.971   7.023   0.174
 6577WAT      O19972   7.086   3.214   1.100
 6577WAT     H119973   7.132   3.278   1.161
 6577WAT     H219974   7.024   3.263   1.040
 6578WAT      O19975   1.144   5.722   5.848
 6578WAT     H119976   1.194   5.795   5.894
 6578WAT     H219977   1.194   5.694   5.766
 6579WAT      O19978   3.656   9.649   6.664
 6579WAT     H119979   3.584   9.612   6.606
 6579WAT     H219980   3.616   9.684   6.749
 6580WAT      O19981   2.859   9.136   1.909
 6580WAT     H119982   2.830   9.112   1.817
 6580WAT     H219983   2.830   9.229   1.930
 6581WAT      O19984   2.893   1.586   6.897
 6581WAT     H119985   2.866   1.641   6.818
 6581WAT     H219986   2.836   1.611   6.975
 6582WAT      O19987   0.121   9.448   3.600
 6582WAT     H119988   0.200   9.476   3.654
 6582WAT     H219989   0.137   9.468   3.504
 6583WAT      O19990   0.036   3.189   7.822
 6583WAT     H119991   0.019   3.107   7.878
 6583WAT     H219992   0.133   3.212   7.827
 6584WAT      O19993   1.446   0.337   6.358
 6584WAT     H119994   1.495   0.377   6.280
 6584WAT     H219995   1.420   0.243   6.337
 6585WAT      O19996   6.474   7.138   1.226
 6585WAT     H119997   6.448   7.061   1.284
 6585WAT     H219998   6.396   7.162   1.167
 6586WAT      O19999   7.451   4.240   1.661
 6586WAT     H120000   7.351   4.233   1.663
 6586WAT     H220001   7.491   4.148   1.656
 6587WAT      O20002   4.822   9.663   5.072
 6587WAT     H120003   4.727   9.636   5.060
 6587WAT     H220004   4.875   9.584   5.104
 6588WAT      O20005   4.798   3.007   3.631
 6588WAT     H120006   4.838   3.087   3.587
 6588WAT     H220007   4.866   2.961   3.688
 6589WAT      O20008   4.351   3.638   5.619
 6589WAT     H120009   4.266   3.625   5.670
 6589WAT     H220010   4.399   3.551   5.611
 6590WAT      O20011   3.848   9.332   0.532
 6590WAT     H120012   3.859   9.235   0.513
 6590WAT     H220013   3.926   9.365   0.585
 6591WAT      O20014   9.529   5.574   8.508
 6591WAT     H120015   9.473   5.575   8.590
 6591WAT     H220016   9.483   5.521   8.437
 6592WAT      O20017   1.869   3.161   9.128
 6592WAT     H120018   1.944   3.101   9.100
 6592WAT     H220019   1.904   3.254   9.140
 6593WAT      O20020   6.560   1.007   8.339
 6593WAT     H120021   6.546   1.075   8.267
 6593WAT     H220022   6.476   0.997   8.392
 6594WAT      O20023   2.073   7.067   6.240
 6594WAT     H120024   2.143   7.020   6.187
 6594WAT     H220025   1.983   7.035   6.210
 6595WAT      O20026   3.329   2.580   2.546
 6595WAT     H120027   3.341   2.533   2.634
 6595WAT     H220028   3.249   2.639   2.550
 6596WAT      O20029   7.241   9.768   7.088
 6596WAT     H120030   7.218   9.697   7.022
 6596WAT     H220031   7.224   9.858   7.048
 6597WAT      O20032   8.129   4.153   0.949
 6597WAT     H120033   8.059   4.122   1.014
 6597WAT     H220034   8.219   4.145   0.992
 6598WAT      O20035   5.860   2.775   8.229
 6598WAT     H120036   5.944   2.739   8.271
 6598WAT     H220037   5.782   2.752   8.286
 6599WAT      O20038   3.196   2.360   7.698
 6599WAT     H120039   3.207   2.268   7.735
 6599WAT     H220040   3.185   2.354   7.598
 6600WAT      O20041   3.634   6.386   7.774
 6600WAT     H120042   3.635   6.288   7.759
 6600WAT     H220043   3.657   6.434   7.689
 6601WAT      O20044   0.954   2.663   1.286
 6601WAT     H120045   0.893   2.736   1.317
 6601WAT     H220046   1.049   2.695   1.287
 6602WAT      O20047   9.458   0.791   4.376
 6602WAT     H120048   9.394   0.727   4.420
 6602WAT     H220049   9.502   0.745   4.298
 6603WAT      O20050   9.277   6.427   5.223
 6603WAT     H120051   9.259   6.515   5.180
 6603WAT     H220052   9.297   6.441   5.320
 6604WAT      O20053   7.132   0.334   0.178
 6604WAT     H120054   7.054   0.383   0.216
 6604WAT     H220055   7.201   0.399   0.146
 6605WAT      O20056   7.147   8.831   3.976
 6605WAT     H120057   7.148   8.751   3.916
 6605WAT     H220058   7.214   8.898   3.943
 6606WAT      O20059   7.349   7.165   6.830
 6606WAT     H120060   7.384   7.080   6.870
 6606WAT     H220061   7.373   7.168   6.732
 6607WAT      O20062   4.066   5.510   9.728
 6607WAT     H120063   3.990   5.557   9.682
 6607WAT     H220064   4.118   5.576   9.782
 6608WAT      O20065   1.595   6.494   6.691
 6608WAT     H120066   1.694   6.489   6.705
 6608WAT     H220067   1.576   6.517   6.595
 6609WAT      O20068   2.062   5.300   8.762
 6609WAT     H120069   2.040   5.355   8.843
 6609WAT     H220070   1.979   5.254   8.730
 6610WAT      O20071   9.441   9.647   7.582
 6610WAT     H120072   9.405   9.737   7.557
 6610WAT     H220073   9.404   9.619   7.670
 6611WAT      O20074   6.811   8.143   7.884
 6611WAT     H120075   6.860   8.140   7.797
 6611WAT     H220076   6.877   8.133   7.959
 6612WAT      O20077   2.353   9.575   7.944
 6612WAT     H120078   2.407   9.659   7.946
 6612WAT     H220079   2.285   9.577   8.018
 6613WAT      O20080   9.716   7.443   3.047
 6613WAT     H120081   9.687   7.502   2.972
 6613WAT     H220082   9.809   7.468   3.075
 6614WAT      O20083   4.871   0.100   9.736
 6614WAT     H120084   4.934   0.023   9.733
 6614WAT     H220085   4.866   0.142   9.645
 6615WAT      O20086   6.161   2.047   5.629
 6615WAT     H120087   6.177   2.064   5.727
 6615WAT     H220088   6.198   2.123   5.576
 6616WAT      O20089   9.699   4.300   3.814
 6616WAT     H120090   9.657   4.316   3.725
 6616WAT     H220091   9.666   4.369   3.879
 6617WAT      O20092   3.579   7.605   8.457
 6617WAT     H120093   3.598   7.515   8.419
 6617WAT     H220094   3.496   7.642   8.416
 6618WAT      O20095   2.187   9.162   0.073
 6618WAT     H120096   2.124   9.225   0.029
 6618WAT     H220097   2.248   9.213   0.134
 6619WAT      O20098   6.791   2.832   1.995
 6619WAT     H120099   6.888   2.849   2.013
 6619WAT     H220100   6.780   2.803   1.900
 6620WAT      O20101   5.267   4.879   8.213
 6620WAT     H120102   5.186   4.896   8.157
 6620WAT     H220103   5.239   4.852   8.305
 6621WAT      O20104   7.886   0.776   7.656
 6621WAT     H120105   7.851   0.685   7.632
 6621WAT     H220106   7.962   0.765   7.720
 6622WAT      O20107   1.368   3.488   3.633
 6622WAT     H120108   1.335   3.497   3.540
 6622WAT     H220109   1.353   3.394   3.665
 6623WAT      O20110   5.264   4.284   5.847
 6623WAT     H120111   5.246   4.211   5.781
 6623WAT     H220112   5.294   4.366   5.799
 6624WAT      O20113   9.033   7.332   5.741
 6624WAT     H120114   8.983   7.325   5.655
 6624WAT     H220115   9.093   7.253   5.751
 6625WAT      O20116   8.000   5.999   4.075
 6625WAT     H120117   7.990   5.901   4.059
 6625WAT     H220118   8.096   6.021   4.092
 6626WAT      O20119   5.737   8.656   9.612
 6626WAT     H120120   5.823   8.631   9.658
 6626WAT     H220121   5.744   8.633   9.515
 6627WAT      O20122   5.159   7.421   7.207
 6627WAT     H120123   5.233   7.469   7.159
 6627WAT     H220124   5.129   7.343   7.153
 6628WAT      O20125   9.435   0.576   3.122
 6628WAT     H120126   9.350   0.622   3.149
 6628WAT     H220127   9.476   0.625   3.044
 6629WAT      O20128   8.512   2.230   7.648
 6629WAT     H120129   8.420   2.263   7.671
 6629WAT     H220130   8.518   2.215   7.549
 6630WAT      O20131   9.728   7.910   7.564
 6630WAT     H120132   9.735   7.940   7.659
 6630WAT     H220133   9.673   7.975   7.512
 6631WAT      O20134   2.351   2.659   3.508
 6631WAT     H120135   2.421   2.606   3.461
 6631WAT     H220136   2.318   2.607   3.587
 6632WAT      O20137   5.274   8.927   9.615
 6632WAT     H120138   5.373   8.916   9.610
 6632WAT     H220139   5.233   8.846   9.657
 6633WAT      O20140   8.317   1.252   8.798
 6633WAT     H120141   8.300   1.346   8.769
 6633WAT     H220142   8.238   1.219   8.850
 6634WAT      O20143   1.347   7.278   4.764
 6634WAT     H120144   1.434   7.276   4.715
 6634WAT     H220145   1.306   7.187   4.764
 6635WAT      O20146   8.544   0.161   7.826
 6635WAT     H120147   8.487   0.241   7.845
 6635WAT     H220148   8.550   0.103   7.908
 6636WAT      O20149   4.932   8.172   3.645
 6636WAT     H120150   4.940   8.272   3.644
 6636WAT     H220151   4.968   8.135   3.559
 6637WAT      O20152   6.224   1.827   1.281
 6637WAT     H120153   6.318   1.842   1.310
 6637WAT     H220154   6.162   1.886   1.334
 6638WAT      O20155   5.177   0.141   6.976
 6638WAT     H120156   5.213   0.163   6.885
 6638WAT     H220157   5.115   0.214   7.005
 6639WAT      O20158   2.727   5.369   3.447
 6639WAT     H120159   2.684   5.384   3.358
 6639WAT     H220160   2.698   5.441   3.511
 6640WAT      O20161   8.387   8.689   3.843
 6640WAT     H120162   8.367   8.731   3.754
 6640WAT     H220163   8.483   8.707   3.867
 6641WAT      O20164   7.029   8.784   6.549
 6641WAT     H120165   7.043   8.759   6.453
 6641WAT     H220166   6.967   8.719   6.592
 6642WAT      O20167   3.151   9.487   6.576
 6642WAT     H120168   3.100   9.455   6.656
 6642WAT     H220169   3.131   9.426   6.499
 6643WAT      O20170   2.613   3.056   2.716
 6643WAT     H120171   2.641   2.961   2.730
 6643WAT     H220172   2.584   3.068   2.621
 6644WAT      O20173   7.668   1.872   9.065
 6644WAT     H120174   7.605   1.886   9.142
 6644WAT     H220175   7.697   1.960   9.029
 6645WAT      O20176   8.511   8.325   9.358
 6645WAT     H120177   8.412   8.343   9.359
 6645WAT     H220178   8.550   8.359   9.273
 6646WAT      O20179   4.884   1.558   9.559
 6646WAT     H120180   4.890   1.588   9.655
 6646WAT     H220181   4.954   1.605   9.506
 6647WAT      O20182   4.770   8.546   5.953
 6647WAT     H120183   4.802   8.502   6.037
 6647WAT     H220184   4.727   8.633   5.975
 6648WAT      O20185   5.937   0.042   6.579
 6648WAT     H120186   6.002  -0.005   6.519
 6648WAT     H220187   5.947   0.141   6.567
 6649WAT      O20188   8.018   1.180   4.405
 6649WAT     H120189   7.950   1.253   4.395
 6649WAT     H220190   8.020   1.125   4.322
 6650WAT      O20191   7.108   2.592   1.137
 6650WAT     H120192   7.026   2.553   1.180
 6650WAT     H220193   7.087   2.615   1.042
 6651WAT      O20194   4.965   8.429   3.630
 6651WAT     H120195   4.915   8.485   3.564
 6651WAT     H220196   4.967   8.475   3.719
 6652WAT      O20197   1.949   8.068   7.280
 6652WAT     H120198   1.872   8.081   7.341
 6652WAT     H220199   1.996   7.983   7.301
 6653WAT      O20200   2.388   0.706   1.223
 6653WAT     H120201   2.431   0.697   1.134
 6653WAT     H220202   2.400   0.622   1.276
 6654WAT      O20203   0.943   5.038   9.776
 6654WAT     H120204   0.898   4.951   9.757
 6654WAT     H220205   1.006   5.027   9.853
 6655WAT      O20206   4.423   3.592   8.470
 6655WAT     H120207   4.471   3.679   8.480
 6655WAT     H220208   4.368   3.594   8.386
 6656WAT      O20209   1.842   5.863   0.737
 6656WAT     H120210   1.933   5.903   0.747
 6656WAT     H220211   1.796   5.860   0.826
 6657WAT      O20212   7.935   4.905   9.499
 6657WAT     H120213   7.855   4.937   9.449
 6657WAT     H220214   7.978   4.982   9.547
 6658WAT      O20215   8.054   5.604   2.999
 6658WAT     H120216   8.091   5.541   3.067
 6658WAT     H220217   7.955   5.609   3.009
 6659WAT      O20218   2.564   4.883   0.797
 6659WAT     H120219   2.609   4.945   0.861
 6659WAT     H220220   2.634   4.834   0.744
 6660WAT      O20221   2.139   0.723   2.630
 6660WAT     H120222   2.130   0.768   2.718
 6660WAT     H220223   2.081   0.769   2.563
 6661WAT      O20224   5.704   5.573   3.761
 6661WAT     H120225   5.789   5.593   3.713
 6661WAT     H220226   5.719   5.578   3.860
 6662WAT      O20227   3.194   2.954   1.576
 6662WAT     H120228   3.146   2.870   1.600
 6662WAT     H220229   3.293   2.941   1.586
 6663WAT      O20230   3.656   7.673   2.365
 6663WAT     H120231   3.696   7.733   2.295
 6663WAT     H220232   3.560   7.656   2.343
 6664WAT      O20233   2.433   8.584   7.913
 6664WAT     H120234   2.470   8.558   8.002
 6664WAT     H220235   2.507   8.588   7.845
 6665WAT      O20236   0.283   6.218   3.870
 6665WAT     H120237   0.222   6.203   3.792
 6665WAT     H220238   0.336   6.135   3.887
 6666WAT      O20239   3.443   2.706   1.962
 6666WAT     H120240   3.430   2.618   1.916
 6666WAT     H220241   3.385   2.710   2.043
 6667WAT      O20242   5.747   4.120   4.459
 6667WAT     H120243   5.803   4.177   4.519
 6667WAT     H220244   5.806   4.070   4.395
 6668WAT      O20245   8.308   5.119   6.187
 6668WAT     H120246   8.310   5.092   6.283
 6668WAT     H220247   8.250   5.200   6.176
 6669WAT      O20248   9.326   5.053   3.484
 6669WAT     H120249   9.271   4.970   3.474
 6669WAT     H220250   9.348   5.067   3.581
 6670WAT      O20251   0.820   8.897   5.385
 6670WAT     H120252   0.839   8.964   5.313
 6670WAT     H220253   0.754   8.830   5.351
 6671WAT      O20254   6.233   1.734   5.751
 6671WAT     H120255   6.238   1.827   5.787
 6671WAT     H220256   6.207   1.737   5.655
 6672WAT      O20257   4.202   1.067   2.620
 6672WAT     H120258   4.212   1.016   2.705
 6672WAT     H220259   4.282   1.125   2.606
 6673WAT      O20260   4.427   2.896   4.562
 6673WAT     H120261   4.442   2.948   4.646
 6673WAT     H220262   4.407   2.801   4.584
 6674WAT      O20263   4.349   9.181   5.516
 6674WAT     H120264   4.253   9.195   5.492
 6674WAT     H220265   4.367   9.083   5.524
 6675WAT      O20266   9.390   5.101   2.177
 6675WAT     H120267   9.407   5.129   2.271
 6675WAT     H220268   9.299   5.062   2.170
 6676WAT      O20269   2.047   3.091   1.468
 6676WAT     H120270   1.955   3.119   1.496
 6676WAT     H220271   2.098   3.170   1.436
 6677WAT      O20272   3.963   4.328   9.054
 6677WAT     H120273   4.028   4.325   8.978
 6677WAT     H220274   3.871   4.340   9.018
 6678WAT      O20275   1.798   3.195   1.040
 6678WAT     H120276   1.867   3.127   1.015
 6678WAT     H220277   1.810   3.277   0.983
 6679WAT      O20278   2.845   1.858   7.220
 6679WAT     H120279   2.937   1.843   7.257
 6679WAT     H220280   2.798   1.770   7.211
 6680WAT      O20281   2.468   3.906   5.359
 6680WAT     H120282   2.553   3.958   5.368
 6680WAT     H220283   2.409   3.948   5.291
 6681WAT      O20284   3.127   4.767   5.853
 6681WAT     H120285   3.091   4.849   5.808
 6681WAT     H220286   3.055   4.725   5.908
 6682WAT      O20287   2.493   2.700   1.849
 6682WAT     H120288   2.573   2.715   1.908
 6682WAT     H220289   2.470   2.602   1.849
 6683WAT      O20290   1.273   3.115   1.675
 6683WAT     H120291   1.202   3.045   1.676
 6683WAT     H220292   1.357   3.077   1.636
 6684WAT      O20293   7.896   2.355   6.363
 6684WAT     H120294   7.906   2.324   6.268
 6684WAT     H220295   7.986   2.378   6.400
 6685WAT      O20296   8.647   7.298   6.200
 6685WAT     H120297   8.553   7.283   6.171
 6685WAT     H220298   8.708   7.295   6.121
 6686WAT      O20299   5.513   2.532   8.809
 6686WAT     H120300   5.493   2.579   8.895
 6686WAT     H220301   5.440   2.466   8.790
 6687WAT      O20302   5.232   3.970   3.205
 6687WAT     H120303   5.315   4.002   3.160
 6687WAT     H220304   5.227   4.009   3.297
 6688WAT      O20305   4.879   5.610   5.312
 6688WAT     H120306   4.882   5.526   5.258
 6688WAT     H220307   4.855   5.687   5.253
 6689WAT      O20308   8.266   1.568   9.186
 6689WAT     H120309   8.330   1.620   9.130
 6689WAT     H220310   8.176   1.566   9.141
 6690WAT      O20311   5.571   0.398   5.825
 6690WAT     H120312   5.541   0.483   5.781
 6690WAT     H220313   5.498   0.364   5.885
 6691WAT      O20314   8.909   6.782   3.015
 6691WAT     H120315   8.960   6.735   3.087
 6691WAT     H220316   8.911   6.881   3.032
 6692WAT      O20317   1.443   1.209   4.087
 6692WAT     H120318   1.465   1.143   4.159
 6692WAT     H220319   1.467   1.301   4.118
 6693WAT      O20320   1.744   1.085   4.842
 6693WAT     H120321   1.730   1.177   4.878
 6693WAT     H220322   1.841   1.061   4.849
 6694WAT      O20323   0.971   5.283   9.680
 6694WAT     H120324   1.022   5.282   9.594
 6694WAT     H220325   0.967   5.191   9.718
 6695WAT      O20326   2.908   5.657   5.271
 6695WAT     H120327   2.997   5.676   5.230
 6695WAT     H220328   2.915   5.661   5.370
 6696WAT      O20329   8.225   5.416   9.656
 6696WAT     H120330   8.299   5.359   9.620
 6696WAT     H220331   8.264   5.504   9.687
 6697WAT      O20332   2.006   7.154   5.236
 6697WAT     H120333   2.046   7.066   5.263
 6697WAT     H220334   1.978   7.204   5.317
 6698WAT      O20335   9.735   4.188   7.467
 6698WAT     H120336   9.728   4.278   7.426
 6698WAT     H220337   9.740   4.118   7.395
 6699WAT      O20338   7.339   6.866   8.205
 6699WAT     H120339   7.376   6.787   8.254
 6699WAT     H220340   7.250   6.890   8.243
 6700WAT      O20341   1.699   0.917   0.105
 6700WAT     H120342   1.752   0.832   0.095
 6700WAT     H220343   1.653   0.937   0.018
 6701WAT      O20344   3.531   1.620   0.986
 6701WAT     H120345   3.551   1.698   0.927
 6701WAT     H220346   3.447   1.575   0.955
 6702WAT      O20347   5.924   8.701   8.896
 6702WAT     H120348   5.883   8.665   8.812
 6702WAT     H220349   5.980   8.781   8.874
 6703WAT      O20350   7.113   8.161   2.938
 6703WAT     H120351   7.015   8.141   2.950
 6703WAT     H220352   7.166   8.078   2.952
 6704WAT      O20353   1.077   7.602   6.763
 6704WAT     H120354   1.132   7.522   6.785
 6704WAT     H220355   1.013   7.579   6.689
 6705WAT      O20356   5.470   6.094   6.090
 6705WAT     H120357   5.428   6.161   6.151
 6705WAT     H220358   5.447   6.115   5.995
 6706WAT      O20359   6.379   8.267   9.068
 6706WAT     H120360   6.437   8.334   9.114
 6706WAT     H220361   6.285   8.301   9.064
 6707WAT      O20362   6.947   6.679   9.880
 6707WAT     H120363   6.936   6.651   9.785
 6707WAT     H220364   6.879   6.633   9.937
 6708WAT      O20365   6.162   2.965   4.324
 6708WAT     H120366   6.071   2.938   4.292
 6708WAT     H220367   6.219   2.991   4.245
 6709WAT      O20368   2.186   7.637   6.900
 6709WAT     H120369   2.187   7.582   6.982
 6709WAT     H220370   2.131   7.720   6.916
 6710WAT      O20371   9.510   1.898   1.464
 6710WAT     H120372   9.490   1.996   1.464
 6710WAT     H220373   9.510   1.865   1.558
 6711WAT      O20374   7.059   9.550   2.824
 6711WAT     H120375   7.020   9.546   2.732
 6711WAT     H220376   6.986   9.561   2.891
 6712WAT      O20377   2.967   5.069   0.385
 6712WAT     H120378   2.952   5.104   0.292
 6712WAT     H220379   2.884   5.081   0.439
 6713WAT      O20380   0.600   3.574   2.661
 6713WAT     H120381   0.563   3.481   2.657
 6713WAT     H220382   0.691   3.576   2.620
 6714WAT      O20383   6.940   9.012   1.491
 6714WAT     H120384   6.855   8.959   1.499
 6714WAT     H220385   6.990   8.983   1.410
 6715WAT      O20386   9.490   9.745   0.549
 6715WAT     H120387   9.406   9.727   0.498
 6715WAT     H220388   9.535   9.826   0.512
 6716WAT      O20389   3.579   2.698   9.470
 6716WAT     H120390   3.563   2.777   9.411
 6716WAT     H220391   3.667   2.709   9.517
 6717WAT      O20392   0.096   8.316   0.790
 6717WAT     H120393   0.174   8.374   0.816
 6717WAT     H220394   0.027   8.318   0.862
 6718WAT      O20395   8.219   2.619   6.298
 6718WAT     H120396   8.212   2.651   6.204
 6718WAT     H220397   8.316   2.611   6.324
 6719WAT      O20398   3.020   9.059   7.184
 6719WAT     H120399   2.972   9.036   7.099
 6719WAT     H220400   3.112   9.092   7.163
 6720WAT      O20401   9.182   1.354   0.088
 6720WAT     H120402   9.135   1.271   0.120
 6720WAT     H220403   9.279   1.334   0.074
 6721WAT      O20404   1.347   6.224   2.515
 6721WAT     H120405   1.346   6.324   2.512
 6721WAT     H220406   1.305   6.187   2.432
 6722WAT      O20407   4.726   9.398   3.441
 6722WAT     H120408   4.635   9.356   3.437
 6722WAT     H220409   4.726   9.468   3.513
 6723WAT      O20410   9.050   0.928   3.059
 6723WAT     H120411   8.993   0.847   3.066
 6723WAT     H220412   9.046   0.980   3.144
 6724WAT      O20413   2.556   0.248   2.159
 6724WAT     H120414   2.625   0.270   2.090
 6724WAT     H220415   2.574   0.158   2.197
 6725WAT      O20416   4.534   8.386   9.440
 6725WAT     H120417   4.610   8.451   9.444
 6725WAT     H220418   4.474   8.400   9.518
 6726WAT      O20419   0.072   9.282   5.715
 6726WAT     H120420   0.044   9.254   5.623
 6726WAT     H220421   0.070   9.202   5.775
 6727WAT      O20422   7.573   1.696   8.052
 6727WAT     H120423   7.598   1.792   8.041
 6727WAT     H220424   7.617   1.660   8.135
 6728WAT      O20425   2.828   1.337   7.744
 6728WAT     H120426   2.736   1.369   7.720
 6728WAT     H220427   2.831   1.314   7.841
 6729WAT      O20428   0.794   6.628   0.085
 6729WAT     H120429   0.723   6.665   0.024
 6729WAT     H220430   0.801   6.686   0.166
 6730WAT      O20431   1.944   2.284   4.729
 6730WAT     H120432   1.856   2.321   4.757
 6730WAT     H220433   1.990   2.349   4.668
 6731WAT      O20434   6.173   1.325   1.839
 6731WAT     H120435   6.214   1.314   1.929
 6731WAT     H220436   6.095   1.263   1.830
 6732WAT      O20437   1.708   7.218   3.027
 6732WAT     H120438   1.659   7.144   2.982
 6732WAT     H220439   1.708   7.203   3.126
 6733WAT      O20440   2.982   8.108   1.313
 6733WAT     H120441   2.923   8.068   1.242
 6733WAT     H220442   2.925   8.155   1.380
 6734WAT      O20443   2.584   8.089   8.200
 6734WAT     H120444   2.586   8.067   8.298
 6734WAT     H220445   2.666   8.050   8.157
 6735WAT      O20446   9.644   4.218   3.108
 6735WAT     H120447   9.592   4.134   3.093
 6735WAT     H220448   9.628   4.251   3.201
 6736WAT      O20449   1.155   7.848   5.529
 6736WAT     H120450   1.195   7.814   5.444
 6736WAT     H220451   1.131   7.770   5.588
 6737WAT      O20452   1.901   5.239   2.848
 6737WAT     H120453   1.959   5.254   2.768
 6737WAT     H220454   1.959   5.224   2.928
 6738WAT      O20455   4.584   7.038   4.312
 6738WAT     H120456   4.584   7.007   4.407
 6738WAT     H220457   4.501   7.090   4.294
 6739WAT      O20458   4.969   6.107   8.188
 6739WAT     H120459   4.881   6.151   8.208
 6739WAT     H220460   4.960   6.008   8.198
 6740WAT      O20461   4.281   8.010   5.696
 6740WAT     H120462   4.246   7.955   5.773
 6740WAT     H220463   4.252   7.968   5.610
 6741WAT      O20464   4.880   6.800   1.748
 6741WAT     H120465   4.960   6.825   1.693
 6741WAT     H220466   4.897   6.713   1.794
 6742WAT      O20467   7.011   7.969   5.363
 6742WAT     H120468   7.034   8.057   5.406
 6742WAT     H220469   6.912   7.956   5.366
 6743WAT      O20470   2.689   2.580   9.410
 6743WAT     H120471   2.606   2.625   9.377
 6743WAT     H220472   2.706   2.497   9.356
 6744WAT      O20473   8.275   9.768   6.924
 6744WAT     H120474   8.194   9.709   6.930
 6744WAT     H220475   8.331   9.756   7.006
 6745WAT      O20476   9.728   6.210   5.701
 6745WAT     H120477   9.645   6.244   5.746
 6745WAT     H220478   9.752   6.120   5.738
 6746WAT      O20479   6.984   8.667   2.601
 6746WAT     H120480   7.024   8.696   2.688
 6746WAT     H220481   7.051   8.678   2.528
 6747WAT      O20482   9.790   4.217   5.047
 6747WAT     H120483   9.807   4.173   4.959
 6747WAT     H220484   9.817   4.155   5.121
 6748WAT      O20485   7.345   2.550   7.962
 6748WAT     H120486   7.302   2.618   8.021
 6748WAT     H220487   7.296   2.545   7.875
 6749WAT      O20488   5.578   1.183   9.087
 6749WAT     H120489   5.483   1.161   9.106
 6749WAT     H220490   5.634   1.161   9.167
 6750WAT      O20491   3.695   5.860   0.436
 6750WAT     H120492   3.657   5.775   0.472
 6750WAT     H220493   3.699   5.928   0.509
 6751WAT      O20494   0.428   2.715   9.528
 6751WAT     H120495   0.444   2.641   9.462
 6751WAT     H220496   0.433   2.803   9.481
 6752WAT      O20497   6.675   0.634   8.952
 6752WAT     H120498   6.594   0.634   9.011
 6752WAT     H220499   6.661   0.699   8.878
 6753WAT      O20500   6.571   7.536   9.517
 6753WAT     H120501   6.517   7.532   9.601
 6753WAT     H220502   6.633   7.614   9.520
 6754WAT      O20503   0.346   4.939   8.353
 6754WAT     H120504   0.285   4.863   8.376
 6754WAT     H220505   0.440   4.913   8.372
 6755WAT      O20506   8.919   7.619   3.622
 6755WAT     H120507   8.855   7.632   3.698
 6755WAT     H220508   9.011   7.642   3.652
 6756WAT      O20509   3.476   3.046   4.007
 6756WAT     H120510   3.426   2.963   3.984
 6756WAT     H220511   3.414   3.112   4.051
 6757WAT      O20512   6.987   7.636   7.947
 6757WAT     H120513   6.961   7.629   8.043
 6757WAT     H220514   6.905   7.637   7.890
 6758WAT      O20515   0.835   8.613   7.788
 6758WAT     H120516   0.863   8.700   7.749
 6758WAT     H220517   0.828   8.545   7.715
 6759WAT      O20518   5.106   5.306   2.175
 6759WAT     H120519   5.125   5.227   2.232
 6759WAT     H220520   5.190   5.336   2.130
 6760WAT      O20521   1.582   3.596   9.501
 6760WAT     H120522   1.628   3.550   9.577
 6760WAT     H220523   1.625   3.569   9.414
 6761WAT      O20524   8.292   5.108   7.779
 6761WAT     H120525   8.238   5.037   7.824
 6761WAT     H220526   8.365   5.066   7.726
 6762WAT      O20527   1.360   4.629   2.675
 6762WAT     H120528   1.378   4.531   2.667
 6762WAT     H220529   1.337   4.650   2.770
 6763WAT      O20530   6.099   4.723   2.296
 6763WAT     H120531   6.184   4.758   2.257
 6763WAT     H220532   6.087   4.627   2.271
 6764WAT      O20533   1.160   1.396   0.960
 6764WAT     H120534   1.130   1.302   0.977
 6764WAT     H220535   1.082   1.458   0.964
 6765WAT      O20536   2.079   5.073   5.541
 6765WAT     H120537   2.030   5.141   5.487
 6765WAT     H220538   2.167   5.110   5.570
 6766WAT      O20539   1.988   9.650   6.865
 6766WAT     H120540   2.000   9.560   6.824
 6766WAT     H220541   2.057   9.664   6.936
 6767WAT      O20542   1.434   4.253   8.146
 6767WAT     H120543   1.431   4.200   8.061
 6767WAT     H220544   1.341   4.280   8.171
 6768WAT      O20545   5.103   9.179   4.381
 6768WAT     H120546   5.059   9.169   4.470
 6768WAT     H220547   5.075   9.103   4.321
 6769WAT      O20548   2.971   2.040   0.499
 6769WAT     H120549   2.993   2.072   0.407
 6769WAT     H220550   3.056   2.025   0.550
 6770WAT      O20551   2.300   2.834   0.702
 6770WAT     H120552   2.384   2.791   0.734
 6770WAT     H220553   2.223   2.803   0.757
 6771WAT      O20554   5.546   7.732   6.030
 6771WAT     H120555   5.449   7.723   6.055
 6771WAT     H220556   5.580   7.644   5.996
 6772WAT      O20557   8.772   6.059   5.938
 6772WAT     H120558   8.766   5.960   5.927
 6772WAT     H220559   8.867   6.085   5.954
 6773WAT      O20560   0.928   6.092   8.814
 6773WAT     H120561   0.888   6.171   8.767
 6773WAT     H220562   0.871   6.067   8.892
 6774WAT      O20563   5.798   1.883   9.475
 6774WAT     H120564   5.802   1.916   9.380
 6774WAT     H220565   5.836   1.953   9.535
 6775WAT      O20566   2.354   5.167   3.954
 6775WAT     H120567   2.345   5.267   3.953
 6775WAT     H220568   2.362   5.134   3.860
 6776WAT      O20569   9.178   2.024   3.185
 6776WAT     H120570   9.214   2.043   3.094
 6776WAT     H220571   9.080   2.006   3.180
 6777WAT      O20572   2.763   7.006   8.910
 6777WAT     H120573   2.678   6.956   8.924
 6777WAT     H220574   2.836   6.962   8.961
 6778WAT      O20575   6.818   1.092   6.896
 6778WAT     H120576   6.834   1.043   6.982
 6778WAT     H220577   6.844   1.035   6.819
 6779WAT      O20578   2.504   9.493   8.302
 6779WAT     H120579   2.405   9.497   8.291
 6779WAT     H220580   2.546   9.455   8.219
 6780WAT      O20581   7.506   6.664   1.417
 6780WAT     H120582   7.572   6.739   1.419
 6780WAT     H220583   7.459   6.663   1.329
 6781WAT      O20584   3.660   4.925   0.526
 6781WAT     H120585   3.698   5.001   0.473
 6781WAT     H220586   3.570   4.951   0.561
 6782WAT      O20587   0.625   7.628   0.886
 6782WAT     H120588   0.680   7.632   0.969
 6782WAT     H220589   0.547   7.690   0.894
 6783WAT      O20590   3.454   1.431   0.279
 6783WAT     H120591   3.433   1.357   0.215
 6783WAT     H220592   3.458   1.518   0.230
 6784WAT      O20593   3.122   3.862   8.945
 6784WAT     H120594   3.192   3.793   8.925
 6784WAT     H220595   3.076   3.888   8.860
 6785WAT      O20596   7.328   2.127   3.316
 6785WAT     H120597   7.351   2.200   3.380
 6785WAT     H220598   7.411   2.092   3.273
 6786WAT      O20599   2.638   8.296   0.391
 6786WAT     H120600   2.598   8.205   0.405
 6786WAT     H220601   2.614   8.329   0.299
 6787WAT      O20602   0.181   5.816   8.535
 6787WAT     H120603   0.145   5.903   8.501
 6787WAT     H220604   0.164   5.744   8.468
 6788WAT      O20605   0.258   0.621   9.815
 6788WAT     H120606   0.308   0.704   9.842
 6788WAT     H220607   0.305   0.541   9.851
 6789WAT      O20608   4.585   1.336   6.004
 6789WAT     H120609   4.549   1.244   5.989
 6789WAT     H220610   4.508   1.399   6.020
 6790WAT      O20611   5.996   5.454   4.639
 6790WAT     H120612   5.902   5.420   4.643
 6790WAT     H220613   6.001   5.544   4.681
 6791WAT      O20614   2.563   9.435   1.358
 6791WAT     H120615   2.539   9.339   1.372
 6791WAT     H220616   2.482   9.485   1.327
 6792WAT      O20617   8.213   1.015   0.779
 6792WAT     H120618   8.219   0.918   0.758
 6792WAT     H220619   8.146   1.059   0.718
 6793WAT      O20620   2.954   7.024   7.052
 6793WAT     H120621   2.870   7.004   7.103
 6793WAT     H220622   2.933   7.083   6.974
 6794WAT      O20623   8.540   3.977   4.131
 6794WAT     H120624   8.517   3.972   4.034
 6794WAT     H220625   8.593   3.896   4.157
 6795WAT      O20626   5.478   4.338   0.311
 6795WAT     H120627   5.430   4.402   0.251
 6795WAT     H220628   5.417   4.311   0.386
 6796WAT      O20629   3.302   5.596   3.054
 6796WAT     H120630   3.378   5.570   3.114
 6796WAT     H220631   3.238   5.655   3.104
 6797WAT      O20632   3.592   9.207   6.499
 6797WAT     H120633   3.640   9.264   6.432
 6797WAT     H220634   3.640   9.119   6.509
 6798WAT      O20635   6.888   7.813   4.185
 6798WAT     H120636   6.797   7.802   4.226
 6798WAT     H220637   6.938   7.885   4.233
 6799WAT      O20638   0.471   2.045   6.873
 6799WAT     H120639   0.494   1.961   6.923
 6799WAT     H220640   0.541   2.062   6.804
 6800WAT      O20641   9.691   7.368   5.553
 6800WAT     H120642   9.748   7.446   5.528
 6800WAT     H220643   9.635   7.392   5.633
 6801WAT      O20644   6.893   8.393   5.234
 6801WAT     H120645   6.822   8.327   5.259
 6801WAT     H220646   6.951   8.355   5.162
 6802WAT      O20647   1.586   9.054   5.345
 6802WAT     H120648   1.593   9.011   5.435
 6802WAT     H220649   1.673   9.043   5.296
 6803WAT      O20650   6.188   2.150   3.622
 6803WAT     H120651   6.198   2.223   3.555
 6803WAT     H220652   6.220   2.064   3.582
 6804WAT      O20653   7.411   2.976   8.391
 6804WAT     H120654   7.462   2.938   8.314
 6804WAT     H220655   7.396   2.904   8.459
 6805WAT      O20656   3.894   7.044   0.927
 6805WAT     H120657   3.968   7.108   0.909
 6805WAT     H220658   3.901   6.966   0.864
 6806WAT      O20659   5.230   4.018   5.092
 6806WAT     H120660   5.291   4.083   5.136
 6806WAT     H220661   5.138   4.055   5.088
 6807WAT      O20662   6.485   4.125   3.250
 6807WAT     H120663   6.494   4.218   3.214
 6807WAT     H220664   6.388   4.100   3.256
 6808WAT      O20665   0.388   0.870   0.146
 6808WAT     H120666   0.363   0.925   0.066
 6808WAT     H220667   0.487   0.875   0.160
 6809WAT      O20668   6.599   8.692   7.021
 6809WAT     H120669   6.514   8.641   7.033
 6809WAT     H220670   6.594   8.745   6.936
 6810WAT      O20671   7.828   4.424   3.141
 6810WAT     H120672   7.748   4.375   3.173
 6810WAT     H220673   7.893   4.436   3.217
 6811WAT      O20674   2.853   7.755   8.276
 6811WAT     H120675   2.919   7.735   8.349
 6811WAT     H220676   2.763   7.719   8.302
 6812WAT      O20677   3.047   2.382   6.168
 6812WAT     H120678   3.128   2.441   6.161
 6812WAT     H220679   3.018   2.354   6.077
 6813WAT      O20680   4.579   7.030   7.707
 6813WAT     H120681   4.675   7.049   7.725
 6813WAT     H220682   4.523   7.068   7.781
 6814WAT      O20683   8.194   0.441   1.014
 6814WAT     H120684   8.219   0.389   1.096
 6814WAT     H220685   8.275   0.462   0.961
 6815WAT      O20686   2.951   2.901   0.097
 6815WAT     H120687   2.896   2.906   0.181
 6815WAT     H220688   2.896   2.933   0.020
 6816WAT      O20689   3.856   4.616   7.523
 6816WAT     H120690   3.801   4.600   7.442
 6816WAT     H220691   3.796   4.635   7.601
 6817WAT      O20692   3.264   4.144   0.466
 6817WAT     H120693   3.255   4.214   0.395
 6817WAT     H220694   3.198   4.162   0.540
 6818WAT      O20695   6.094   8.423   1.598
 6818WAT     H120696   6.007   8.468   1.615
 6818WAT     H220697   6.089   8.328   1.628
 6819WAT      O20698   9.001   0.362   2.267
 6819WAT     H120699   8.919   0.394   2.314
 6819WAT     H220700   8.974   0.306   2.188
 6820WAT      O20701   0.106   1.069   1.570
 6820WAT     H120702   0.012   1.066   1.537
 6820WAT     H220703   0.108   1.103   1.664
 6821WAT      O20704   5.103   2.023   8.445
 6821WAT     H120705   5.005   2.009   8.428
 6821WAT     H220706   5.145   1.935   8.469
 6822WAT      O20707   9.224   7.256   9.180
 6822WAT     H120708   9.282   7.334   9.203
 6822WAT     H220709   9.156   7.285   9.112
 6823WAT      O20710   4.989   4.487   0.561
 6823WAT     H120711   4.994   4.560   0.629
 6823WAT     H220712   4.931   4.516   0.485
 6824WAT      O20713   1.319   9.406   6.331
 6824WAT     H120714   1.268   9.446   6.254
 6824WAT     H220715   1.255   9.377   6.402
 6825WAT      O20716   2.206   3.496   4.807
 6825WAT     H120717   2.141   3.424   4.782
 6825WAT     H220718   2.157   3.582   4.820
 6826WAT      O20719   9.868   0.924   6.653
 6826WAT     H120720   9.929   0.998   6.680
 6826WAT     H220721   9.856   0.925   6.553
 6827WAT      O20722   4.787   4.711   1.241
 6827WAT     H120723   4.816   4.623   1.281
 6827WAT     H220724   4.793   4.782   1.311
 6828WAT      O20725   6.765   4.249   1.413
 6828WAT     H120726   6.677   4.287   1.386
 6828WAT     H220727   6.781   4.265   1.510
 6829WAT      O20728   6.231   6.536   4.714
 6829WAT     H120729   6.149   6.508   4.763
 6829WAT     H220730   6.266   6.621   4.754
 6830WAT      O20731   5.870   3.968   9.166
 6830WAT     H120732   5.833   3.909   9.237
 6830WAT     H220733   5.795   4.003   9.108
 6831WAT      O20734   0.422   1.643   6.563
 6831WAT     H120735   0.367   1.704   6.506
 6831WAT     H220736   0.515   1.638   6.526
 6832WAT      O20737   8.687   4.661   2.854
 6832WAT     H120738   8.630   4.714   2.916
 6832WAT     H220739   8.784   4.679   2.875
 6833WAT      O20740   5.123   8.642   5.102
 6833WAT     H120741   5.095   8.550   5.074
 6833WAT     H220742   5.205   8.636   5.159
 6834WAT      O20743   9.073   9.651   2.288
 6834WAT     H120744   9.059   9.624   2.193
 6834WAT     H220745   9.062   9.750   2.296
 6835WAT      O20746   4.935   3.887   0.395
 6835WAT     H120747   4.904   3.867   0.488
 6835WAT     H220748   4.955   3.802   0.347
 6836WAT      O20749   9.041   6.024   8.777
 6836WAT     H120750   9.042   5.984   8.685
 6836WAT     H220751   9.123   6.079   8.790
 6837WAT      O20752   7.122   0.815   0.080
 6837WAT     H120753   7.201   0.828   0.020
 6837WAT     H220754   7.041   0.798   0.025
 6838WAT      O20755   8.590   8.274   2.418
 6838WAT     H120756   8.493   8.264   2.399
 6838WAT     H220757   8.640   8.290   2.333
 6839WAT      O20758   5.767   1.657   6.618
 6839WAT     H120759   5.679   1.610   6.619
 6839WAT     H220760   5.768   1.729   6.687
 6840WAT      O20761   2.843   5.915   0.202
 6840WAT     H120762   2.932   5.961   0.204
 6840WAT     H220763   2.796   5.938   0.118
 6841WAT      O20764   0.176   0.291   5.630
 6841WAT     H120765   0.130   0.308   5.718
 6841WAT     H220766   0.118   0.324   5.556
 6842WAT      O20767   0.301   1.824   1.661
 6842WAT     H120768   0.221   1.852   1.607
 6842WAT     H220769   0.364   1.773   1.602
 6843WAT      O20770   3.099   6.976   1.738
 6843WAT     H120771   3.132   6.979   1.643
 6843WAT     H220772   3.032   6.902   1.748
 6844WAT      O20773   4.440   0.895   3.370
 6844WAT     H120774   4.532   0.857   3.382
 6844WAT     H220775   4.442   0.993   3.391
 6845WAT      O20776   7.233   2.867   5.148
 6845WAT     H120777   7.317   2.813   5.148
 6845WAT     H220778   7.257   2.964   5.156
 6846WAT      O20779   3.214   8.190   1.468
 6846WAT     H120780   3.239   8.109   1.521
 6846WAT     H220781   3.128   8.172   1.420
 6847WAT      O20782   8.258   3.734   8.960
 6847WAT     H120783   8.224   3.827   8.944
 6847WAT     H220784   8.210   3.695   9.039
 6848WAT      O20785   0.683   3.471   0.354
 6848WAT     H120786   0.600   3.480   0.300
 6848WAT     H220787   0.662   3.424   0.440
 6849WAT      O20788   3.337   7.698   8.320
 6849WAT     H120789   3.295   7.691   8.229
 6849WAT     H220790   3.281   7.650   8.387
 6850WAT      O20791   0.379   4.898   8.081
 6850WAT     H120792   0.310   4.869   8.015
 6850WAT     H220793   0.335   4.924   8.167
 6851WAT      O20794   1.703   5.631   7.311
 6851WAT     H120795   1.631   5.601   7.374
 6851WAT     H220796   1.721   5.728   7.325
 6852WAT      O20797   5.343   7.679   2.054
 6852WAT     H120798   5.439   7.690   2.029
 6852WAT     H220799   5.300   7.769   2.061
 6853WAT      O20800   6.360   1.736   8.813
 6853WAT     H120801   6.459   1.727   8.826
 6853WAT     H220802   6.330   1.672   8.742
 6854WAT      O20803   1.668   5.525   9.343
 6854WAT     H120804   1.694   5.601   9.403
 6854WAT     H220805   1.590   5.552   9.288
 6855WAT      O20806   9.042   2.006   2.833
 6855WAT     H120807   9.052   1.908   2.822
 6855WAT     H220808   9.118   2.053   2.786
 6856WAT      O20809   1.253   5.571   5.628
 6856WAT     H120810   1.237   5.474   5.647
 6856WAT     H220811   1.351   5.587   5.617
 6857WAT      O20812   2.745   1.161   2.951
 6857WAT     H120813   2.832   1.201   2.921
 6857WAT     H220814   2.763   1.093   3.023
 6858WAT      O20815   6.574   0.312   3.031
 6858WAT     H120816   6.571   0.299   3.130
 6858WAT     H220817   6.665   0.289   2.997
 6859WAT      O20818   7.390   2.460   9.283
 6859WAT     H120819   7.366   2.412   9.368
 6859WAT     H220820   7.489   2.459   9.271
 6860WAT      O20821   9.003   9.229   8.145
 6860WAT     H120822   8.917   9.246   8.096
 6860WAT     H220823   9.065   9.307   8.131
 6861WAT      O20824   0.095   8.812   1.336
 6861WAT     H120825   0.124   8.819   1.431
 6861WAT     H220826   0.020   8.746   1.329
 6862WAT      O20827   7.533   0.753   9.201
 6862WAT     H120828   7.543   0.852   9.193
 6862WAT     H220829   7.545   0.710   9.111
 6863WAT      O20830   2.124   9.524   4.867
 6863WAT     H120831   2.122   9.601   4.930
 6863WAT     H220832   2.043   9.468   4.879
 6864WAT      O20833   3.497   5.166   2.469
 6864WAT     H120834   3.589   5.166   2.509
 6864WAT     H220835   3.467   5.072   2.453
 6865WAT      O20836   0.593   5.552   6.243
 6865WAT     H120837   0.539   5.574   6.161
 6865WAT     H220838   0.567   5.613   6.317
 6866WAT      O20839   4.059   9.370   2.656
 6866WAT     H120840   4.129   9.317   2.704
 6866WAT     H220841   3.981   9.310   2.635
 6867WAT      O20842   9.200   8.729   8.501
 6867WAT     H120843   9.164   8.819   8.526
 6867WAT     H220844   9.126   8.672   8.465
 6868WAT      O20845   4.118   4.364   0.740
 6868WAT     H120846   4.155   4.355   0.648
 6868WAT     H220847   4.028   4.407   0.736
 6869WAT      O20848   2.127   6.965   4.160
 6869WAT     H120849   2.182   6.981   4.242
 6869WAT     H220850   2.071   7.045   4.141
 6870WAT      O20851   2.156   4.933   8.085
 6870WAT     H120852   2.236   4.976   8.041
 6870WAT     H220853   2.106   5.002   8.137
 6871WAT      O20854   2.898   3.421   5.718
 6871WAT     H120855   2.943   3.377   5.796
 6871WAT     H220856   2.842   3.354   5.669
 6872WAT      O20857   8.932   8.293   3.033
 6872WAT     H120858   8.935   8.314   3.131
 6872WAT     H220859   8.858   8.344   2.990
 6873WAT      O20860   8.904   9.394   5.746
 6873WAT     H120861   8.914   9.492   5.734
 6873WAT     H220862   8.885   9.351   5.657
 6874WAT      O20863   1.274   7.060   6.553
 6874WAT     H120864   1.279   6.960   6.557
 6874WAT     H220865   1.367   7.097   6.548
 6875WAT      O20866   4.290   6.893   8.996
 6875WAT     H120867   4.371   6.951   8.991
 6875WAT     H220868   4.261   6.868   8.904
 6876WAT      O20869   3.485   4.129   1.417
 6876WAT     H120870   3.456   4.059   1.482
 6876WAT     H220871   3.519   4.084   1.333
 6877WAT      O20872   9.090   1.761   4.392
 6877WAT     H120873   9.042   1.691   4.444
 6877WAT     H220874   9.144   1.718   4.320
 6878WAT      O20875   3.693   2.926   6.887
 6878WAT     H120876   3.680   2.863   6.963
 6878WAT     H220877   3.770   2.987   6.907
 6879WAT      O20878   2.024   8.502   5.998
 6879WAT     H120879   2.070   8.438   6.060
 6879WAT     H220880   1.926   8.480   5.995
 6880WAT      O20881   4.736   4.646   7.084
 6880WAT     H120882   4.768   4.551   7.087
 6880WAT     H220883   4.814   4.707   7.069
 6881WAT      O20884   7.381   5.265   8.183
 6881WAT     H120885   7.343   5.347   8.142
 6881WAT     H220886   7.356   5.185   8.128
 6882WAT      O20887   0.150   8.631   2.269
 6882WAT     H120888   0.078   8.634   2.199
 6882WAT     H220889   0.169   8.725   2.299
 6883WAT      O20890   4.382   2.476   5.807
 6883WAT     H120891   4.482   2.467   5.815
 6883WAT     H220892   4.342   2.485   5.898
 6884WAT      O20893   5.110   9.070   0.053
 6884WAT     H120894   5.026   9.119   0.075
 6884WAT     H220895   5.100   9.025  -0.036
 6885WAT      O20896   4.235   3.694   2.409
 6885WAT     H120897   4.158   3.744   2.448
 6885WAT     H220898   4.319   3.746   2.423
 6886WAT      O20899   4.720   3.699   3.205
 6886WAT     H120900   4.703   3.795   3.224
 6886WAT     H220901   4.693   3.677   3.111
 6887WAT      O20902   3.663   8.694   5.529
 6887WAT     H120903   3.725   8.695   5.450
 6887WAT     H220904   3.648   8.788   5.561
 6888WAT      O20905   8.258   6.300   2.696
 6888WAT     H120906   8.199   6.379   2.677
 6888WAT     H220907   8.354   6.328   2.695
 6889WAT      O20908   3.303   9.549   6.084
 6889WAT     H120909   3.354   9.475   6.129
 6889WAT     H220910   3.227   9.577   6.143
 6890WAT      O20911   5.238   7.746   4.811
 6890WAT     H120912   5.178   7.808   4.862
 6890WAT     H220913   5.202   7.733   4.719
 6891WAT      O20914   4.688   7.280   6.517
 6891WAT     H120915   4.695   7.365   6.569
 6891WAT     H220916   4.776   7.260   6.473
 6892WAT      O20917   5.687   5.619   2.131
 6892WAT     H120918   5.738   5.533   2.136
 6892WAT     H220919   5.589   5.599   2.124
 6893WAT      O20920   4.297   8.732   0.557
 6893WAT     H120921   4.224   8.801   0.559
 6893WAT     H220922   4.260   8.645   0.524
 6894WAT      O20923   1.384   4.574   1.338
 6894WAT     H120924   1.438   4.543   1.259
 6894WAT     H220925   1.409   4.667   1.362
 6895WAT      O20926   5.902   0.578   2.616
 6895WAT     H120927   5.834   0.641   2.580
 6895WAT     H220928   5.884   0.486   2.580
 6896WAT      O20929   6.858   4.672   4.027
 6896WAT     H120930   6.841   4.598   4.092
 6896WAT     H220931   6.803   4.751   4.052
 6897WAT      O20932   9.196   2.699   7.411
 6897WAT     H120933   9.162   2.738   7.326
 6897WAT     H220934   9.128   2.710   7.483
 6898WAT      O20935   7.711   8.746   8.479
 6898WAT     H120936   7.668   8.834   8.501
 6898WAT     H220937   7.655   8.672   8.517
 6899WAT      O20938   6.872   5.391   7.008
 6899WAT     H120939   6.792   5.332   7.023
 6899WAT     H220940   6.912   5.415   7.097
 6900WAT      O20941   4.426   5.377   4.012
 6900WAT     H120942   4.481   5.456   3.985
 6900WAT     H220943   4.487   5.299   4.027
 6901WAT      O20944   6.595   6.308   4.465
 6901WAT     H120945   6.604   6.218   4.421
 6901WAT     H220946   6.677   6.362   4.448
 6902WAT      O20947   1.138   5.801   1.202
 6902WAT     H120948   1.204   5.727   1.218
 6902WAT     H220949   1.184   5.878   1.159
 6903WAT      O20950   2.355   7.564   1.267
 6903WAT     H120951   2.371   7.532   1.360
 6903WAT     H220952   2.322   7.488   1.211
 6904WAT      O20953   1.723   7.745   1.279
 6904WAT     H120954   1.739   7.685   1.358
 6904WAT     H220955   1.632   7.729   1.242
 6905WAT      O20956   6.281   2.039   9.424
 6905WAT     H120957   6.271   1.939   9.424
 6905WAT     H220958   6.278   2.073   9.518
 6906WAT      O20959   1.415   5.274   5.915
 6906WAT     H120960   1.453   5.347   5.857
 6906WAT     H220961   1.348   5.313   5.978
 6907WAT      O20962   0.803   2.916   0.186
 6907WAT     H120963   0.782   3.009   0.218
 6907WAT     H220964   0.901   2.910   0.165
 6908WAT      O20965   5.867   4.041   8.655
 6908WAT     H120966   5.784   4.032   8.710
 6908WAT     H220967   5.861   4.124   8.599
 6909WAT      O20968   9.554   5.390   1.775
 6909WAT     H120969   9.649   5.419   1.783
 6909WAT     H220970   9.528   5.337   1.855
 6910WAT      O20971   9.643   9.726   9.827
 6910WAT     H120972   9.705   9.647   9.825
 6910WAT     H220973   9.687   9.801   9.877
 6911WAT      O20974   6.885   4.735   2.856
 6911WAT     H120975   6.824   4.670   2.901
 6911WAT     H220976   6.888   4.716   2.758
 6912WAT      O20977   4.320   4.320   8.107
 6912WAT     H120978   4.375   4.387   8.157
 6912WAT     H220979   4.378   4.272   8.041
 6913WAT      O20980   8.745   4.131   5.968
 6913WAT     H120981   8.703   4.042   5.948
 6913WAT     H220982   8.845   4.122   5.960
 6914WAT      O20983   6.636   3.349   9.332
 6914WAT     H120984   6.558   3.391   9.379
 6914WAT     H220985   6.688   3.293   9.396
 6915WAT      O20986   1.301   9.406   7.572
 6915WAT     H120987   1.243   9.479   7.536
 6915WAT     H220988   1.394   9.416   7.536
 6916WAT      O20989   9.668   0.372   5.981
 6916WAT     H120990   9.644   0.305   6.051
 6916WAT     H220991   9.739   0.335   5.922
 6917WAT      O20992   1.263   6.804   3.254
 6917WAT     H120993   1.347   6.834   3.301
 6917WAT     H220994   1.205   6.884   3.239
 6918WAT      O20995   4.545   3.067   5.576
 6918WAT     H120996   4.550   2.968   5.584
 6918WAT     H220997   4.557   3.109   5.666
 6919WAT      O20998   9.280   1.130   7.685
 6919WAT     H120999   9.216   1.101   7.614
 6919WAT     H221000   9.233   1.133   7.773
 6920WAT      O21001   3.714   0.022   4.588
 6920WAT     H121002   3.720   0.121   4.581
 6920WAT     H221003   3.694  -0.016   4.497
 6921WAT      O21004   1.105   7.093   6.330
 6921WAT     H121005   1.179   7.104   6.396
 6921WAT     H221006   1.121   7.010   6.275
 6922WAT      O21007   6.446   4.331   6.981
 6922WAT     H121008   6.451   4.245   7.031
 6922WAT     H221009   6.366   4.383   7.012
 6923WAT      O21010   4.485   8.891   5.799
 6923WAT     H121011   4.389   8.872   5.779
 6923WAT     H221012   4.502   8.989   5.791
 6924WAT      O21013   1.240   8.176   3.649
 6924WAT     H121014   1.209   8.142   3.738
 6924WAT     H221015   1.301   8.109   3.607
 6925WAT      O21016   2.681   2.675   4.153
 6925WAT     H121017   2.764   2.701   4.203
 6925WAT     H221018   2.608   2.740   4.175
 6926WAT      O21019   4.645   9.742   8.756
 6926WAT     H121020   4.696   9.759   8.840
 6926WAT     H221021   4.687   9.666   8.706
 6927WAT      O21022   1.516   8.112   5.954
 6927WAT     H121023   1.600   8.062   5.931
 6927WAT     H221024   1.438   8.050   5.950
 6928WAT      O21025   5.793   4.687   8.862
 6928WAT     H121026   5.754   4.647   8.945
 6928WAT     H221027   5.849   4.619   8.815
 6929WAT      O21028   0.565   9.318   0.325
 6929WAT     H121029   0.534   9.304   0.231
 6929WAT     H221030   0.650   9.370   0.325
 6930WAT      O21031   3.635   7.235   9.345
 6930WAT     H121032   3.656   7.191   9.257
 6930WAT     H221033   3.557   7.190   9.387
 6931WAT      O21034   3.846   4.687   8.391
 6931WAT     H121035   3.849   4.722   8.485
 6931WAT     H221036   3.873   4.759   8.327
 6932WAT      O21037   0.278   8.320   2.807
 6932WAT     H121038   0.222   8.272   2.740
 6932WAT     H221039   0.325   8.396   2.762
 6933WAT      O21040   0.042   7.833   9.799
 6933WAT     H121041  -0.026   7.836   9.872
 6933WAT     H221042   0.088   7.922   9.792
 6934WAT      O21043   3.734   0.580   2.717
 6934WAT     H121044   3.777   0.644   2.652
 6934WAT     H221045   3.767   0.599   2.809
 6935WAT      O21046   2.629   7.431   1.219
 6935WAT     H121047   2.645   7.334   1.238
 6935WAT     H221048   2.535   7.455   1.245
 6936WAT      O21049   2.289   0.322   1.994
 6936WAT     H121050   2.205   0.274   1.969
 6936WAT     H221051   2.355   0.315   1.919
 6937WAT      O21052   5.339   1.310   2.510
 6937WAT     H121053   5.356   1.402   2.474
 6937WAT     H221054   5.427   1.265   2.527
 6938WAT      O21055   2.609   7.608   4.259
 6938WAT     H121056   2.519   7.585   4.296
 6938WAT     H221057   2.615   7.707   4.245
 6939WAT      O21058   5.732   9.553   4.901
 6939WAT     H121059   5.829   9.542   4.923
 6939WAT     H221060   5.698   9.467   4.863
 6940WAT      O21061   1.581   5.854   3.702
 6940WAT     H121062   1.499   5.831   3.753
 6940WAT     H221063   1.661   5.815   3.747
 6941WAT      O21064   7.356   8.411   9.111
 6941WAT     H121065   7.279   8.462   9.151
 6941WAT     H221066   7.442   8.451   9.143
 6942WAT      O21067   7.861   3.534   4.214
 6942WAT     H121068   7.931   3.475   4.175
 6942WAT     H221069   7.819   3.589   4.142
 6943WAT      O21070   5.515   5.087   7.257
 6943WAT     H121071   5.544   5.095   7.162
 6943WAT     H221072   5.419   5.114   7.264
 6944WAT      O21073   0.954   4.464   7.125
 6944WAT     H121074   1.045   4.486   7.090
 6944WAT     H221075   0.887   4.527   7.086
 6945WAT      O21076   9.862   1.111   5.262
 6945WAT     H121077   9.932   1.181   5.242
 6945WAT     H221078   9.795   1.110   5.189
 6946WAT      O21079   1.568   5.860   3.046
 6946WAT     H121080   1.531   5.875   3.138
 6946WAT     H221081   1.603   5.946   3.010
 6947WAT      O21082   8.365   5.209   9.530
 6947WAT     H121083   8.452   5.173   9.563
 6947WAT     H221084   8.362   5.205   9.430
 6948WAT      O21085   6.118   1.034   8.977
 6948WAT     H121086   6.145   0.940   8.955
 6948WAT     H221087   6.026   1.051   8.941
 6949WAT      O21088   5.890   5.762   0.968
 6949WAT     H121089   5.948   5.689   1.003
 6949WAT     H221090   5.794   5.732   0.970
 6950WAT      O21091   4.614   8.140   1.028
 6950WAT     H121092   4.609   8.221   1.087
 6950WAT     H221093   4.704   8.136   0.985
 6951WAT      O21094   2.686   7.833   0.239
 6951WAT     H121095   2.596   7.790   0.231
 6951WAT     H221096   2.679   7.914   0.298
 6952WAT      O21097   1.860   0.332   2.075
 6952WAT     H121098   1.943   0.287   2.042
 6952WAT     H221099   1.790   0.264   2.094
 6953WAT      O21100   3.693   1.246   4.038
 6953WAT     H121101   3.656   1.336   4.015
 6953WAT     H221102   3.788   1.240   4.006
 6954WAT      O21103   4.683   9.819   2.596
 6954WAT     H121104   4.584   9.810   2.590
 6954WAT     H221105   4.726   9.742   2.549
 6955WAT      O21106   1.915   1.166   8.680
 6955WAT     H121107   1.852   1.242   8.662
 6955WAT     H221108   1.867   1.079   8.670
 6956WAT      O21109   8.282   7.223   2.695
 6956WAT     H121110   8.211   7.198   2.761
 6956WAT     H221111   8.342   7.145   2.679
 6957WAT      O21112   7.042   2.344   6.107
 6957WAT     H121113   7.095   2.335   6.023
 6957WAT     H221114   6.968   2.276   6.107
 6958WAT      O21115   6.845   5.261   5.571
 6958WAT     H121116   6.827   5.354   5.541
 6958WAT     H221117   6.813   5.249   5.665
 6959WAT      O21118   6.316   5.672   2.710
 6959WAT     H121119   6.321   5.683   2.809
 6959WAT     H221120   6.293   5.578   2.688
 6960WAT      O21121   6.772   7.627   4.768
 6960WAT     H121122   6.813   7.555   4.824
 6960WAT     H221123   6.825   7.711   4.778
 6961WAT      O21124   7.017   2.462   4.477
 6961WAT     H121125   6.998   2.555   4.509
 6961WAT     H221126   7.023   2.462   4.377
 6962WAT      O21127   6.451   9.443   4.954
 6962WAT     H121128   6.438   9.533   4.997
 6962WAT     H221129   6.367   9.390   4.962
 6963WAT      O21130   6.725   7.665   9.143
 6963WAT     H121131   6.806   7.615   9.173
 6963WAT     H221132   6.739   7.698   9.050
 6964WAT      O21133   2.334   8.281   1.927
 6964WAT     H121134   2.417   8.240   1.890
 6964WAT     H221135   2.358   8.336   2.008
 6965WAT      O21136   8.805   0.240   4.498
 6965WAT     H121137   8.751   0.323   4.485
 6965WAT     H221138   8.891   0.249   4.448
 6966WAT      O21139   4.253   0.043   7.425
 6966WAT     H121140   4.349   0.067   7.438
 6966WAT     H221141   4.247  -0.041   7.371
 6967WAT      O21142   2.440   3.681   4.393
 6967WAT     H121143   2.407   3.768   4.355
 6967WAT     H221144   2.368   3.612   4.386
 6968WAT      O21145   0.996   5.385   8.903
 6968WAT     H121146   1.083   5.345   8.876
 6968WAT     H221147   0.922   5.337   8.856
 6969WAT      O21148   3.653   4.539   0.229
 6969WAT     H121149   3.621   4.456   0.184
 6969WAT     H221150   3.728   4.516   0.292
 6970WAT      O21151   1.319   4.532   6.489
 6970WAT     H121152   1.292   4.436   6.479
 6970WAT     H221153   1.376   4.542   6.571
 6971WAT      O21154   2.335   9.697   2.835
 6971WAT     H121155   2.241   9.665   2.848
 6971WAT     H221156   2.356   9.697   2.737
 6972WAT      O21157   6.051   2.973   5.204
 6972WAT     H121158   6.097   3.042   5.258
 6972WAT     H221159   6.021   3.013   5.117
 6973WAT      O21160   2.692   9.254   3.857
 6973WAT     H121161   2.629   9.275   3.932
 6973WAT     H221162   2.784   9.285   3.881
 6974WAT      O21163   3.939   3.938   0.610
 6974WAT     H121164   3.867   4.006   0.595
 6974WAT     H221165   3.898   3.853   0.642
 6975WAT      O21166   6.751   8.356   1.666
 6975WAT     H121167   6.757   8.456   1.670
 6975WAT     H221168   6.783   8.324   1.577
 6976WAT      O21169   9.859   2.579   7.952
 6976WAT     H121170   9.903   2.590   8.042
 6976WAT     H221171   9.762   2.559   7.965
 6977WAT      O21172   0.261   7.180   3.698
 6977WAT     H121173   0.230   7.230   3.617
 6977WAT     H221174   0.188   7.180   3.766
 6978WAT      O21175   0.407   6.579   4.023
 6978WAT     H121176   0.348   6.570   3.942
 6978WAT     H221177   0.374   6.654   4.080
 6979WAT      O21178   8.256   4.680   1.558
 6979WAT     H121179   8.195   4.752   1.527
 6979WAT     H221180   8.214   4.631   1.635
 6980WAT      O21181   5.981   1.190   1.232
 6980WAT     H121182   5.906   1.220   1.291
 6980WAT     H221183   6.065   1.181   1.286
 6981WAT      O21184   5.606   7.667   7.722
 6981WAT     H121185   5.665   7.738   7.761
 6981WAT     H221186   5.656   7.581   7.717
 6982WAT      O21187   1.636   1.104   2.537
 6982WAT     H121188   1.537   1.096   2.550
 6982WAT     H221189   1.681   1.020   2.568
 6983WAT      O21190   5.421   8.723   7.926
 6983WAT     H121191   5.415   8.770   8.014
 6983WAT     H221192   5.356   8.763   7.862
 6984WAT      O21193   9.371   4.005   6.855
 6984WAT     H121194   9.411   4.088   6.894
 6984WAT     H221195   9.288   3.982   6.905
 6985WAT      O21196   2.532   0.636   7.518
 6985WAT     H121197   2.614   0.685   7.487
 6985WAT     H221198   2.456   0.701   7.524
 6986WAT      O21199   5.202   9.553   9.676
 6986WAT     H121200   5.233   9.457   9.675
 6986WAT     H221201   5.280   9.612   9.654
 6987WAT      O21202   7.968   4.110   1.877
 6987WAT     H121203   7.939   4.030   1.929
 6987WAT     H221204   7.976   4.188   1.938
 6988WAT      O21205   0.152   6.284   1.647
 6988WAT     H121206   0.071   6.270   1.591
 6988WAT     H221207   0.146   6.227   1.729
 6989WAT      O21208   9.439   2.457   6.319
 6989WAT     H121209   9.369   2.455   6.390
 6989WAT     H221210   9.436   2.371   6.267
 6990WAT      O21211   4.074   5.957   6.524
 6990WAT     H121212   4.080   5.865   6.485
 6990WAT     H221213   4.028   6.018   6.459
 6991WAT      O21214   7.602   3.792   1.835
 6991WAT     H121215   7.638   3.700   1.818
 6991WAT     H221216   7.605   3.811   1.933
 6992WAT      O21217   2.823   2.058   7.449
 6992WAT     H121218   2.911   2.105   7.447
 6992WAT     H221219   2.820   1.988   7.377
 6993WAT      O21220   6.222   0.614   9.121
 6993WAT     H121221   6.276   0.698   9.132
 6993WAT     H221222   6.128   0.630   9.150
 6994WAT      O21223   2.483   1.794   3.496
 6994WAT     H121224   2.498   1.882   3.542
 6994WAT     H221225   2.394   1.795   3.451
 6995WAT      O21226   7.437   8.953   3.587
 6995WAT     H121227   7.423   8.925   3.682
 6995WAT     H221228   7.406   9.047   3.575
 6996WAT      O21229   8.988   1.897   3.768
 6996WAT     H121230   8.973   1.799   3.756
 6996WAT     H221231   9.009   1.917   3.864
 6997WAT      O21232   9.674   9.810   6.725
 6997WAT     H121233   9.705   9.840   6.816
 6997WAT     H221234   9.655   9.890   6.668
 6998WAT      O21235   3.904   2.930   4.478
 6998WAT     H121236   3.991   2.974   4.502
 6998WAT     H221237   3.887   2.854   4.540
 6999WAT      O21238   7.656   8.633   1.314
 6999WAT     H121239   7.696   8.684   1.238
 6999WAT     H221240   7.656   8.690   1.396
 7000WAT      O21241   7.889   5.383   2.808
 7000WAT     H121242   7.827   5.381   2.886
 7000WAT     H221243   7.954   5.307   2.814
 7001WAT      O21244   7.183   5.528   2.883
 7001WAT     H121245   7.150   5.467   2.955
 7001WAT     H221246   7.227   5.607   2.924
 7002WAT      O21247   4.292   2.376   2.691
 7002WAT     H121248   4.338   2.301   2.739
 7002WAT     H221249   4.213   2.340   2.641
 7003WAT      O21250   1.566   3.797   3.087
 7003WAT     H121251   1.608   3.815   3.176
 7003WAT     H221252   1.634   3.810   3.014
 7004WAT      O21253   5.204   9.010   5.036
 7004WAT     H121254   5.144   8.996   4.957
 7004WAT     H221255   5.259   8.928   5.051
 7005WAT      O21256   8.283   8.138   6.889
 7005WAT     H121257   8.267   8.095   6.800
 7005WAT     H221258   8.302   8.235   6.876
 7006WAT      O21259   4.845   3.688   6.742
 7006WAT     H121260   4.795   3.604   6.723
 7006WAT     H221261   4.822   3.720   6.834
 7007WAT      O21262   0.745   8.029   9.140
 7007WAT     H121263   0.799   8.112   9.157
 7007WAT     H221264   0.777   7.955   9.199
 7008WAT      O21265   1.060   4.950   1.918
 7008WAT     H121266   1.094   5.014   1.848
 7008WAT     H221267   0.980   4.903   1.883
 7009WAT      O21268   6.649   7.973   8.128
 7009WAT     H121269   6.672   8.010   8.038
 7009WAT     H221270   6.598   7.888   8.117
 7010WAT      O21271   8.196   6.594   0.431
 7010WAT     H121272   8.204   6.657   0.509
 7010WAT     H221273   8.104   6.598   0.395
 7011WAT      O21274   2.469   8.290   2.591
 7011WAT     H121275   2.375   8.268   2.618
 7011WAT     H221276   2.500   8.223   2.524
 7012WAT      O21277   9.044   6.364   6.532
 7012WAT     H121278   9.124   6.365   6.472
 7012WAT     H221279   8.975   6.427   6.495
 7013WAT      O21280   3.736   7.614   0.477
 7013WAT     H121281   3.715   7.580   0.569
 7013WAT     H221282   3.735   7.538   0.412
 7014WAT      O21283   1.478   4.342   5.032
 7014WAT     H121284   1.486   4.363   4.935
 7014WAT     H221285   1.397   4.388   5.070
 7015WAT      O21286   0.800   5.049   3.790
 7015WAT     H121287   0.757   4.989   3.858
 7015WAT     H221288   0.757   5.139   3.793
 7016WAT      O21289   5.620   0.987   3.972
 7016WAT     H121290   5.616   0.891   3.944
 7016WAT     H221291   5.690   0.998   4.042
 7017WAT      O21292   9.384   4.309   9.514
 7017WAT     H121293   9.336   4.329   9.428
 7017WAT     H221294   9.354   4.220   9.549
 7018WAT      O21295   9.226   5.311   6.332
 7018WAT     H121296   9.127   5.301   6.325
 7018WAT     H221297   9.260   5.257   6.409
 7019WAT      O21298   1.030   9.051   9.341
 7019WAT     H121299   0.946   9.099   9.368
 7019WAT     H221300   1.045   8.973   9.402
 7020WAT      O21301   6.109   8.887   0.219
 7020WAT     H121302   6.185   8.826   0.195
 7020WAT     H221303   6.130   8.980   0.187
 7021WAT      O21304   2.573   9.163   3.395
 7021WAT     H121305   2.657   9.115   3.417
 7021WAT     H221306   2.537   9.206   3.478
 7022WAT      O21307   5.874   5.006   1.577
 7022WAT     H121308   5.840   5.081   1.633
 7022WAT     H221309   5.956   5.036   1.528
 7023WAT      O21310   2.432   3.836   2.929
 7023WAT     H121311   2.525   3.825   2.893
 7023WAT     H221312   2.415   3.768   3.000
 7024WAT      O21313   2.196   9.452   7.400
 7024WAT     H121314   2.134   9.386   7.357
 7024WAT     H221315   2.271   9.403   7.445
 7025WAT      O21316   6.726   3.256   1.027
 7025WAT     H121317   6.804   3.293   0.977
 7025WAT     H221318   6.652   3.236   0.963
 7026WAT      O21319   7.473   0.698   0.162
 7026WAT     H121320   7.400   0.742   0.214
 7026WAT     H221321   7.545   0.764   0.142
 7027WAT      O21322   6.591   3.980   2.111
 7027WAT     H121323   6.625   3.887   2.106
 7027WAT     H221324   6.617   4.031   2.029
 7028WAT      O21325   3.105   7.481   3.542
 7028WAT     H121326   3.145   7.474   3.451
 7028WAT     H221327   3.159   7.426   3.606
 7029WAT      O21328   2.489   5.030   8.530
 7029WAT     H121329   2.419   4.996   8.467
 7029WAT     H221330   2.580   5.010   8.494
 7030WAT      O21331   1.720   3.650   0.583
 7030WAT     H121332   1.792   3.683   0.644
 7030WAT     H221333   1.637   3.704   0.597
 7031WAT      O21334   3.194   2.167   2.282
 7031WAT     H121335   3.222   2.117   2.200
 7031WAT     H221336   3.251   2.140   2.359
 7032WAT      O21337   3.373   8.804   5.926
 7032WAT     H121338   3.356   8.798   6.024
 7032WAT     H221339   3.468   8.833   5.911
 7033WAT      O21340   5.216   4.964   5.617
 7033WAT     H121341   5.122   4.964   5.582
 7033WAT     H221342   5.280   4.954   5.542
 7034WAT      O21343   1.471   0.331   2.029
 7034WAT     H121344   1.380   0.309   1.994
 7034WAT     H221345   1.500   0.261   2.094
 7035WAT      O21346   6.722   8.502   4.382
 7035WAT     H121347   6.689   8.483   4.289
 7035WAT     H221348   6.820   8.519   4.380
 7036WAT      O21349   6.607   1.332   5.575
 7036WAT     H121350   6.551   1.390   5.635
 7036WAT     H221351   6.668   1.390   5.521
 7037WAT      O21352   7.158   9.654   6.133
 7037WAT     H121353   7.141   9.574   6.075
 7037WAT     H221354   7.224   9.715   6.088
 7038WAT      O21355   2.435   4.269   8.284
 7038WAT     H121356   2.404   4.359   8.252
 7038WAT     H221357   2.418   4.260   8.382
 7039WAT      O21358   9.339   9.142   5.053
 7039WAT     H121359   9.245   9.154   5.086
 7039WAT     H221360   9.384   9.231   5.046
 7040WAT      O21361   9.632   0.596   8.678
 7040WAT     H121362   9.665   0.509   8.714
 7040WAT     H221363   9.576   0.579   8.596
 7041WAT      O21364   7.082   4.995   6.425
 7041WAT     H121365   7.069   5.039   6.514
 7041WAT     H221366   7.179   4.974   6.412
 7042WAT      O21367   5.959   1.123   0.501
 7042WAT     H121368   5.947   1.142   0.404
 7042WAT     H221369   5.893   1.053   0.529
 7043WAT      O21370   1.567   1.657   1.848
 7043WAT     H121371   1.483   1.604   1.863
 7043WAT     H221372   1.553   1.720   1.772
 7044WAT      O21373   5.389   8.564   7.042
 7044WAT     H121374   5.389   8.470   7.078
 7044WAT     H221375   5.376   8.561   6.943
 7045WAT      O21376   1.537   7.950   2.903
 7045WAT     H121377   1.632   7.917   2.907
 7045WAT     H221378   1.475   7.876   2.929
 7046WAT      O21379   1.852   4.488   0.208
 7046WAT     H121380   1.877   4.485   0.111
 7046WAT     H221381   1.923   4.538   0.259
 7047WAT      O21382   5.652   1.503   3.103
 7047WAT     H121383   5.586   1.533   3.034
 7047WAT     H221384   5.691   1.415   3.076
 7048WAT      O21385   9.633   0.958   9.008
 7048WAT     H121386   9.663   1.007   8.926
 7048WAT     H221387   9.685   0.873   9.016
 7049WAT      O21388   9.863   2.038   7.328
 7049WAT     H121389   9.884   1.964   7.393
 7049WAT     H221390   9.942   2.100   7.322
 7050WAT      O21391   7.592   7.299   2.378
 7050WAT     H121392   7.615   7.205   2.353
 7050WAT     H221393   7.647   7.363   2.323
 7051WAT      O21394   6.229   9.293   8.986
 7051WAT     H121395   6.168   9.323   9.059
 7051WAT     H221396   6.190   9.213   8.940
 7052WAT      O21397   4.170   7.453   2.745
 7052WAT     H121398   4.197   7.538   2.698
 7052WAT     H221399   4.070   7.446   2.745
 7053WAT      O21400   6.884   7.538   3.669
 7053WAT     H121401   6.809   7.509   3.728
 7053WAT     H221402   6.857   7.526   3.573
 7054WAT      O21403   7.563   1.140   8.917
 7054WAT     H121404   7.616   1.217   8.954
 7054WAT     H221405   7.481   1.176   8.871
 7055WAT      O21406   6.578   8.366   6.618
 7055WAT     H121407   6.561   8.464   6.606
 7055WAT     H221408   6.677   8.350   6.620
 7056WAT      O21409   2.624   3.528   3.351
 7056WAT     H121410   2.636   3.623   3.320
 7056WAT     H221411   2.550   3.485   3.300
 7057WAT      O21412   7.980   9.586   9.716
 7057WAT     H121413   7.973   9.503   9.661
 7057WAT     H221414   7.911   9.652   9.686
 7058WAT      O21415   8.130   5.915   7.730
 7058WAT     H121416   8.117   5.869   7.642
 7058WAT     H221417   8.128   5.847   7.803
 7059WAT      O21418   3.112   1.216   3.035
 7059WAT     H121419   3.063   1.131   3.051
 7059WAT     H221420   3.054   1.293   3.062
 7060WAT      O21421   9.313   5.050   7.036
 7060WAT     H121422   9.217   5.078   7.040
 7060WAT     H221423   9.353   5.058   7.128
 7061WAT      O21424   7.892   3.811   5.559
 7061WAT     H121425   7.803   3.853   5.541
 7061WAT     H221426   7.889   3.714   5.534
 7062WAT      O21427   7.404   7.112   7.409
 7062WAT     H121428   7.357   7.174   7.472
 7062WAT     H221429   7.344   7.034   7.388
 7063WAT      O21430   9.814   2.049   5.498
 7063WAT     H121431   9.740   2.109   5.529
 7063WAT     H221432   9.828   1.977   5.565
 7064WAT      O21433   7.087   7.235   4.092
 7064WAT     H121434   7.096   7.293   4.173
 7064WAT     H221435   7.126   7.145   4.111
 7065WAT      O21436   4.256   1.663   4.223
 7065WAT     H121437   4.340   1.710   4.193
 7065WAT     H221438   4.269   1.631   4.317
 7066WAT      O21439   4.131   0.565   3.216
 7066WAT     H121440   4.141   0.656   3.255
 7066WAT     H221441   4.041   0.528   3.240
 7067WAT      O21442   4.059   5.992   9.745
 7067WAT     H121443   3.982   6.045   9.712
 7067WAT     H221444   4.132   5.993   9.677
 7068WAT      O21445   4.166   9.488   3.700
 7068WAT     H121446   4.233   9.519   3.633
 7068WAT     H221447   4.074   9.494   3.662
 7069WAT      O21448   3.821   0.806   4.692
 7069WAT     H121449   3.911   0.849   4.687
 7069WAT     H221450   3.750   0.874   4.677
 7070WAT      O21451   8.082   5.488   6.721
 7070WAT     H121452   8.048   5.471   6.814
 7070WAT     H221453   8.119   5.403   6.683
 7071WAT      O21454   0.715   2.005   3.037
 7071WAT     H121455   0.758   1.918   3.061
 7071WAT     H221456   0.753   2.077   3.095
 7072WAT      O21457   1.702   4.031   7.173
 7072WAT     H121458   1.618   4.084   7.173
 7072WAT     H221459   1.682   3.937   7.199
 7073WAT      O21460   3.874   6.928   4.233
 7073WAT     H121461   3.828   6.845   4.200
 7073WAT     H221462   3.873   6.997   4.161
 7074WAT      O21463   1.757   9.739   6.932
 7074WAT     H121464   1.847   9.695   6.925
 7074WAT     H221465   1.694   9.680   6.982
 7075WAT      O21466   7.520   3.737   6.481
 7075WAT     H121467   7.489   3.690   6.399
 7075WAT     H221468   7.587   3.808   6.457
 7076WAT      O21469   4.826   3.514   1.015
 7076WAT     H121470   4.883   3.440   0.981
 7076WAT     H221471   4.765   3.480   1.087
 7077WAT      O21472   2.574   1.772   4.193
 7077WAT     H121473   2.585   1.762   4.291
 7077WAT     H221474   2.499   1.715   4.161
 7078WAT      O21475   4.266   7.996   4.097
 7078WAT     H121476   4.260   8.082   4.046
 7078WAT     H221477   4.357   7.988   4.138
 7079WAT      O21478   8.930   6.104   7.147
 7079WAT     H121479   8.869   6.025   7.154
 7079WAT     H221480   8.960   6.116   7.053
 7080WAT      O21481   5.165   6.962   1.984
 7080WAT     H121482   5.124   7.034   1.928
 7080WAT     H221483   5.195   7.002   2.071
 7081WAT      O21484   5.132   8.763   9.820
 7081WAT     H121485   5.054   8.742   9.880
 7081WAT     H221486   5.217   8.736   9.865
 7082WAT      O21487   5.126   0.659   9.455
 7082WAT     H121488   5.192   0.599   9.411
 7082WAT     H221489   5.128   0.749   9.411
 7083WAT      O21490   7.752   0.621   3.874
 7083WAT     H121491   7.820   0.693   3.892
 7083WAT     H221492   7.725   0.579   3.960
 7084WAT      O21493   0.749   6.958   0.798
 7084WAT     H121494   0.688   6.928   0.724
 7084WAT     H221495   0.726   7.052   0.823
 7085WAT      O21496   7.245   2.758   8.128
 7085WAT     H121497   7.334   2.792   8.157
 7085WAT     H221498   7.176   2.781   8.197
 7086WAT      O21499   4.807   1.893   2.627
 7086WAT     H121500   4.830   1.965   2.692
 7086WAT     H221501   4.891   1.860   2.584
 7087WAT      O21502   4.448   1.692   6.214
 7087WAT     H121503   4.466   1.786   6.188
 7087WAT     H221504   4.363   1.688   6.268
 7088WAT      O21505   2.521   5.314   6.065
 7088WAT     H121506   2.620   5.332   6.063
 7088WAT     H221507   2.501   5.250   6.139
 7089WAT      O21508   3.653   5.351   0.180
 7089WAT     H121509   3.590   5.273   0.177
 7089WAT     H221510   3.602   5.436   0.183
 7090WAT      O21511   4.687   4.087   7.079
 7090WAT     H121512   4.638   4.064   7.164
 7090WAT     H221513   4.783   4.063   7.088
 7091WAT      O21514   2.494   0.263   3.738
 7091WAT     H121515   2.556   0.185   3.732
 7091WAT     H221516   2.401   0.230   3.754
 7092WAT      O21517   4.917   8.798   4.987
 7092WAT     H121518   4.835   8.751   4.954
 7092WAT     H221519   4.989   8.731   5.005
 7093WAT      O21520   3.605   1.913   1.517
 7093WAT     H121521   3.584   1.818   1.494
 7093WAT     H221522   3.623   1.965   1.433
 7094WAT      O21523   9.688   9.582   5.531
 7094WAT     H121524   9.700   9.593   5.630
 7094WAT     H221525   9.768   9.537   5.493
 7095WAT      O21526   6.683   0.824   2.200
 7095WAT     H121527   6.615   0.822   2.274
 7095WAT     H221528   6.767   0.865   2.235
 7096WAT      O21529   7.808   7.773   5.194
 7096WAT     H121530   7.870   7.845   5.162
 7096WAT     H221531   7.725   7.773   5.138
 7097WAT      O21532   8.953   4.178   8.851
 7097WAT     H121533   8.986   4.196   8.758
 7097WAT     H221534   8.889   4.102   8.850
 7098WAT      O21535   2.171   2.878   8.430
 7098WAT     H121536   2.238   2.814   8.468
 7098WAT     H221537   2.195   2.898   8.335
 7099WAT      O21538   8.288   8.148   7.636
 7099WAT     H121539   8.191   8.166   7.649
 7099WAT     H221540   8.300   8.067   7.579
 7100WAT      O21541   5.456   0.462   2.848
 7100WAT     H121542   5.359   0.436   2.855
 7100WAT     H221543   5.492   0.481   2.940
 7101WAT      O21544   1.709   1.637   5.674
 7101WAT     H121545   1.640   1.564   5.672
 7101WAT     H221546   1.688   1.703   5.602
 7102WAT      O21547   3.331   2.675   7.976
 7102WAT     H121548   3.312   2.631   8.064
 7102WAT     H221549   3.361   2.607   7.910
 7103WAT      O21550   7.546   7.526   7.171
 7103WAT     H121551   7.640   7.537   7.136
 7103WAT     H221552   7.549   7.515   7.270
 7104WAT      O21553   2.723   7.515   2.967
 7104WAT     H121554   2.783   7.499   2.889
 7104WAT     H221555   2.628   7.512   2.938
 7105WAT      O21556   5.318   0.353   6.830
 7105WAT     H121557   5.324   0.326   6.734
 7105WAT     H221558   5.304   0.452   6.836
 7106WAT      O21559   9.208   7.099   5.134
 7106WAT     H121560   9.226   7.020   5.076
 7106WAT     H221561   9.125   7.145   5.102
 7107WAT      O21562   6.743   0.806   7.993
 7107WAT     H121563   6.718   0.803   8.090
 7107WAT     H221564   6.659   0.803   7.938
 7108WAT      O21565   6.793   2.625   0.555
 7108WAT     H121566   6.771   2.692   0.485
 7108WAT     H221567   6.767   2.660   0.645
 7109WAT      O21568   6.924   4.041   9.713
 7109WAT     H121569   6.875   3.983   9.778
 7109WAT     H221570   6.909   4.008   9.620
 7110WAT      O21571   9.385   4.975   8.102
 7110WAT     H121572   9.320   4.900   8.115
 7110WAT     H221573   9.367   5.020   8.015
 7111WAT      O21574   6.839   7.559   1.093
 7111WAT     H121575   6.938   7.544   1.099
 7111WAT     H221576   6.797   7.533   1.180
 7112WAT      O21577   2.864   8.879   2.605
 7112WAT     H121578   2.851   8.968   2.649
 7112WAT     H221579   2.961   8.865   2.586
 7113WAT      O21580   3.753   7.077   1.169
 7113WAT     H121581   3.810   7.051   1.091
 7113WAT     H221582   3.694   7.000   1.193
 7114WAT      O21583   7.048   2.623   7.439
 7114WAT     H121584   6.985   2.668   7.502
 7114WAT     H221585   7.061   2.528   7.467
 7115WAT      O21586   7.596   8.393   4.114
 7115WAT     H121587   7.655   8.344   4.178
 7115WAT     H221588   7.639   8.480   4.090
 7116WAT      O21589   1.421   6.291   6.503
 7116WAT     H121590   1.437   6.389   6.490
 7116WAT     H221591   1.394   6.275   6.598
 7117WAT      O21592   1.027   9.610   4.622
 7117WAT     H121593   1.044   9.549   4.544
 7117WAT     H221594   1.068   9.572   4.704
 7118WAT      O21595   5.947   4.550   0.694
 7118WAT     H121596   6.034   4.543   0.743
 7118WAT     H221597   5.873   4.520   0.753
 7119WAT      O21598   4.458   5.174   0.683
 7119WAT     H121599   4.386   5.243   0.680
 7119WAT     H221600   4.422   5.087   0.651
 7120WAT      O21601   1.729   1.316   8.913
 7120WAT     H121602   1.702   1.342   8.820
 7120WAT     H221603   1.668   1.244   8.946
 7121WAT      O21604   2.780   1.901   1.366
 7121WAT     H121605   2.691   1.858   1.348
 7121WAT     H221606   2.848   1.830   1.385
 7122WAT      O21607   2.021   3.806   2.875
 7122WAT     H121608   2.032   3.743   2.952
 7122WAT     H221609   2.111   3.840   2.847
 7123WAT      O21610   3.744   0.706   4.935
 7123WAT     H121611   3.786   0.759   4.861
 7123WAT     H221612   3.737   0.610   4.907
 7124WAT      O21613   7.042   5.382   9.755
 7124WAT     H121614   6.956   5.360   9.801
 7124WAT     H221615   7.099   5.437   9.816
 7125WAT      O21616   7.282   4.714   6.188
 7125WAT     H121617   7.286   4.808   6.221
 7125WAT     H221618   7.345   4.702   6.112
 7126WAT      O21619   1.300   7.354   5.048
 7126WAT     H121620   1.265   7.275   5.099
 7126WAT     H221621   1.305   7.331   4.951
 7127WAT      O21622   7.191   6.550   2.615
 7127WAT     H121623   7.226   6.473   2.561
 7127WAT     H221624   7.093   6.537   2.631
 7128WAT      O21625   0.644   4.493   4.834
 7128WAT     H121626   0.695   4.411   4.807
 7128WAT     H221627   0.676   4.571   4.781
 7129WAT      O21628   5.755   1.845   1.446
 7129WAT     H121629   5.802   1.918   1.494
 7129WAT     H221630   5.669   1.823   1.493
 7130WAT      O21631   6.013   2.154   9.063
 7130WAT     H121632   5.955   2.198   8.994
 7130WAT     H221633   6.109   2.173   9.042
 7131WAT      O21634   1.189   8.417   4.633
 7131WAT     H121635   1.274   8.470   4.629
 7131WAT     H221636   1.149   8.412   4.541
 7132WAT      O21637   4.945   7.141   7.925
 7132WAT     H121638   4.998   7.124   7.842
 7132WAT     H221639   4.943   7.238   7.945
 7133WAT      O21640   4.970   3.390   4.205
 7133WAT     H121641   5.047   3.366   4.146
 7133WAT     H221642   4.953   3.488   4.200
 7134WAT      O21643   1.408   5.976   0.873
 7134WAT     H121644   1.341   6.003   0.943
 7134WAT     H221645   1.359   5.941   0.793
 7135WAT      O21646   2.394   2.393   6.746
 7135WAT     H121647   2.452   2.459   6.699
 7135WAT     H221648   2.298   2.414   6.726
 7136WAT      O21649   7.289   5.877   4.091
 7136WAT     H121650   7.379   5.836   4.108
 7136WAT     H221651   7.300   5.958   4.034
 7137WAT      O21652   1.887   3.264   5.875
 7137WAT     H121653   1.986   3.270   5.882
 7137WAT     H221654   1.846   3.352   5.896
 7138WAT      O21655   3.129   3.681   7.645
 7138WAT     H121656   3.134   3.590   7.685
 7138WAT     H221657   3.174   3.746   7.707
 7139WAT      O21658   8.115   0.881   2.554
 7139WAT     H121659   8.151   0.848   2.466
 7139WAT     H221660   8.090   0.978   2.545
 7140WAT      O21661   3.500   1.849   6.711
 7140WAT     H121662   3.586   1.804   6.685
 7140WAT     H221663   3.473   1.912   6.638
 7141WAT      O21664   7.035   6.150   4.490
 7141WAT     H121665   6.960   6.091   4.461
 7141WAT     H221666   7.043   6.227   4.428
 7142WAT      O21667   5.769   6.783   4.882
 7142WAT     H121668   5.761   6.785   4.783
 7142WAT     H221669   5.725   6.864   4.921
 7143WAT      O21670   7.968   0.052   8.890
 7143WAT     H121671   7.890   0.100   8.850
 7143WAT     H221672   7.941  -0.041   8.916
 7144WAT      O21673   0.253   0.093   5.089
 7144WAT     H121674   0.245   0.055   4.997
 7144WAT     H221675   0.348   0.116   5.108
 7145WAT      O21676   1.998   8.756   4.424
 7145WAT     H121677   1.915   8.805   4.451
 7145WAT     H221678   1.975   8.684   4.358
 7146WAT      O21679   2.770   4.500   6.559
 7146WAT     H121680   2.740   4.562   6.486
 7146WAT     H221681   2.709   4.510   6.637
 7147WAT      O21682   3.688   8.871   4.437
 7147WAT     H121683   3.632   8.801   4.392
 7147WAT     H221684   3.640   8.959   4.433
 7148WAT      O21685   4.878   6.636   7.188
 7148WAT     H121686   4.880   6.638   7.088
 7148WAT     H221687   4.954   6.579   7.221
 7149WAT      O21688   5.277   3.465   5.600
 7149WAT     H121689   5.373   3.464   5.630
 7149WAT     H221690   5.268   3.409   5.518
 7150WAT      O21691   5.376   4.953   2.348
 7150WAT     H121692   5.455   4.992   2.301
 7150WAT     H221693   5.344   4.872   2.299
 7151WAT      O21694   2.432   7.386   6.618
 7151WAT     H121695   2.402   7.333   6.697
 7151WAT     H221696   2.480   7.468   6.650
 7152WAT      O21697   6.467   4.530   1.195
 7152WAT     H121698   6.493   4.516   1.290
 7152WAT     H221699   6.497   4.452   1.140
 7153WAT      O21700   3.482   2.501   3.371
 7153WAT     H121701   3.386   2.478   3.391
 7153WAT     H221702   3.508   2.460   3.284
 7154WAT      O21703   4.773   1.556   1.914
 7154WAT     H121704   4.815   1.516   1.832
 7154WAT     H221705   4.676   1.571   1.897
 7155WAT      O21706   1.741   0.423   4.146
 7155WAT     H121707   1.647   0.426   4.112
 7155WAT     H221708   1.803   0.456   4.075
 7156WAT      O21709   4.300   5.788   3.507
 7156WAT     H121710   4.312   5.696   3.543
 7156WAT     H221711   4.271   5.849   3.580
 7157WAT      O21712   8.579   5.701   6.665
 7157WAT     H121713   8.639   5.692   6.586
 7157WAT     H221714   8.520   5.620   6.672
 7158WAT      O21715   2.288   4.420   6.376
 7158WAT     H121716   2.287   4.473   6.461
 7158WAT     H221717   2.326   4.475   6.302
 7159WAT      O21718   8.365   1.818   4.026
 7159WAT     H121719   8.443   1.861   3.981
 7159WAT     H221720   8.290   1.884   4.033
 7160WAT      O21721   7.843   6.291   1.528
 7160WAT     H121722   7.806   6.247   1.610
 7160WAT     H221723   7.895   6.372   1.554
 7161WAT      O21724   4.827   1.385   1.401
 7161WAT     H121725   4.888   1.305   1.408
 7161WAT     H221726   4.860   1.446   1.329
 7162WAT      O21727   6.051   6.238   6.421
 7162WAT     H121728   6.061   6.144   6.388
 7162WAT     H221729   6.141   6.275   6.444
 7163WAT      O21730   7.944   0.809   2.784
 7163WAT     H121731   7.979   0.821   2.691
 7163WAT     H221732   8.010   0.758   2.838
 7164WAT      O21733   1.208   0.053   6.248
 7164WAT     H121734   1.277   0.045   6.320
 7164WAT     H221735   1.199  -0.034   6.200
 7165WAT      O21736   7.094   6.423   8.305
 7165WAT     H121737   7.153   6.417   8.386
 7165WAT     H221738   7.058   6.515   8.297
 7166WAT      O21739   7.535   7.379   1.886
 7166WAT     H121740   7.608   7.430   1.932
 7166WAT     H221741   7.507   7.302   1.944
 7167WAT      O21742   7.248   1.983   7.403
 7167WAT     H121743   7.341   1.982   7.438
 7167WAT     H221744   7.240   1.917   7.328
 7168WAT      O21745   0.266   3.583   2.415
 7168WAT     H121746   0.363   3.607   2.407
 7168WAT     H221747   0.238   3.529   2.336
 7169WAT      O21748   1.743   5.697   7.880
 7169WAT     H121749   1.790   5.676   7.965
 7169WAT     H221750   1.745   5.617   7.820
 7170WAT      O21751   2.714   5.080   0.474
 7170WAT     H121752   2.667   5.145   0.415
 7170WAT     H221753   2.688   5.095   0.569
 7171WAT      O21754   9.179   9.334   8.499
 7171WAT     H121755   9.220   9.284   8.423
 7171WAT     H221756   9.181   9.277   8.581
 7172WAT      O21757   8.268   2.925   6.123
 7172WAT     H121758   8.270   2.840   6.070
 7172WAT     H221759   8.213   2.992   6.074
 7173WAT      O21760   0.959   3.408   4.911
 7173WAT     H121761   1.041   3.462   4.890
 7173WAT     H221762   0.944   3.407   5.010
 7174WAT      O21763   0.995   7.321   6.132
 7174WAT     H121764   0.911   7.268   6.140
 7174WAT     H221765   1.068   7.277   6.185
 7175WAT      O21766   1.057   8.175   2.875
 7175WAT     H121767   1.066   8.259   2.822
 7175WAT     H221768   0.967   8.136   2.861
 7176WAT      O21769   1.652   7.309   1.371
 7176WAT     H121770   1.721   7.264   1.315
 7176WAT     H221771   1.667   7.408   1.370
 7177WAT      O21772   2.873   0.683   4.370
 7177WAT     H121773   2.801   0.698   4.302
 7177WAT     H221774   2.930   0.765   4.377
 7178WAT      O21775   8.774   5.252   4.376
 7178WAT     H121776   8.809   5.166   4.414
 7178WAT     H221777   8.754   5.315   4.451
 7179WAT      O21778   2.249   4.188   3.902
 7179WAT     H121779   2.313   4.254   3.864
 7179WAT     H221780   2.192   4.150   3.828
 7180WAT      O21781   5.946   2.727   1.688
 7180WAT     H121782   5.928   2.652   1.624
 7180WAT     H221783   6.022   2.783   1.655
 7181WAT      O21784   5.422   1.833   6.938
 7181WAT     H121785   5.421   1.928   6.970
 7181WAT     H221786   5.416   1.831   6.838
 7182WAT      O21787   0.698   4.605   2.255
 7182WAT     H121788   0.647   4.578   2.337
 7182WAT     H221789   0.785   4.644   2.283
 7183WAT      O21790   5.894   4.516   9.072
 7183WAT     H121791   5.987   4.552   9.072
 7183WAT     H221792   5.846   4.547   9.154
 7184WAT      O21793   5.385   2.459   5.395
 7184WAT     H121794   5.404   2.467   5.493
 7184WAT     H221795   5.369   2.362   5.373
 7185WAT      O21796   4.181   7.307   2.176
 7185WAT     H121797   4.113   7.335   2.243
 7185WAT     H221798   4.164   7.212   2.149
 7186WAT      O21799   0.420   8.322   1.989
 7186WAT     H121800   0.418   8.246   1.924
 7186WAT     H221801   0.353   8.304   2.062
 7187WAT      O21802   0.339   1.501   9.314
 7187WAT     H121803   0.434   1.470   9.322
 7187WAT     H221804   0.293   1.449   9.242
 7188WAT      O21805   6.982   5.567   5.285
 7188WAT     H121806   7.036   5.487   5.311
 7188WAT     H221807   7.041   5.648   5.285
 7189WAT      O21808   3.918   7.890   9.559
 7189WAT     H121809   3.914   7.982   9.522
 7189WAT     H221810   3.857   7.830   9.507
 7190WAT      O21811   8.292   9.723   9.440
 7190WAT     H121812   8.203   9.679   9.430
 7190WAT     H221813   8.292   9.778   9.524
 7191WAT      O21814   7.659   3.014   7.399
 7191WAT     H121815   7.694   3.072   7.473
 7191WAT     H221816   7.713   2.930   7.394
 7192WAT      O21817   5.251   3.838   9.733
 7192WAT     H121818   5.251   3.745   9.769
 7192WAT     H221819   5.172   3.851   9.673
 7193WAT      O21820   7.082   3.685   3.074
 7193WAT     H121821   7.064   3.590   3.099
 7193WAT     H221822   7.004   3.721   3.023
 7194WAT      O21823   2.346   7.249   4.829
 7194WAT     H121824   2.301   7.202   4.906
 7194WAT     H221825   2.411   7.316   4.865
 7195WAT      O21826   1.314   8.260   4.236
 7195WAT     H121827   1.386   8.192   4.231
 7195WAT     H221828   1.347   8.340   4.287
 7196WAT      O21829   6.847   4.720   8.208
 7196WAT     H121830   6.914   4.671   8.264
 7196WAT     H221831   6.784   4.655   8.166
 7197WAT      O21832   7.800   9.826   0.203
 7197WAT     H121833   7.796   9.857   0.298
 7197WAT     H221834   7.871   9.877   0.154
 7198WAT      O21835   1.909   9.198   9.663
 7198WAT     H121836   1.897   9.245   9.575
 7198WAT     H221837   1.979   9.128   9.654
 7199WAT      O21838   8.223   2.613   1.471
 7199WAT     H121839   8.232   2.519   1.504
 7199WAT     H221840   8.233   2.677   1.547
 7200WAT      O21841   3.714   5.057   7.211
 7200WAT     H121842   3.680   5.108   7.132
 7200WAT     H221843   3.701   5.110   7.294
 7201WAT      O21844   8.382   1.959   3.581
 7201WAT     H121845   8.431   1.874   3.600
 7201WAT     H221846   8.301   1.965   3.640
 7202WAT      O21847   4.756   0.629   7.854
 7202WAT     H121848   4.669   0.648   7.899
 7202WAT     H221849   4.831   0.666   7.909
 7203WAT      O21850   3.149   9.561   5.131
 7203WAT     H121851   3.161   9.584   5.228
 7203WAT     H221852   3.106   9.637   5.084
 7204WAT      O21853   7.643   1.797   7.305
 7204WAT     H121854   7.596   1.743   7.236
 7204WAT     H221855   7.692   1.873   7.262
 7205WAT      O21856   0.589   6.991   7.233
 7205WAT     H121857   0.591   7.012   7.135
 7205WAT     H221858   0.621   6.897   7.246
 7206WAT      O21859   9.329   7.502   7.497
 7206WAT     H121860   9.413   7.448   7.494
 7206WAT     H221861   9.285   7.491   7.586
 7207WAT      O21862   1.203   3.429   9.030
 7207WAT     H121863   1.214   3.388   8.940
 7207WAT     H221864   1.124   3.490   9.031
 7208WAT      O21865   2.490   9.494   2.156
 7208WAT     H121866   2.577   9.543   2.154
 7208WAT     H221867   2.456   9.483   2.063
 7209WAT      O21868   2.326   5.181   5.572
 7209WAT     H121869   2.372   5.235   5.501
 7209WAT     H221870   2.369   5.199   5.660
 7210WAT      O21871   2.437   4.547   5.999
 7210WAT     H121872   2.462   4.617   5.931
 7210WAT     H221873   2.422   4.590   6.088
 7211WAT      O21874   2.082   7.439   7.902
 7211WAT     H121875   2.059   7.533   7.926
 7211WAT     H221876   2.009   7.378   7.934
 7212WAT      O21877   1.315   6.509   2.875
 7212WAT     H121878   1.388   6.532   2.811
 7212WAT     H221879   1.345   6.530   2.968
 7213WAT      O21880   5.374   2.661   9.849
 7213WAT     H121881   5.282   2.636   9.820
 7213WAT     H221882   5.372   2.749   9.896
 7214WAT      O21883   4.179   3.131   4.155
 7214WAT     H121884   4.221   3.211   4.113
 7214WAT     H221885   4.248   3.080   4.207
 7215WAT      O21886   7.798   0.591   6.697
 7215WAT     H121887   7.723   0.655   6.681
 7215WAT     H221888   7.772   0.527   6.769
 7216WAT      O21889   5.540   6.352   0.698
 7216WAT     H121890   5.497   6.371   0.786
 7216WAT     H221891   5.521   6.258   0.670
 7217WAT      O21892   8.033   4.131   2.683
 7217WAT     H121893   8.028   4.228   2.707
 7217WAT     H221894   8.126   4.097   2.699
 7218WAT      O21895   0.644   2.390   2.987
 7218WAT     H121896   0.578   2.390   3.062
 7218WAT     H221897   0.618   2.460   2.920
 7219WAT      O21898   2.949   8.058   5.212
 7219WAT     H121899   2.889   7.987   5.249
 7219WAT     H221900   2.972   8.037   5.117
 7220WAT      O21901   5.287   5.576   9.593
 7220WAT     H121902   5.296   5.547   9.688
 7220WAT     H221903   5.275   5.676   9.590
 7221WAT      O21904   9.292   6.424   9.243
 7221WAT     H121905   9.244   6.456   9.162
 7221WAT     H221906   9.227   6.408   9.317
 7222WAT      O21907   1.754   5.257   3.255
 7222WAT     H121908   1.674   5.271   3.197
 7222WAT     H221909   1.734   5.290   3.348
 7223WAT      O21910   1.664   4.551   6.816
 7223WAT     H121911   1.728   4.503   6.755
 7223WAT     H221912   1.653   4.499   6.900
 7224WAT      O21913   2.125   7.819   8.196
 7224WAT     H121914   2.057   7.861   8.256
 7224WAT     H221915   2.217   7.836   8.231
 7225WAT      O21916   4.921   7.974   3.412
 7225WAT     H121917   5.012   7.952   3.379
 7225WAT     H221918   4.879   7.893   3.453
 7226WAT      O21919   6.773   4.270   5.920
 7226WAT     H121920   6.718   4.249   6.001
 7226WAT     H221921   6.794   4.185   5.872
 7227WAT      O21922   6.098   2.509   7.468
 7227WAT     H121923   6.071   2.413   7.456
 7227WAT     H221924   6.124   2.548   7.379
 7228WAT      O21925   3.409   4.429   1.957
 7228WAT     H121926   3.436   4.430   1.861
 7228WAT     H221927   3.374   4.339   1.982
 7229WAT      O21928   2.475   3.234   3.890
 7229WAT     H121929   2.434   3.167   3.952
 7229WAT     H221930   2.562   3.265   3.928
 7230WAT      O21931   4.001   6.215   7.989
 7230WAT     H121932   3.917   6.266   7.971
 7230WAT     H221933   4.072   6.244   7.926
 7231WAT      O21934   8.094   3.669   9.149
 7231WAT     H121935   8.078   3.631   9.240
 7231WAT     H221936   8.035   3.748   9.134
 7232WAT      O21937   5.850   5.339   2.714
 7232WAT     H121938   5.821   5.255   2.670
 7232WAT     H221939   5.949   5.351   2.702
 7233WAT      O21940   9.423   9.105   5.530
 7233WAT     H121941   9.376   9.194   5.536
 7233WAT     H221942   9.493   9.110   5.458
 7234WAT      O21943   5.811   5.177   5.420
 7234WAT     H121944   5.762   5.227   5.349
 7234WAT     H221945   5.759   5.096   5.446
 7235WAT      O21946   6.605   9.127   6.537
 7235WAT     H121947   6.590   9.098   6.631
 7235WAT     H221948   6.585   9.224   6.528
 7236WAT      O21949   2.022   6.947   7.532
 7236WAT     H121950   1.972   6.991   7.458
 7236WAT     H221951   2.008   6.997   7.617
 7237WAT      O21952   2.216   4.907   6.871
 7237WAT     H121953   2.253   4.814   6.869
 7237WAT     H221954   2.116   4.903   6.875
 7238WAT      O21955   7.313   4.381   5.003
 7238WAT     H121956   7.266   4.469   4.996
 7238WAT     H221957   7.411   4.396   4.992
 7239WAT      O21958   8.284   4.025   2.674
 7239WAT     H121959   8.366   4.040   2.729
 7239WAT     H221960   8.243   3.937   2.699
 7240WAT      O21961   7.516   3.003   0.136
 7240WAT     H121962   7.546   2.912   0.163
 7240WAT     H221963   7.471   3.048   0.214
 7241WAT      O21964   7.377   0.850   8.649
 7241WAT     H121965   7.355   0.900   8.566
 7241WAT     H221966   7.476   0.833   8.653
 7242WAT      O21967   7.554   9.791   6.442
 7242WAT     H121968   7.507   9.749   6.365
 7242WAT     H221969   7.515   9.759   6.527
 7243WAT      O21970   6.312   3.007   9.713
 7243WAT     H121971   6.409   3.028   9.725
 7243WAT     H221972   6.300   2.909   9.698
 7244WAT      O21973   0.878   7.286   5.712
 7244WAT     H121974   0.888   7.368   5.657
 7244WAT     H221975   0.951   7.283   5.781
 7245WAT      O21976   3.623   1.678   8.559
 7245WAT     H121977   3.566   1.752   8.595
 7245WAT     H221978   3.717   1.690   8.589
 7246WAT      O21979   9.335   8.038   6.665
 7246WAT     H121980   9.432   8.032   6.642
 7246WAT     H221981   9.299   7.946   6.682
 7247WAT      O21982   6.299   8.918   1.245
 7247WAT     H121983   6.312   8.868   1.158
 7247WAT     H221984   6.283   8.852   1.318
 7248WAT      O21985   1.321   0.639   5.455
 7248WAT     H121986   1.296   0.650   5.551
 7248WAT     H221987   1.351   0.545   5.438
 7249WAT      O21988   0.639   7.115   0.145
 7249WAT     H121989   0.655   7.046   0.075
 7249WAT     H221990   0.554   7.164   0.126
 7250WAT      O21991   9.061   2.704   4.707
 7250WAT     H121992   9.034   2.702   4.804
 7250WAT     H221993   8.988   2.666   4.651
 7251WAT      O21994   1.504   7.691   1.149
 7251WAT     H121995   1.548   7.673   1.061
 7251WAT     H221996   1.464   7.606   1.184
 7252WAT      O21997   8.874   7.221   2.280
 7252WAT     H121998   8.861   7.251   2.374
 7252WAT     H221999   8.953   7.267   2.240
 7253WAT      O22000   5.902   2.520   0.319
 7253WAT     H122001   5.885   2.589   0.389
 7253WAT     H222002   5.991   2.477   0.335
 7254WAT      O22003   5.950   4.899   2.427
 7254WAT     H122004   5.980   4.989   2.396
 7254WAT     H222005   5.998   4.828   2.375
 7255WAT      O22006   7.221   8.191   4.794
 7255WAT     H122007   7.163   8.213   4.872
 7255WAT     H222008   7.313   8.228   4.809
 7256WAT      O22009   4.805   3.487   9.710
 7256WAT     H122010   4.806   3.395   9.672
 7256WAT     H222011   4.819   3.482   9.809
 7257WAT      O22012   5.641   0.337   2.494
 7257WAT     H122013   5.735   0.348   2.463
 7257WAT     H222014   5.584   0.307   2.418
 7258WAT      O22015   6.444   0.242   0.672
 7258WAT     H122016   6.494   0.316   0.716
 7258WAT     H222017   6.427   0.169   0.738
 7259WAT      O22018   4.832   9.525   1.596
 7259WAT     H122019   4.920   9.492   1.632
 7259WAT     H222020   4.827   9.506   1.498
 7260WAT      O22021   3.559   1.799   3.598
 7260WAT     H122022   3.643   1.813   3.546
 7260WAT     H222023   3.494   1.872   3.577
 7261WAT      O22024   2.563   5.325   0.066
 7261WAT     H122025   2.621   5.348  -0.012
 7261WAT     H222026   2.473   5.365   0.053
 7262WAT      O22027   2.983   5.521   2.895
 7262WAT     H122028   3.061   5.563   2.850
 7262WAT     H222029   2.928   5.471   2.828
 7263WAT      O22030   3.720   5.582   3.791
 7263WAT     H122031   3.773   5.500   3.815
 7263WAT     H222032   3.628   5.574   3.831
 7264WAT      O22033   9.524   4.312   3.597
 7264WAT     H122034   9.437   4.359   3.614
 7264WAT     H222035   9.506   4.223   3.556
 7265WAT      O22036   6.708   6.809   4.928
 7265WAT     H122037   6.633   6.757   4.968
 7265WAT     H222038   6.715   6.897   4.974
 7266WAT      O22039   5.548   5.127   1.649
 7266WAT     H122040   5.587   5.143   1.558
 7266WAT     H222041   5.549   5.029   1.668
 7267WAT      O22042   0.418   7.904   4.589
 7267WAT     H122043   0.414   7.948   4.500
 7267WAT     H222044   0.504   7.927   4.634
 7268WAT      O22045   0.294   8.040   5.111
 7268WAT     H122046   0.308   8.078   5.019
 7268WAT     H222047   0.229   8.097   5.161
 7269WAT      O22048   0.080   0.337   9.581
 7269WAT     H122049   0.047   0.428   9.605
 7269WAT     H222050   0.007   0.270   9.594
 7270WAT      O22051   0.061   2.536   4.210
 7270WAT     H122052  -0.018   2.588   4.176
 7270WAT     H222053   0.047   2.515   4.307
 7271WAT      O22054   7.222   8.567   6.781
 7271WAT     H122055   7.126   8.565   6.753
 7271WAT     H222056   7.253   8.662   6.785
 7272WAT      O22057   3.682   3.889   8.847
 7272WAT     H122058   3.779   3.903   8.869
 7272WAT     H222059   3.628   3.960   8.890
 7273WAT      O22060   6.327   3.357   1.883
 7273WAT     H122061   6.284   3.416   1.952
 7273WAT     H222062   6.374   3.414   1.815
 7274WAT      O22063   4.866   8.758   9.219
 7274WAT     H122064   4.944   8.732   9.162
 7274WAT     H222065   4.813   8.677   9.243
 7275WAT      O22066   1.296   3.902   1.824
 7275WAT     H122067   1.379   3.880   1.773
 7275WAT     H222068   1.241   3.819   1.836
 7276WAT      O22069   8.653   2.325   7.238
 7276WAT     H122070   8.577   2.331   7.303
 7276WAT     H222071   8.666   2.413   7.193
 7277WAT      O22072   3.107   7.029   5.070
 7277WAT     H122073   3.129   7.116   5.026
 7277WAT     H222074   3.065   6.968   5.002
 7278WAT      O22075   5.394   2.111   6.076
 7278WAT     H122076   5.493   2.121   6.068
 7278WAT     H222077   5.354   2.195   6.113
 7279WAT      O22078   2.921   6.406   7.201
 7279WAT     H122079   2.912   6.501   7.233
 7279WAT     H222080   2.998   6.400   7.137
 7280WAT      O22081   8.624   1.630   6.418
 7280WAT     H122082   8.533   1.591   6.430
 7280WAT     H222083   8.617   1.717   6.369
 7281WAT      O22084   6.897   3.778   6.326
 7281WAT     H122085   6.865   3.870   6.302
 7281WAT     H222086   6.855   3.711   6.265
 7282WAT      O22087   7.472   1.253   9.348
 7282WAT     H122088   7.486   1.169   9.402
 7282WAT     H222089   7.553   1.271   9.294
 7283WAT      O22090   4.430   6.392   6.247
 7283WAT     H122091   4.373   6.338   6.185
 7283WAT     H222092   4.374   6.429   6.321
 7284WAT      O22093   7.711   7.145   4.703
 7284WAT     H122094   7.799   7.148   4.750
 7284WAT     H222095   7.696   7.231   4.655
 7285WAT      O22096   6.125   6.143   7.230
 7285WAT     H122097   6.186   6.125   7.308
 7285WAT     H222098   6.168   6.210   7.169
 7286WAT      O22099   2.019   8.497   9.392
 7286WAT     H122100   2.083   8.459   9.326
 7286WAT     H222101   2.071   8.538   9.468
 7287WAT      O22102   7.234   6.220   6.052
 7287WAT     H122103   7.235   6.250   5.957
 7287WAT     H222104   7.171   6.143   6.062
 7288WAT      O22105   1.754   4.351   1.880
 7288WAT     H122106   1.729   4.257   1.906
 7288WAT     H222107   1.768   4.355   1.781
 7289WAT      O22108   1.890   8.594   4.863
 7289WAT     H122109   1.939   8.587   4.777
 7289WAT     H222110   1.948   8.639   4.931
 7290WAT      O22111   7.173   3.581   5.032
 7290WAT     H122112   7.115   3.661   5.019
 7290WAT     H222113   7.268   3.610   5.043
 7291WAT      O22114   8.910   6.526   9.233
 7291WAT     H122115   8.931   6.623   9.248
 7291WAT     H222116   8.833   6.499   9.290
 7292WAT      O22117   3.425   5.426   7.380
 7292WAT     H122118   3.392   5.335   7.405
 7292WAT     H222119   3.376   5.495   7.434
 7293WAT      O22120   9.390   5.887   7.615
 7293WAT     H122121   9.401   5.894   7.714
 7293WAT     H222122   9.459   5.942   7.569
 7294WAT      O22123   0.991   3.126   1.962
 7294WAT     H122124   0.949   3.098   2.048
 7294WAT     H222125   1.004   3.046   1.903
 7295WAT      O22126   5.929   8.003   6.219
 7295WAT     H122127   5.865   8.033   6.148
 7295WAT     H222128   5.878   7.968   6.298
 7296WAT      O22129   6.159   5.555   8.955
 7296WAT     H122130   6.223   5.508   8.894
 7296WAT     H222131   6.192   5.549   9.049
 7297WAT      O22132   6.446   3.239   5.618
 7297WAT     H122133   6.356   3.200   5.597
 7297WAT     H222134   6.517   3.186   5.573
 7298WAT      O22135   5.377   8.860   5.177
 7298WAT     H122136   5.364   8.770   5.220
 7298WAT     H222137   5.393   8.928   5.249
 7299WAT      O22138   3.096   5.668   6.394
 7299WAT     H122139   3.017   5.723   6.420
 7299WAT     H222140   3.139   5.708   6.313
 7300WAT      O22141   3.184   9.285   6.346
 7300WAT     H122142   3.116   9.289   6.272
 7300WAT     H222143   3.269   9.327   6.314
 7301WAT      O22144   4.373   9.521   4.153
 7301WAT     H122145   4.439   9.595   4.141
 7301WAT     H222146   4.402   9.462   4.229
 7302WAT      O22147   1.531   0.091   0.193
 7302WAT     H122148   1.483   0.156   0.251
 7302WAT     H222149   1.603   0.046   0.245
 7303WAT      O22150   1.808   0.396   3.372
 7303WAT     H122151   1.787   0.432   3.281
 7303WAT     H222152   1.725   0.359   3.414
 7304WAT      O22153   2.248   8.244   7.609
 7304WAT     H122154   2.207   8.237   7.518
 7304WAT     H222155   2.213   8.170   7.667
 7305WAT      O22156   7.440   6.759   4.483
 7305WAT     H122157   7.458   6.661   4.495
 7305WAT     H222158   7.523   6.810   4.507
 7306WAT      O22159   5.252   7.066   9.567
 7306WAT     H122160   5.249   7.032   9.661
 7306WAT     H222161   5.175   7.029   9.515
 7307WAT      O22162   6.531   7.737   8.108
 7307WAT     H122163   6.454   7.699   8.159
 7307WAT     H222164   6.507   7.741   8.011
 7308WAT      O22165   6.072   9.601   4.705
 7308WAT     H122166   6.077   9.522   4.644
 7308WAT     H222167   6.062   9.569   4.800
 7309WAT      O22168   0.886   2.076   5.526
 7309WAT     H122169   0.849   1.984   5.538
 7309WAT     H222170   0.948   2.097   5.601
 7310WAT      O22171   7.022   1.745   6.619
 7310WAT     H122172   7.086   1.700   6.681
 7310WAT     H222173   6.958   1.800   6.673
 7311WAT      O22174   8.501   7.159   6.835
 7311WAT     H122175   8.595   7.144   6.805
 7311WAT     H222176   8.486   7.117   6.924
 7312WAT      O22177   4.617   6.626   4.311
 7312WAT     H122178   4.657   6.544   4.269
 7312WAT     H222179   4.679   6.663   4.380
 7313WAT      O22180   9.308   4.651   9.440
 7313WAT     H122181   9.357   4.681   9.522
 7313WAT     H222182   9.334   4.556   9.420
 7314WAT      O22183   2.659   2.963   9.155
 7314WAT     H122184   2.678   3.001   9.065
 7314WAT     H222185   2.561   2.965   9.172
 7315WAT      O22186   9.139   5.113   5.178
 7315WAT     H122187   9.225   5.075   5.212
 7315WAT     H222188   9.098   5.047   5.114
 7316WAT      O22189   8.007   8.253   1.392
 7316WAT     H122190   7.940   8.327   1.403
 7316WAT     H222191   8.053   8.262   1.304
 7317WAT      O22192   4.687   6.802   3.080
 7317WAT     H122193   4.651   6.799   2.987
 7317WAT     H222194   4.743   6.721   3.097
 7318WAT      O22195   2.701   5.500   4.312
 7318WAT     H122196   2.740   5.481   4.402
 7318WAT     H222197   2.681   5.598   4.304
 7319WAT      O22198   6.062   2.940   0.196
 7319WAT     H122199   5.973   2.930   0.241
 7319WAT     H222200   6.049   2.972   0.102
 7320WAT      O22201   8.186   6.043   2.723
 7320WAT     H122202   8.212   6.140   2.730
 7320WAT     H222203   8.126   6.020   2.800
 7321WAT      O22204   3.211   0.233   1.174
 7321WAT     H122205   3.217   0.202   1.268
 7321WAT     H222206   3.118   0.264   1.155
 7322WAT      O22207   4.570   3.942   6.278
 7322WAT     H122208   4.482   3.989   6.272
 7322WAT     H222209   4.596   3.908   6.187
 7323WAT      O22210   6.469   5.434   3.483
 7323WAT     H122211   6.458   5.525   3.443
 7323WAT     H222212   6.514   5.442   3.572
 7324WAT      O22213   4.494   7.460   8.561
 7324WAT     H122214   4.439   7.389   8.518
 7324WAT     H222215   4.447   7.493   8.643
 7325WAT      O22216   8.437   5.586   4.987
 7325WAT     H122217   8.362   5.608   5.049
 7325WAT     H222218   8.475   5.496   5.010
 7326WAT      O22219   0.836   5.637   7.872
 7326WAT     H122220   0.918   5.609   7.823
 7326WAT     H222221   0.854   5.634   7.970
 7327WAT      O22222   4.651   8.266   6.132
 7327WAT     H122223   4.749   8.267   6.150
 7327WAT     H222224   4.606   8.200   6.193
 7328WAT      O22225   5.706   7.634   6.712
 7328WAT     H122226   5.790   7.613   6.662
 7328WAT     H222227   5.654   7.550   6.727
 7329WAT      O22228   9.189   1.069   4.721
 7329WAT     H122229   9.124   1.094   4.650
 7329WAT     H222230   9.282   1.070   4.683
 7330WAT      O22231   7.210   3.429   6.148
 7330WAT     H122232   7.264   3.486   6.209
 7330WAT     H222233   7.172   3.484   6.074
 7331WAT      O22234   5.016   3.126   9.859
 7331WAT     H122235   5.033   3.055   9.928
 7331WAT     H222236   4.976   3.206   9.903
 7332WAT      O22237   1.330   3.641   1.156
 7332WAT     H122238   1.379   3.672   1.074
 7332WAT     H222239   1.299   3.547   1.142
 7333WAT      O22240   5.155   3.487   8.348
 7333WAT     H122241   5.204   3.548   8.286
 7333WAT     H222242   5.188   3.393   8.335
 7334WAT      O22243   0.084   4.876   0.181
 7334WAT     H122244   0.135   4.938   0.121
 7334WAT     H222245   0.059   4.923   0.265
 7335WAT      O22246   0.800   5.206   7.503
 7335WAT     H122247   0.836   5.113   7.494
 7335WAT     H222248   0.706   5.201   7.537
 7336WAT      O22249   0.698   2.603   6.142
 7336WAT     H122250   0.689   2.553   6.056
 7336WAT     H222251   0.645   2.688   6.137
 7337WAT      O22252   9.844   9.707   1.522
 7337WAT     H122253   9.778   9.774   1.555
 7337WAT     H222254   9.806   9.658   1.444
 7338WAT      O22255   8.828   7.670   1.976
 7338WAT     H122256   8.889   7.630   2.044
 7338WAT     H222257   8.735   7.634   1.989
 7339WAT      O22258   0.087   3.735   6.144
 7339WAT     H122259   0.006   3.774   6.188
 7339WAT     H222260   0.167   3.751   6.201
 7340WAT      O22261   8.604   2.518   7.023
 7340WAT     H122262   8.507   2.512   7.047
 7340WAT     H222263   8.616   2.507   6.925
 7341WAT      O22264   1.950   8.248   5.803
 7341WAT     H122265   1.966   8.193   5.721
 7341WAT     H222266   1.974   8.343   5.783
 7342WAT      O22267   7.394   7.713   7.045
 7342WAT     H122268   7.350   7.667   6.967
 7342WAT     H222269   7.445   7.645   7.098
 7343WAT      O22270   1.056   3.244   7.423
 7343WAT     H122271   1.097   3.251   7.514
 7343WAT     H222272   0.956   3.242   7.432
 7344WAT      O22273   5.801   3.949   8.336
 7344WAT     H122274   5.889   3.983   8.370
 7344WAT     H222275   5.806   3.850   8.325
 7345WAT      O22276   1.620   9.662   8.915
 7345WAT     H122277   1.568   9.733   8.867
 7345WAT     H222278   1.593   9.661   9.011
 7346WAT      O22279   9.425   6.709   9.721
 7346WAT     H122280   9.362   6.662   9.659
 7346WAT     H222281   9.372   6.755   9.793
 7347WAT      O22282   9.588   7.987   2.313
 7347WAT     H122283   9.567   7.995   2.216
 7347WAT     H222284   9.614   8.077   2.350
 7348WAT      O22285   9.782   8.943   4.023
 7348WAT     H122286   9.843   8.864   4.032
 7348WAT     H222287   9.767   8.984   4.113
 7349WAT      O22288   9.259   5.509   1.694
 7349WAT     H122289   9.342   5.460   1.722
 7349WAT     H222290   9.205   5.451   1.633
 7350WAT      O22291   4.862   3.153   2.193
 7350WAT     H122292   4.920   3.191   2.121
 7350WAT     H222293   4.916   3.093   2.252
 7351WAT      O22294   6.268   8.077   1.467
 7351WAT     H122295   6.298   7.981   1.462
 7351WAT     H222296   6.347   8.137   1.453
 7352WAT      O22297   8.138   3.942   5.105
 7352WAT     H122298   8.198   4.007   5.059
 7352WAT     H222299   8.051   3.937   5.056
 7353WAT      O22300   1.961   3.888   1.866
 7353WAT     H122301   2.019   3.807   1.874
 7353WAT     H222302   1.869   3.867   1.899
 7354WAT      O22303   3.973   7.901   8.281
 7354WAT     H122304   3.958   7.803   8.288
 7354WAT     H222305   4.015   7.923   8.194
 7355WAT      O22306   9.148   8.987   8.148
 7355WAT     H122307   9.103   8.906   8.112
 7355WAT     H222308   9.091   9.068   8.130
 7356WAT      O22309   5.618   1.668   2.711
 7356WAT     H122310   5.643   1.749   2.765
 7356WAT     H222311   5.639   1.685   2.615
 7357WAT      O22312   4.180   1.761   9.216
 7357WAT     H122313   4.115   1.817   9.165
 7357WAT     H222314   4.273   1.796   9.202
 7358WAT      O22315   6.233   2.719   2.601
 7358WAT     H122316   6.174   2.797   2.623
 7358WAT     H222317   6.319   2.752   2.563
 7359WAT      O22318   5.735   6.747   4.612
 7359WAT     H122319   5.643   6.709   4.604
 7359WAT     H222320   5.801   6.684   4.571
 7360WAT      O22321   0.669   7.214   0.856
 7360WAT     H122322   0.617   7.242   0.937
 7360WAT     H222323   0.757   7.260   0.855
 7361WAT      O22324   2.784   9.091   7.680
 7361WAT     H122325   2.874   9.089   7.637
 7361WAT     H222326   2.714   9.085   7.609
 7362WAT      O22327   7.834   1.753   2.324
 7362WAT     H122328   7.852   1.819   2.251
 7362WAT     H222329   7.917   1.739   2.377
 7363WAT      O22330   6.923   0.619   3.918
 7363WAT     H122331   6.893   0.529   3.952
 7363WAT     H222332   6.899   0.628   3.822
 7364WAT      O22333   4.230   6.522   4.085
 7364WAT     H122334   4.179   6.472   4.015
 7364WAT     H222335   4.271   6.458   4.149
 7365WAT      O22336   8.364   6.971   0.278
 7365WAT     H122337   8.273   7.011   0.278
 7365WAT     H222338   8.418   7.011   0.353
 7366WAT      O22339   4.135   9.216   7.021
 7366WAT     H122340   4.132   9.292   6.957
 7366WAT     H222341   4.080   9.140   6.986
 7367WAT      O22342   8.382   8.363   9.067
 7367WAT     H122343   8.351   8.445   9.115
 7367WAT     H222344   8.303   8.317   9.026
 7368WAT      O22345   3.318   5.072   5.824
 7368WAT     H122346   3.342   5.169   5.829
 7368WAT     H222347   3.233   5.061   5.772
 7369WAT      O22348   7.767   5.600   4.176
 7369WAT     H122349   7.795   5.507   4.150
 7369WAT     H222350   7.844   5.648   4.216
 7370WAT      O22351   3.940   6.666   4.044
 7370WAT     H122352   3.855   6.685   4.093
 7370WAT     H222353   3.919   6.649   3.947
 7371WAT      O22354   5.741   6.664   0.689
 7371WAT     H122355   5.788   6.582   0.657
 7371WAT     H222356   5.752   6.673   0.788
 7372WAT      O22357   3.172   7.573   3.947
 7372WAT     H122358   3.079   7.540   3.958
 7372WAT     H222359   3.170   7.668   3.913
 7373WAT      O22360   4.974   2.804   5.374
 7373WAT     H122361   4.962   2.884   5.315
 7373WAT     H222362   5.071   2.780   5.378
 7374WAT      O22363   7.868   7.923   5.446
 7374WAT     H122364   7.796   7.902   5.513
 7374WAT     H222365   7.848   7.876   5.360
 7375WAT      O22366   1.953   8.083   3.759
 7375WAT     H122367   2.020   8.019   3.796
 7375WAT     H222368   1.922   8.050   3.669
 7376WAT      O22369   9.442   8.841   1.392
 7376WAT     H122370   9.521   8.812   1.339
 7376WAT     H222371   9.363   8.783   1.368
 7377WAT      O22372   4.443   2.021   3.621
 7377WAT     H122373   4.421   1.974   3.536
 7377WAT     H222374   4.541   2.038   3.626
 7378WAT      O22375   6.161   5.351   1.316
 7378WAT     H122376   6.180   5.298   1.233
 7378WAT     H222377   6.245   5.394   1.348
 7379WAT      O22378   7.993   7.199   9.619
 7379WAT     H122379   8.059   7.198   9.544
 7379WAT     H222380   7.940   7.284   9.614
 7380WAT      O22381   4.219   3.896   7.671
 7380WAT     H122382   4.284   3.905   7.595
 7380WAT     H222383   4.243   3.815   7.726
 7381WAT      O22384   4.756   9.695   1.954
 7381WAT     H122385   4.683   9.627   1.950
 7381WAT     H222386   4.733   9.773   1.896
 7382WAT      O22387   5.703   8.051   0.868
 7382WAT     H122388   5.664   8.143   0.855
 7382WAT     H222389   5.722   8.010   0.779
 7383WAT      O22390   7.319   0.487   3.159
 7383WAT     H122391   7.356   0.395   3.144
 7383WAT     H222392   7.366   0.531   3.235
 7384WAT      O22393   4.293   7.192   3.130
 7384WAT     H122394   4.232   7.268   3.112
 7384WAT     H222395   4.385   7.215   3.099
 7385WAT      O22396   6.912   3.287   2.197
 7385WAT     H122397   6.867   3.302   2.109
 7385WAT     H222398   6.933   3.190   2.209
 7386WAT      O22399   9.626   2.495   5.655
 7386WAT     H122400   9.594   2.516   5.748
 7386WAT     H222401   9.655   2.580   5.610
 7387WAT      O22402   2.037   2.871   5.134
 7387WAT     H122403   2.068   2.784   5.171
 7387WAT     H222404   1.952   2.857   5.082
 7388WAT      O22405   2.750   0.761   2.287
 7388WAT     H122406   2.714   0.669   2.303
 7388WAT     H222407   2.678   0.828   2.304
 7389WAT      O22408   6.404   5.481   2.326
 7389WAT     H122409   6.459   5.559   2.293
 7389WAT     H222410   6.379   5.423   2.248
 7390WAT      O22411   7.476   5.531   1.906
 7390WAT     H122412   7.575   5.544   1.901
 7390WAT     H222413   7.447   5.464   1.837
 7391WAT      O22414   1.645   1.509   2.141
 7391WAT     H122415   1.736   1.538   2.113
 7391WAT     H222416   1.624   1.547   2.231
 7392WAT      O22417   1.370   2.180   4.607
 7392WAT     H122418   1.430   2.161   4.685
 7392WAT     H222419   1.274   2.168   4.635
 7393WAT      O22420   7.696   5.305   1.541
 7393WAT     H122421   7.754   5.386   1.528
 7393WAT     H222422   7.754   5.225   1.556
 7394WAT      O22423   1.652   5.959   8.131
 7394WAT     H122424   1.719   6.018   8.175
 7394WAT     H222425   1.643   5.874   8.183
 7395WAT      O22426   4.407   1.834   8.731
 7395WAT     H122427   4.441   1.778   8.807
 7395WAT     H222428   4.386   1.926   8.765
 7396WAT      O22429   9.751   1.460   2.701
 7396WAT     H122430   9.817   1.502   2.764
 7396WAT     H222431   9.658   1.474   2.737
 7397WAT      O22432   6.930   7.348   0.113
 7397WAT     H122433   6.948   7.279   0.183
 7397WAT     H222434   6.956   7.438   0.148
 7398WAT      O22435   0.160   6.295   4.120
 7398WAT     H122436   0.237   6.301   4.184
 7398WAT     H222437   0.190   6.251   4.036
 7399WAT      O22438   9.049   6.146   0.992
 7399WAT     H122439   8.981   6.109   1.055
 7399WAT     H222440   9.129   6.176   1.043
 7400WAT      O22441   4.396   1.973   0.522
 7400WAT     H122442   4.332   1.960   0.598
 7400WAT     H222443   4.446   2.058   0.535
 7401WAT      O22444   8.298   0.281   5.943
 7401WAT     H122445   8.234   0.241   5.877
 7401WAT     H222446   8.334   0.367   5.908
 7402WAT      O22447   8.594   9.573   9.813
 7402WAT     H122448   8.550   9.662   9.825
 7402WAT     H222449   8.545   9.504   9.865
 7403WAT      O22450   8.201   5.373   1.076
 7403WAT     H122451   8.285   5.411   1.038
 7403WAT     H222452   8.194   5.398   1.173
 7404WAT      O22453   6.400   9.191   8.628
 7404WAT     H122454   6.362   9.199   8.720
 7404WAT     H222455   6.358   9.260   8.568
 7405WAT      O22456   7.436   0.711   7.076
 7405WAT     H122457   7.384   0.736   7.157
 7405WAT     H222458   7.510   0.649   7.101
 7406WAT      O22459   9.142   3.675   0.334
 7406WAT     H122460   9.137   3.668   0.434
 7406WAT     H222461   9.229   3.718   0.308
 7407WAT      O22462   1.531   6.986   1.340
 7407WAT     H122463   1.504   6.891   1.355
 7407WAT     H222464   1.484   7.045   1.406
 7408WAT      O22465   9.187   4.047   4.399
 7408WAT     H122466   9.260   4.049   4.467
 7408WAT     H222467   9.187   4.132   4.347
 7409WAT      O22468   2.509   6.317   2.742
 7409WAT     H122469   2.477   6.244   2.803
 7409WAT     H222470   2.608   6.328   2.753
 7410WAT      O22471   2.450   5.741   8.115
 7410WAT     H122472   2.414   5.743   8.209
 7410WAT     H222473   2.503   5.825   8.099
 7411WAT      O22474   4.516   7.001   1.443
 7411WAT     H122475   4.588   6.958   1.498
 7411WAT     H222476   4.447   6.933   1.420
 7412WAT      O22477   3.560   9.729   3.514
 7412WAT     H122478   3.485   9.709   3.577
 7412WAT     H222479   3.561   9.661   3.440
 7413WAT      O22480   8.016   1.608   9.537
 7413WAT     H122481   7.954   1.595   9.614
 7413WAT     H222482   8.051   1.701   9.537
 7414WAT      O22483   4.923   1.472   0.513
 7414WAT     H122484   4.926   1.386   0.463
 7414WAT     H222485   4.993   1.472   0.584
 7415WAT      O22486   0.902   1.160   6.834
 7415WAT     H122487   0.856   1.165   6.923
 7415WAT     H222488   0.865   1.231   6.774
 7416WAT      O22489   6.300   6.119   2.197
 7416WAT     H122490   6.367   6.070   2.253
 7416WAT     H222491   6.212   6.121   2.244
 7417WAT      O22492   0.688   3.834   5.228
 7417WAT     H122493   0.696   3.800   5.322
 7417WAT     H222494   0.725   3.766   5.164
 7418WAT      O22495   9.464   2.772   7.381
 7418WAT     H122496   9.382   2.729   7.420
 7418WAT     H222497   9.531   2.787   7.453
 7419WAT      O22498   3.867   9.754   5.471
 7419WAT     H122499   3.929   9.825   5.503
 7419WAT     H222500   3.860   9.682   5.540
 7420WAT      O22501   3.844   4.950   9.128
 7420WAT     H122502   3.816   4.864   9.171
 7420WAT     H222503   3.778   5.021   9.149
 7421WAT      O22504   1.215   2.195   5.812
 7421WAT     H122505   1.297   2.235   5.853
 7421WAT     H222506   1.136   2.253   5.832
 7422WAT      O22507   7.512   5.398   2.755
 7422WAT     H122508   7.542   5.356   2.669
 7422WAT     H222509   7.495   5.326   2.822
 7423WAT      O22510   3.021   7.725   2.443
 7423WAT     H122511   3.088   7.661   2.481
 7423WAT     H222512   3.016   7.806   2.501
 7424WAT      O22513   7.972   8.759   0.770
 7424WAT     H122514   7.963   8.858   0.764
 7424WAT     H222515   7.904   8.716   0.712
 7425WAT      O22516   4.999   4.445   2.815
 7425WAT     H122517   4.965   4.532   2.850
 7425WAT     H222518   5.060   4.462   2.738
 7426WAT      O22519   9.001   0.767   5.201
 7426WAT     H122520   9.063   0.700   5.160
 7426WAT     H222521   8.978   0.738   5.293
 7427WAT      O22522   5.986   8.811   7.705
 7427WAT     H122523   6.045   8.808   7.786
 7427WAT     H222524   5.909   8.749   7.718
 7428WAT      O22525   4.669   9.791   5.832
 7428WAT     H122526   4.756   9.770   5.787
 7428WAT     H222527   4.596   9.794   5.763
 7429WAT      O22528   1.812   0.149   3.813
 7429WAT     H122529   1.828   0.088   3.891
 7429WAT     H222530   1.876   0.225   3.817
 7430WAT      O22531   4.557   2.076   5.607
 7430WAT     H122532   4.528   2.165   5.571
 7430WAT     H222533   4.491   2.006   5.580
 7431WAT      O22534   4.668   9.424   7.729
 7431WAT     H122535   4.679   9.524   7.730
 7431WAT     H222536   4.749   9.381   7.767
 7432WAT      O22537   8.313   2.333   8.234
 7432WAT     H122538   8.224   2.301   8.204
 7432WAT     H222539   8.306   2.368   8.328
 7433WAT      O22540   9.581   3.691   7.575
 7433WAT     H122541   9.536   3.698   7.664
 7433WAT     H222542   9.540   3.757   7.512
 7434WAT      O22543   6.388   3.311   0.585
 7434WAT     H122544   6.340   3.290   0.500
 7434WAT     H222545   6.475   3.354   0.565
 7435WAT      O22546   7.781   9.720   5.992
 7435WAT     H122547   7.754   9.816   5.981
 7435WAT     H222548   7.709   9.661   5.957
 7436WAT      O22549   3.174   2.128   1.766
 7436WAT     H122550   3.157   2.219   1.729
 7436WAT     H222551   3.102   2.105   1.831
 7437WAT      O22552   7.434   9.737   9.438
 7437WAT     H122553   7.469   9.824   9.404
 7437WAT     H222554   7.339   9.749   9.468
 7438WAT      O22555   4.744   6.286   5.775
 7438WAT     H122556   4.806   6.357   5.740
 7438WAT     H222557   4.669   6.329   5.825
 7439WAT      O22558   4.233   8.087   8.963
 7439WAT     H122559   4.251   8.072   8.866
 7439WAT     H222560   4.172   8.016   8.997
 7440WAT      O22561   1.971   9.643   2.303
 7440WAT     H122562   1.979   9.545   2.283
 7440WAT     H222563   1.877   9.664   2.332
 7441WAT      O22564   7.618   0.522   6.364
 7441WAT     H122565   7.608   0.614   6.325
 7441WAT     H222566   7.712   0.491   6.350
 7442WAT      O22567   0.266   9.222   4.219
 7442WAT     H122568   0.267   9.142   4.279
 7442WAT     H222569   0.358   9.262   4.216
 7443WAT      O22570   3.374   5.233   4.524
 7443WAT     H122571   3.332   5.283   4.447
 7443WAT     H222572   3.302   5.197   4.583
 7444WAT      O22573   0.897   8.057   0.755
 7444WAT     H122574   0.833   7.990   0.719
 7444WAT     H222575   0.991   8.028   0.735
 7445WAT      O22576   9.281   8.753   5.238
 7445WAT     H122577   9.330   8.821   5.185
 7445WAT     H222578   9.249   8.794   5.323
 7446WAT      O22579   4.359   3.709   2.763
 7446WAT     H122580   4.395   3.624   2.725
 7446WAT     H222581   4.377   3.785   2.700
 7447WAT      O22582   1.658   6.945   3.842
 7447WAT     H122583   1.656   7.045   3.845
 7447WAT     H222584   1.750   6.914   3.820
 7448WAT      O22585   4.136   5.159   4.046
 7448WAT     H122586   4.186   5.090   4.099
 7448WAT     H222587   4.159   5.250   4.080
 7449WAT      O22588   5.928   6.673   5.739
 7449WAT     H122589   5.997   6.724   5.791
 7449WAT     H222590   5.972   6.627   5.662
 7450WAT      O22591   4.331   6.671   9.438
 7450WAT     H122592   4.316   6.677   9.537
 7450WAT     H222593   4.329   6.575   9.411
 7451WAT      O22594   7.545   1.595   7.788
 7451WAT     H122595   7.573   1.613   7.883
 7451WAT     H222596   7.478   1.664   7.760
 7452WAT      O22597   3.126   6.474   1.424
 7452WAT     H122598   3.110   6.379   1.450
 7452WAT     H222599   3.222   6.497   1.438
 7453WAT      O22600   5.895   3.731   6.475
 7453WAT     H122601   5.809   3.768   6.440
 7453WAT     H222602   5.914   3.644   6.429
 7454WAT      O22603   8.523   6.069   9.450
 7454WAT     H122604   8.460   6.012   9.502
 7454WAT     H222605   8.563   6.016   9.376
 7455WAT      O22606   5.340   2.918   7.675
 7455WAT     H122607   5.337   2.962   7.765
 7455WAT     H222608   5.292   2.831   7.679
 7456WAT      O22609   1.328   0.168   9.225
 7456WAT     H122610   1.374   0.230   9.287
 7456WAT     H222611   1.350   0.073   9.249
 7457WAT      O22612   0.217   0.208   7.909
 7457WAT     H122613   0.191   0.113   7.894
 7457WAT     H222614   0.236   0.223   8.006
 7458WAT      O22615   4.732   7.817   0.240
 7458WAT     H122616   4.699   7.822   0.146
 7458WAT     H222617   4.749   7.722   0.264
 7459WAT      O22618   9.758   8.193   4.717
 7459WAT     H122619   9.804   8.168   4.632
 7459WAT     H222620   9.753   8.113   4.777
 7460WAT      O22621   8.966   4.795   8.834
 7460WAT     H122622   9.053   4.826   8.797
 7460WAT     H222623   8.941   4.851   8.913
 7461WAT      O22624   1.446   7.261   4.078
 7461WAT     H122625   1.523   7.260   4.142
 7461WAT     H222626   1.380   7.191   4.104
 7462WAT      O22627   8.671   1.388   9.472
 7462WAT     H122628   8.583   1.435   9.473
 7462WAT     H222629   8.740   1.444   9.517
 7463WAT      O22630   3.044   4.176   1.623
 7463WAT     H122631   3.008   4.083   1.618
 7463WAT     H222632   2.968   4.241   1.621
 7464WAT      O22633   1.043   7.815   0.078
 7464WAT     H122634   1.087   7.754   0.013
 7464WAT     H222635   1.096   7.899   0.087
 7465WAT      O22636   4.670   2.098   5.319
 7465WAT     H122637   4.572   2.106   5.306
 7465WAT     H222638   4.703   2.177   5.371
 7466WAT      O22639   5.882   0.317   5.854
 7466WAT     H122640   5.785   0.308   5.835
 7466WAT     H222641   5.910   0.246   5.919
 7467WAT      O22642   9.458   7.110   8.560
 7467WAT     H122643   9.483   7.101   8.463
 7467WAT     H222644   9.537   7.086   8.617
 7468WAT      O22645   1.002   7.996   0.316
 7468WAT     H122646   1.020   7.997   0.414
 7468WAT     H222647   0.952   8.080   0.291
 7469WAT      O22648   7.800   3.137   8.857
 7469WAT     H122649   7.810   3.110   8.953
 7469WAT     H222650   7.887   3.127   8.810
 7470WAT      O22651   2.392   0.225   5.356
 7470WAT     H122652   2.391   0.323   5.337
 7470WAT     H222653   2.428   0.209   5.448
 7471WAT      O22654   6.244   2.054   5.890
 7471WAT     H122655   6.150   2.078   5.913
 7471WAT     H222656   6.304   2.076   5.966
 7472WAT      O22657   2.767   0.855   0.572
 7472WAT     H122658   2.778   0.835   0.474
 7472WAT     H222659   2.857   0.858   0.615
 7473WAT      O22660   3.065   1.155   3.514
 7473WAT     H122661   3.121   1.095   3.458
 7473WAT     H222662   3.091   1.250   3.496
 7474WAT      O22663   2.804   3.936   5.634
 7474WAT     H122664   2.794   3.844   5.672
 7474WAT     H222665   2.870   3.987   5.689
 7475WAT      O22666   4.031   2.927   5.965
 7475WAT     H122667   4.009   2.970   5.878
 7475WAT     H222668   4.047   2.829   5.951
 7476WAT      O22669   9.432   7.782   9.147
 7476WAT     H122670   9.457   7.701   9.093
 7476WAT     H222671   9.515   7.828   9.177
 7477WAT      O22672   0.910   2.767   0.493
 7477WAT     H122673   0.825   2.818   0.477
 7477WAT     H222674   0.934   2.772   0.590
 7478WAT      O22675   1.305   9.213   5.006
 7478WAT     H122676   1.259   9.264   5.079
 7478WAT     H222677   1.319   9.118   5.036
 7479WAT      O22678   5.595   0.607   4.910
 7479WAT     H122679   5.586   0.689   4.853
 7479WAT     H222680   5.584   0.526   4.853
 7480WAT      O22681   8.287   5.491   1.851
 7480WAT     H122682   8.330   5.410   1.891
 7480WAT     H222683   8.242   5.543   1.924
 7481WAT      O22684   1.283   3.273   9.249
 7481WAT     H122685   1.336   3.221   9.181
 7481WAT     H222686   1.202   3.312   9.205
 7482WAT      O22687   9.660   6.175   7.165
 7482WAT     H122688   9.569   6.144   7.192
 7482WAT     H222689   9.716   6.097   7.137
 7483WAT      O22690   0.772   9.367   4.399
 7483WAT     H122691   0.868   9.385   4.421
 7483WAT     H222692   0.756   9.383   4.302
 7484WAT      O22693   1.249   5.420   4.163
 7484WAT     H122694   1.311   5.342   4.153
 7484WAT     H222695   1.299   5.505   4.146
 7485WAT      O22696   3.084   9.582   6.952
 7485WAT     H122697   3.025   9.536   7.019
 7485WAT     H222698   3.113   9.516   6.883
 7486WAT      O22699   2.924   1.755   8.161
 7486WAT     H122700   2.915   1.754   8.260
 7486WAT     H222701   3.006   1.704   8.134
 7487WAT      O22702   4.302   3.698   8.221
 7487WAT     H122703   4.245   3.642   8.161
 7487WAT     H222704   4.353   3.763   8.165
 7488WAT      O22705   7.664   1.995   8.473
 7488WAT     H122706   7.580   2.046   8.491
 7488WAT     H222707   7.641   1.902   8.444
 7489WAT      O22708   3.147   6.274   7.647
 7489WAT     H122709   3.190   6.294   7.558
 7489WAT     H222710   3.048   6.279   7.638
 7490WAT      O22711   7.729   5.120   5.404
 7490WAT     H122712   7.787   5.125   5.323
 7490WAT     H222713   7.647   5.176   5.389
 7491WAT      O22714   6.459   6.744   0.347
 7491WAT     H122715   6.458   6.659   0.400
 7491WAT     H222716   6.381   6.744   0.283
 7492WAT      O22717   6.677   6.151   6.269
 7492WAT     H122718   6.667   6.229   6.330
 7492WAT     H222719   6.758   6.163   6.212
 7493WAT      O22720   3.197   9.713   0.545
 7493WAT     H122721   3.134   9.696   0.621
 7493WAT     H222722   3.291   9.714   0.579
 7494WAT      O22723   5.605   9.312   1.262
 7494WAT     H122724   5.658   9.229   1.281
 7494WAT     H222725   5.586   9.359   1.348
 7495WAT      O22726   4.416   2.996   5.879
 7495WAT     H122727   4.372   3.044   5.955
 7495WAT     H222728   4.502   2.956   5.911
 7496WAT      O22729   7.234   5.838   7.450
 7496WAT     H122730   7.263   5.772   7.380
 7496WAT     H222731   7.170   5.793   7.513
 7497WAT      O22732   2.424   7.024   5.435
 7497WAT     H122733   2.435   7.106   5.379
 7497WAT     H222734   2.513   6.990   5.465
 7498WAT      O22735   0.356   1.026   4.416
 7498WAT     H122736   0.421   1.033   4.340
 7498WAT     H222737   0.319   1.116   4.437
 7499WAT      O22738   1.213   7.016   1.830
 7499WAT     H122739   1.127   7.025   1.781
 7499WAT     H222740   1.284   6.985   1.766
 7500WAT      O22741   6.668   9.417   3.152
 7500WAT     H122742   6.628   9.332   3.120
 7500WAT     H222743   6.604   9.464   3.213
 7501WAT      O22744   6.501   4.112   1.225
 7501WAT     H122745   6.464   4.128   1.317
 7501WAT     H222746   6.471   4.022   1.193
 7502WAT      O22747   9.115   1.377   2.426
 7502WAT     H122748   9.062   1.293   2.424
 7502WAT     H222749   9.054   1.455   2.432
 7503WAT      O22750   1.937   6.507   2.927
 7503WAT     H122751   2.015   6.507   2.990
 7503WAT     H222752   1.953   6.440   2.854
 7504WAT      O22753   9.207   7.249   2.343
 7504WAT     H122754   9.150   7.330   2.353
 7504WAT     H222755   9.291   7.261   2.395
 7505WAT      O22756   6.490   6.743   8.360
 7505WAT     H122757   6.477   6.678   8.285
 7505WAT     H222758   6.576   6.723   8.407
 7506WAT      O22759   5.443   3.016   1.148
 7506WAT     H122760   5.513   2.995   1.216
 7506WAT     H222761   5.444   2.946   1.076
 7507WAT      O22762   7.551   8.049   3.122
 7507WAT     H122763   7.552   7.970   3.060
 7507WAT     H222764   7.478   8.037   3.189
 7508WAT      O22765   0.252   3.183   2.955
 7508WAT     H122766   0.186   3.231   3.012
 7508WAT     H222767   0.294   3.109   3.007
 7509WAT      O22768   5.115   3.500   8.928
 7509WAT     H122769   5.084   3.445   8.850
 7509WAT     H222770   5.101   3.597   8.908
 7510WAT      O22771   1.726   7.551   1.471
 7510WAT     H122772   1.820   7.566   1.500
 7510WAT     H222773   1.675   7.504   1.543
 7511WAT      O22774   4.563   1.819   3.400
 7511WAT     H122775   4.542   1.725   3.374
 7511WAT     H222776   4.644   1.820   3.458
 7512WAT      O22777   1.395   0.151   8.143
 7512WAT     H122778   1.431   0.244   8.146
 7512WAT     H222779   1.349   0.136   8.056
 7513WAT      O22780   1.267   1.704   2.268
 7513WAT     H122781   1.248   1.796   2.302
 7513WAT     H222782   1.255   1.703   2.168
 7514WAT      O22783   7.733   9.137   7.598
 7514WAT     H122784   7.805   9.071   7.580
 7514WAT     H222785   7.733   9.207   7.526
 7515WAT      O22786   3.937   6.573   6.263
 7515WAT     H122787   4.024   6.562   6.215
 7515WAT     H222788   3.874   6.624   6.206
 7516WAT      O22789   6.512   2.521   9.009
 7516WAT     H122790   6.553   2.594   9.063
 7516WAT     H222791   6.558   2.515   8.921
 7517WAT      O22792   4.991   2.642   6.838
 7517WAT     H122793   4.950   2.643   6.928
 7517WAT     H222794   4.932   2.690   6.773
 7518WAT      O22795   8.361   6.447   4.997
 7518WAT     H122796   8.366   6.546   4.984
 7518WAT     H222797   8.266   6.420   5.011
 7519WAT      O22798   7.394   1.080   3.191
 7519WAT     H122799   7.481   1.124   3.210
 7519WAT     H222800   7.375   1.011   3.260
 7520WAT      O22801   2.591   5.794   2.585
 7520WAT     H122802   2.534   5.827   2.509
 7520WAT     H222803   2.667   5.857   2.599
 7521WAT      O22804   6.217   9.293   0.569
 7521WAT     H122805   6.208   9.366   0.502
 7521WAT     H222806   6.191   9.327   0.660
 7522WAT      O22807   3.126   1.040   5.396
 7522WAT     H122808   3.051   1.002   5.450
 7522WAT     H222809   3.153   1.128   5.435
 7523WAT      O22810   6.397   8.023   7.550
 7523WAT     H122811   6.423   7.935   7.509
 7523WAT     H222812   6.299   8.024   7.568
 7524WAT      O22813   7.245   5.695   9.570
 7524WAT     H122814   7.170   5.726   9.629
 7524WAT     H222815   7.292   5.775   9.532
 7525WAT      O22816   8.703   2.648   0.121
 7525WAT     H122817   8.646   2.731   0.117
 7525WAT     H222818   8.739   2.628   0.030
 7526WAT      O22819   8.448   8.086   1.321
 7526WAT     H122820   8.537   8.082   1.366
 7526WAT     H222821   8.442   8.016   1.251
 7527WAT      O22822   5.656   5.277   9.296
 7527WAT     H122823   5.721   5.278   9.371
 7527WAT     H222824   5.564   5.294   9.331
 7528WAT      O22825   2.056   5.714   4.467
 7528WAT     H122826   2.045   5.655   4.387
 7528WAT     H222827   2.103   5.663   4.540
 7529WAT      O22828   3.501   0.331   8.285
 7529WAT     H122829   3.469   0.271   8.211
 7529WAT     H222830   3.460   0.302   8.372
 7530WAT      O22831   5.536   9.177   2.420
 7530WAT     H122832   5.543   9.077   2.425
 7530WAT     H222833   5.475   9.202   2.344
 7531WAT      O22834   2.220   3.834   0.442
 7531WAT     H122835   2.156   3.868   0.511
 7531WAT     H222836   2.212   3.735   0.435
 7532WAT      O22837   1.200   8.045   7.904
 7532WAT     H122838   1.121   8.088   7.948
 7532WAT     H222839   1.185   8.040   7.805
 7533WAT      O22840   9.833   0.406   6.648
 7533WAT     H122841   9.841   0.371   6.742
 7533WAT     H222842   9.840   0.506   6.650
 7534WAT      O22843   0.401   1.522   4.688
 7534WAT     H122844   0.318   1.578   4.684
 7534WAT     H222845   0.378   1.426   4.669
 7535WAT      O22846   7.653   2.074   2.839
 7535WAT     H122847   7.569   2.120   2.809
 7535WAT     H222848   7.675   2.000   2.776
 7536WAT      O22849   4.468   5.714   9.854
 7536WAT     H122850   4.480   5.633   9.911
 7536WAT     H222851   4.511   5.793   9.899
 7537WAT      O22852   7.799   1.002   3.592
 7537WAT     H122853   7.880   0.975   3.540
 7537WAT     H222854   7.736   1.052   3.532
 7538WAT      O22855   0.230   4.034   4.708
 7538WAT     H122856   0.286   3.980   4.645
 7538WAT     H222857   0.286   4.104   4.752
 7539WAT      O22858   2.010   6.223   8.052
 7539WAT     H122859   1.934   6.168   8.018
 7539WAT     H222860   2.062   6.172   8.120
 7540WAT      O22861   1.291   8.060   5.617
 7540WAT     H122862   1.239   7.983   5.581
 7540WAT     H222863   1.388   8.048   5.594
 7541WAT      O22864   5.708   4.631   3.013
 7541WAT     H122865   5.749   4.552   3.058
 7541WAT     H222866   5.612   4.640   3.040
 7542WAT      O22867   0.005   6.378   5.850
 7542WAT     H122868  -0.026   6.358   5.943
 7542WAT     H222869  -0.035   6.313   5.786
 7543WAT      O22870   4.662   7.688   5.718
 7543WAT     H122871   4.583   7.731   5.762
 7543WAT     H222872   4.701   7.620   5.780
 7544WAT      O22873   2.630   3.224   6.365
 7544WAT     H122874   2.561   3.285   6.405
 7544WAT     H222875   2.690   3.190   6.437
 7545WAT      O22876   5.821   9.130   5.581
 7545WAT     H122877   5.887   9.057   5.564
 7545WAT     H222878   5.855   9.191   5.653
 7546WAT      O22879   7.535   2.898   2.916
 7546WAT     H122880   7.616   2.924   2.968
 7546WAT     H222881   7.562   2.870   2.824
 7547WAT      O22882   2.615   3.240   8.094
 7547WAT     H122883   2.703   3.208   8.129
 7547WAT     H222884   2.546   3.169   8.109
 7548WAT      O22885   7.635   8.244   2.784
 7548WAT     H122886   7.592   8.315   2.841
 7548WAT     H222887   7.728   8.227   2.817
 7549WAT      O22888   0.069   8.024   3.783
 7549WAT     H122889   0.060   8.096   3.851
 7549WAT     H222890   0.145   8.046   3.722
 7550WAT      O22891   0.198   6.006   7.317
 7550WAT     H122892   0.106   5.973   7.301
 7550WAT     H222893   0.204   6.047   7.408
 7551WAT      O22894   6.027   7.481   8.675
 7551WAT     H122895   6.069   7.399   8.714
 7551WAT     H222896   5.936   7.493   8.715
 7552WAT      O22897   1.828   9.835   4.051
 7552WAT     H122898   1.891   9.825   4.127
 7552WAT     H222899   1.735   9.846   4.085
 7553WAT      O22900   4.450   4.932   7.288
 7553WAT     H122901   4.374   4.995   7.270
 7553WAT     H222902   4.445   4.856   7.223
 7554WAT      O22903   6.535   1.926   3.478
 7554WAT     H122904   6.571   1.992   3.544
 7554WAT     H222905   6.582   1.838   3.490
 7555WAT      O22906   1.160   4.866   1.134
 7555WAT     H122907   1.127   4.938   1.196
 7555WAT     H222908   1.147   4.777   1.176
 7556WAT      O22909   8.842   7.070   6.240
 7556WAT     H122910   8.942   7.074   6.250
 7556WAT     H222911   8.803   7.160   6.258
 7557WAT      O22912   9.013   3.426   6.573
 7557WAT     H122913   9.064   3.445   6.657
 7557WAT     H222914   8.933   3.370   6.595
 7558WAT      O22915   5.651   6.942   1.192
 7558WAT     H122916   5.730   6.964   1.249
 7558WAT     H222917   5.623   6.848   1.208
 7559WAT      O22918   6.008   4.264   8.922
 7559WAT     H122919   5.942   4.330   8.886
 7559WAT     H222920   6.046   4.210   8.846
 7560WAT      O22921   6.178   2.184   2.114
 7560WAT     H122922   6.136   2.238   2.042
 7560WAT     H222923   6.252   2.128   2.075
 7561WAT      O22924   1.438   7.991   3.596
 7561WAT     H122925   1.445   7.894   3.571
 7561WAT     H222926   1.507   8.013   3.665
 7562WAT      O22927   0.225   7.198   5.576
 7562WAT     H122928   0.191   7.292   5.577
 7562WAT     H222929   0.307   7.193   5.520
 7563WAT      O22930   3.553   6.955   8.402
 7563WAT     H122931   3.458   6.985   8.411
 7563WAT     H222932   3.559   6.880   8.336
 7564WAT      O22933   2.900   9.510   5.546
 7564WAT     H122934   2.841   9.587   5.520
 7564WAT     H222935   2.866   9.427   5.503
 7565WAT      O22936   4.270   5.957   3.742
 7565WAT     H122937   4.288   5.927   3.835
 7565WAT     H222938   4.172   5.951   3.723
 7566WAT      O22939   8.215   8.134   9.471
 7566WAT     H122940   8.298   8.092   9.507
 7566WAT     H222941   8.138   8.112   9.532
 7567WAT      O22942   4.812   5.046   9.537
 7567WAT     H122943   4.900   5.024   9.579
 7567WAT     H222944   4.812   5.140   9.505
 7568WAT      O22945   0.177   4.218   5.477
 7568WAT     H122946   0.188   4.250   5.571
 7568WAT     H222947   0.082   4.191   5.462
 7569WAT      O22948   4.661   8.311   2.780
 7569WAT     H122949   4.673   8.309   2.681
 7569WAT     H222950   4.563   8.310   2.802
 7570WAT      O22951   5.381   8.234   0.006
 7570WAT     H122952   5.323   8.304  -0.035
 7570WAT     H222953   5.341   8.144  -0.009
 7571WAT      O22954   3.082   2.781   0.340
 7571WAT     H122955   3.099   2.832   0.256
 7571WAT     H222956   3.098   2.684   0.324
 7572WAT      O22957   0.520   0.105   8.907
 7572WAT     H122958   0.427   0.076   8.884
 7572WAT     H222959   0.519   0.157   8.992
 7573WAT      O22960   4.629   2.605   6.968
 7573WAT     H122961   4.623   2.652   6.880
 7573WAT     H222962   4.635   2.506   6.954
 7574WAT      O22963   9.362   6.861   7.992
 7574WAT     H122964   9.280   6.881   7.938
 7574WAT     H222965   9.442   6.901   7.948
 7575WAT      O22966   5.302   0.553   1.314
 7575WAT     H122967   5.328   0.649   1.303
 7575WAT     H222968   5.380   0.503   1.352
 7576WAT      O22969   3.563   1.211   2.563
 7576WAT     H122970   3.571   1.240   2.658
 7576WAT     H222971   3.653   1.213   2.519
 7577WAT      O22972   9.835   5.359   0.336
 7577WAT     H122973   9.800   5.301   0.409
 7577WAT     H222974   9.841   5.307   0.251
 7578WAT      O22975   2.865   8.499   1.161
 7578WAT     H122976   2.885   8.561   1.238
 7578WAT     H222977   2.799   8.430   1.189
 7579WAT      O22978   8.561   8.986   3.504
 7579WAT     H122979   8.529   9.014   3.595
 7579WAT     H222980   8.551   9.062   3.441
 7580WAT      O22981   1.888   4.524   9.850
 7580WAT     H122982   1.915   4.620   9.855
 7580WAT     H222983   1.967   4.468   9.828
 7581WAT      O22984   9.272   8.198   5.835
 7581WAT     H122985   9.251   8.230   5.927
 7581WAT     H222986   9.243   8.267   5.768
 7582WAT      O22987   7.119   7.141   4.839
 7582WAT     H122988   7.082   7.093   4.918
 7582WAT     H222989   7.219   7.132   4.837
 7583WAT      O22990   3.573   1.501   9.315
 7583WAT     H122991   3.660   1.522   9.272
 7583WAT     H222992   3.586   1.496   9.414
 7584WAT      O22993   1.950   0.832   2.481
 7584WAT     H122994   1.852   0.822   2.465
 7584WAT     H222995   1.971   0.928   2.500
 7585WAT      O22996   6.475   2.398   4.624
 7585WAT     H122997   6.558   2.345   4.607
 7585WAT     H222998   6.402   2.337   4.654
 7586WAT      O22999   7.832   1.166   7.744
 7586WAT     H123000   7.777   1.248   7.729
 7586WAT     H223001   7.771   1.089   7.763
 7587WAT      O23002   9.767   6.623   9.089
 7587WAT     H123003   9.818   6.599   9.007
 7587WAT     H223004   9.822   6.682   9.147
 7588WAT      O23005   6.703   7.956   2.851
 7588WAT     H123006   6.766   8.016   2.900
 7588WAT     H223007   6.708   7.974   2.753
 7589WAT      O23008   3.122   2.843   1.320
 7589WAT     H123009   3.101   2.914   1.253
 7589WAT     H223010   3.119   2.882   1.412
 7590WAT      O23011   0.262   9.642   4.232
 7590WAT     H123012   0.225   9.605   4.147
 7590WAT     H223013   0.239   9.582   4.308
 7591WAT      O23014   9.199   0.304   7.274
 7591WAT     H123015   9.158   0.365   7.342
 7591WAT     H223016   9.167   0.328   7.183
 7592WAT      O23017   1.895   9.390   4.443
 7592WAT     H123018   1.947   9.391   4.528
 7592WAT     H223019   1.887   9.484   4.409
 7593WAT      O23020   8.736   3.216   3.645
 7593WAT     H123021   8.648   3.263   3.641
 7593WAT     H223022   8.730   3.141   3.712
 7594WAT      O23023   2.619   8.322   2.191
 7594WAT     H123024   2.639   8.341   2.095
 7594WAT     H223025   2.646   8.229   2.214
 7595WAT      O23026   7.888   4.371   2.012
 7595WAT     H123027   7.902   4.463   2.050
 7595WAT     H223028   7.857   4.378   1.918
 7596WAT      O23029   7.686   5.223   4.463
 7596WAT     H123030   7.630   5.191   4.540
 7596WAT     H223031   7.627   5.249   4.387
 7597WAT      O23032   4.773   9.441   3.033
 7597WAT     H123033   4.766   9.525   2.979
 7597WAT     H223034   4.688   9.389   3.024
 7598WAT      O23035   0.329   6.783   4.173
 7598WAT     H123036   0.261   6.856   4.160
 7598WAT     H223037   0.353   6.777   4.270
 7599WAT      O23038   2.964   4.824   3.120
 7599WAT     H123039   3.018   4.907   3.105
 7599WAT     H223040   3.021   4.744   3.100
 7600WAT      O23041   0.901   8.252   8.699
 7600WAT     H123042   0.992   8.210   8.695
 7600WAT     H223043   0.906   8.346   8.668
 7601WAT      O23044   2.030   1.243   8.115
 7601WAT     H123045   2.035   1.208   8.209
 7601WAT     H223046   2.103   1.310   8.101
 7602WAT      O23047   4.665   2.623   3.987
 7602WAT     H123048   4.630   2.677   3.910
 7602WAT     H223049   4.610   2.640   4.068
 7603WAT      O23050   1.136   0.490   3.858
 7603WAT     H123051   1.104   0.395   3.860
 7603WAT     H223052   1.231   0.492   3.827
 7604WAT      O23053   1.297   0.571   4.387
 7604WAT     H123054   1.204   0.593   4.357
 7604WAT     H223055   1.362   0.603   4.320
 7605WAT      O23056   2.163   6.465   7.359
 7605WAT     H123057   2.077   6.414   7.353
 7605WAT     H223058   2.145   6.556   7.397
 7606WAT      O23059   3.009   7.127   5.779
 7606WAT     H123060   2.933   7.072   5.744
 7606WAT     H223061   2.973   7.211   5.821
 7607WAT      O23062   1.955   6.783   6.744
 7607WAT     H123063   1.889   6.852   6.775
 7607WAT     H223064   2.031   6.778   6.809
 7608WAT      O23065   4.281   6.481   8.686
 7608WAT     H123066   4.247   6.528   8.767
 7608WAT     H223067   4.326   6.547   8.626
 7609WAT      O23068   0.604   4.829   8.791
 7609WAT     H123069   0.504   4.831   8.796
 7609WAT     H223070   0.640   4.790   8.876
 7610WAT      O23071   0.291   9.738   5.696
 7610WAT     H123072   0.263   9.759   5.602
 7610WAT     H223073   0.267   9.644   5.718
 7611WAT      O23074   8.916   9.337   9.733
 7611WAT     H123075   9.004   9.314   9.693
 7611WAT     H223076   8.860   9.384   9.665
 7612WAT      O23077   8.052   6.613   3.795
 7612WAT     H123078   8.058   6.695   3.738
 7612WAT     H223079   8.035   6.533   3.737
 7613WAT      O23080   5.701   7.199   5.211
 7613WAT     H123081   5.709   7.219   5.309
 7613WAT     H223082   5.625   7.251   5.173
 7614WAT      O23083   4.643   3.139   4.635
 7614WAT     H123084   4.593   3.089   4.705
 7614WAT     H223085   4.599   3.228   4.620
 7615WAT      O23086   9.510   0.276   5.455
 7615WAT     H123087   9.415   0.263   5.427
 7615WAT     H223088   9.535   0.372   5.446
 7616WAT      O23089   3.550   8.339   6.037
 7616WAT     H123090   3.512   8.322   5.946
 7616WAT     H223091   3.612   8.264   6.061
 7617WAT      O23092   9.011   6.630   0.934
 7617WAT     H123093   8.968   6.707   0.888
 7617WAT     H223094   9.017   6.552   0.871
 7618WAT      O23095   9.662   6.531   1.533
 7618WAT     H123096   9.676   6.548   1.630
 7618WAT     H223097   9.637   6.617   1.488
 7619WAT      O23098   8.722   4.282   2.606
 7619WAT     H123099   8.673   4.210   2.557
 7619WAT     H223100   8.676   4.369   2.593
 7620WAT      O23101   6.406   6.444   1.047
 7620WAT     H123102   6.343   6.381   1.093
 7620WAT     H223103   6.361   6.533   1.035
 7621WAT      O23104   3.628   7.513   9.229
 7621WAT     H123105   3.702   7.542   9.291
 7621WAT     H223106   3.598   7.421   9.255
 7622WAT      O23107   3.146   6.315   7.086
 7622WAT     H123108   3.176   6.227   7.123
 7622WAT     H223109   3.223   6.359   7.039
 7623WAT      O23110   3.270   3.766   8.555
 7623WAT     H123111   3.194   3.707   8.585
 7623WAT     H223112   3.234   3.841   8.500
 7624WAT      O23113   5.865   8.543   7.017
 7624WAT     H123114   5.803   8.478   6.972
 7624WAT     H223115   5.953   8.542   6.971
 7625WAT      O23116   0.635   5.272   0.641
 7625WAT     H123117   0.663   5.235   0.552
 7625WAT     H223118   0.666   5.212   0.714
 7626WAT      O23119   9.224   5.627   5.952
 7626WAT     H123120   9.302   5.593   6.004
 7626WAT     H223121   9.237   5.605   5.855
 7627WAT      O23122   3.161   8.065   1.128
 7627WAT     H123123   3.135   8.140   1.067
 7627WAT     H223124   3.123   8.081   1.219
 7628WAT      O23125   8.251   3.551   5.285
 7628WAT     H123126   8.292   3.573   5.196
 7628WAT     H223127   8.179   3.617   5.306
 7629WAT      O23128   7.390   0.396   6.448
 7629WAT     H123129   7.317   0.465   6.448
 7629WAT     H223130   7.473   0.437   6.412
 7630WAT      O23131   4.498   2.494   1.113
 7630WAT     H123132   4.484   2.397   1.095
 7630WAT     H223133   4.593   2.519   1.093
 7631WAT      O23134   2.654   2.292   5.739
 7631WAT     H123135   2.727   2.223   5.736
 7631WAT     H223136   2.610   2.290   5.828
 7632WAT      O23137   4.357   0.745   8.517
 7632WAT     H123138   4.362   0.678   8.591
 7632WAT     H223139   4.436   0.807   8.524
 7633WAT      O23140   8.520   2.965   2.589
 7633WAT     H123141   8.473   2.899   2.647
 7633WAT     H223142   8.458   2.995   2.516
 7634WAT      O23143   6.272   1.437   5.043
 7634WAT     H123144   6.215   1.358   5.020
 7634WAT     H223145   6.291   1.489   4.960
 7635WAT      O23146   6.157   7.071   7.700
 7635WAT     H123147   6.192   6.985   7.662
 7635WAT     H223148   6.189   7.081   7.794
 7636WAT      O23149   4.636   6.260   5.487
 7636WAT     H123150   4.585   6.300   5.411
 7636WAT     H223151   4.574   6.243   5.564
 7637WAT      O23152   6.520   1.719   1.719
 7637WAT     H123153   6.430   1.735   1.679
 7637WAT     H223154   6.550   1.626   1.700
 7638WAT      O23155   2.587   2.083   2.196
 7638WAT     H123156   2.505   2.123   2.156
 7638WAT     H223157   2.581   1.983   2.194
 7639WAT      O23158   4.360   2.197   0.106
 7639WAT     H123159   4.358   2.286   0.153
 7639WAT     H223160   4.305   2.131   0.157
 7640WAT      O23161   9.872   1.699   4.721
 7640WAT     H123162   9.785   1.747   4.709
 7640WAT     H223163   9.926   1.746   4.791
 7641WAT      O23164   2.607   0.363   8.792
 7641WAT     H123165   2.630   0.312   8.709
 7641WAT     H223166   2.691   0.405   8.829
 7642WAT      O23167   7.086   7.579   0.203
 7642WAT     H123168   7.082   7.679   0.210
 7642WAT     H223169   7.112   7.540   0.291
 7643WAT      O23170   4.702   8.135   6.449
 7643WAT     H123171   4.757   8.052   6.453
 7643WAT     H223172   4.626   8.123   6.385
 7644WAT      O23173   4.952   3.155   9.025
 7644WAT     H123174   5.002   3.214   9.088
 7644WAT     H223175   4.962   3.189   8.932
 7645WAT      O23176   5.237   7.968   8.048
 7645WAT     H123177   5.297   7.941   7.973
 7645WAT     H223178   5.210   7.887   8.100
 7646WAT      O23179   2.425   5.777   7.431
 7646WAT     H123180   2.467   5.825   7.354
 7646WAT     H223181   2.480   5.697   7.454
 7647WAT      O23182   3.320   8.082   2.852
 7647WAT     H123183   3.393   8.144   2.881
 7647WAT     H223184   3.359   7.993   2.827
 7648WAT      O23185   2.311   6.817   8.602
 7648WAT     H123186   2.303   6.912   8.632
 7648WAT     H223187   2.273   6.808   8.509
 7649WAT      O23188   0.912   0.486   6.753
 7649WAT     H123189   0.915   0.565   6.815
 7649WAT     H223190   0.817   0.466   6.730
 7650WAT      O23191   3.088   6.273   3.905
 7650WAT     H123192   3.106   6.297   4.000
 7650WAT     H223193   3.025   6.340   3.866
 7651WAT      O23194   8.520   7.082   0.023
 7651WAT     H123195   8.494   7.062   0.117
 7651WAT     H223196   8.439   7.113  -0.028
 7652WAT      O23197   6.443   8.279   4.914
 7652WAT     H123198   6.370   8.212   4.903
 7652WAT     H223199   6.526   8.248   4.867
 7653WAT      O23200   1.273   7.832   0.858
 7653WAT     H123201   1.265   7.819   0.956
 7653WAT     H223202   1.280   7.743   0.813
 7654WAT      O23203   1.742   5.525   6.023
 7654WAT     H123204   1.798   5.478   5.954
 7654WAT     H223205   1.740   5.472   6.107
 7655WAT      O23206   4.225   6.801   0.869
 7655WAT     H123207   4.127   6.795   0.848
 7655WAT     H223208   4.260   6.710   0.890
 7656WAT      O23209   0.044   5.652   1.666
 7656WAT     H123210   0.044   5.662   1.567
 7656WAT     H223211   0.137   5.631   1.698
 7657WAT      O23212   0.521   3.956   9.285
 7657WAT     H123213   0.487   3.909   9.366
 7657WAT     H223214   0.615   3.986   9.301
 7658WAT      O23215   6.220   5.237   5.332
 7658WAT     H123216   6.226   5.138   5.338
 7658WAT     H223217   6.263   5.268   5.248
 7659WAT      O23218   3.732   9.479   9.745
 7659WAT     H123219   3.724   9.579   9.738
 7659WAT     H223220   3.770   9.443   9.660
 7660WAT      O23221   2.253   8.948   8.542
 7660WAT     H123222   2.186   8.876   8.561
 7660WAT     H223223   2.252   8.969   8.444
 7661WAT      O23224   7.660   3.795   2.245
 7661WAT     H123225   7.662   3.865   2.317
 7661WAT     H223226   7.649   3.705   2.287
 7662WAT      O23227   4.896   0.386   0.901
 7662WAT     H123228   4.816   0.439   0.873
 7662WAT     H223229   4.886   0.291   0.870
 7663WAT      O23230   1.416   0.353   6.796
 7663WAT     H123231   1.395   0.434   6.851
 7663WAT     H223232   1.341   0.335   6.733
 7664WAT      O23233   9.396   8.328   5.341
 7664WAT     H123234   9.322   8.389   5.311
 7664WAT     H223235   9.392   8.243   5.288
 7665WAT      O23236   9.238   3.292   0.834
 7665WAT     H123237   9.287   3.210   0.866
 7665WAT     H223238   9.168   3.265   0.768
 7666WAT      O23239   4.076   2.555   3.774
 7666WAT     H123240   4.140   2.478   3.777
 7666WAT     H223241   4.080   2.597   3.684
 7667WAT      O23242   5.373   8.491   6.763
 7667WAT     H123243   5.389   8.423   6.691
 7667WAT     H223244   5.384   8.583   6.725
 7668WAT      O23245   7.216   3.478   5.747
 7668WAT     H123246   7.217   3.540   5.669
 7668WAT     H223247   7.310   3.451   5.770
 7669WAT      O23248   8.832   3.116   2.442
 7669WAT     H123249   8.914   3.147   2.491
 7669WAT     H223250   8.756   3.178   2.462
 7670WAT      O23251   8.377   4.736   8.575
 7670WAT     H123252   8.360   4.724   8.673
 7670WAT     H223253   8.395   4.646   8.533
 7671WAT      O23254   6.029   6.202   4.671
 7671WAT     H123255   5.984   6.289   4.687
 7671WAT     H223256   6.073   6.204   4.581
 7672WAT      O23257   5.309   9.561   8.109
 7672WAT     H123258   5.209   9.556   8.105
 7672WAT     H223259   5.340   9.540   8.201
 7673WAT      O23260   3.584   4.458   1.291
 7673WAT     H123261   3.625   4.425   1.376
 7673WAT     H223262   3.543   4.382   1.241
 7674WAT      O23263   2.033   2.335   9.477
 7674WAT     H123264   2.027   2.250   9.424
 7674WAT     H223265   2.126   2.345   9.512
 7675WAT      O23266   7.236   7.757   2.353
 7675WAT     H123267   7.307   7.725   2.290
 7675WAT     H223268   7.179   7.681   2.381
 7676WAT      O23269   4.755   3.522   1.749
 7676WAT     H123270   4.788   3.432   1.719
 7676WAT     H223271   4.805   3.593   1.700
 7677WAT      O23272   9.742   0.166   9.584
 7677WAT     H123273   9.817   0.100   9.588
 7677WAT     H223274   9.659   0.123   9.620
 7678WAT      O23275   5.669   2.129   6.364
 7678WAT     H123276   5.697   2.081   6.281
 7678WAT     H223277   5.696   2.226   6.357
 7679WAT      O23278   5.456   6.395   0.106
 7679WAT     H123279   5.455   6.493   0.087
 7679WAT     H223280   5.547   6.358   0.087
 7680WAT      O23281   8.780   5.430   6.323
 7680WAT     H123282   8.823   5.371   6.391
 7680WAT     H223283   8.687   5.396   6.304
 7681WAT      O23284   2.090   5.331   0.989
 7681WAT     H123285   2.063   5.413   0.940
 7681WAT     H223286   2.010   5.292   1.035
 7682WAT      O23287   1.212   2.255   6.353
 7682WAT     H123288   1.159   2.340   6.351
 7682WAT     H223289   1.160   2.182   6.308
 7683WAT      O23290   3.982   5.293   7.981
 7683WAT     H123291   3.962   5.250   7.893
 7683WAT     H223292   4.081   5.303   7.991
 7684WAT      O23293   1.830   0.489   4.768
 7684WAT     H123294   1.787   0.399   4.762
 7684WAT     H223295   1.786   0.551   4.702
 7685WAT      O23296   0.629   0.397   0.300
 7685WAT     H123297   0.696   0.443   0.242
 7685WAT     H223298   0.660   0.399   0.395
 7686WAT      O23299   9.758   2.817   8.103
 7686WAT     H123300   9.699   2.893   8.128
 7686WAT     H223301   9.702   2.739   8.075
 7687WAT      O23302   9.592   1.588   0.494
 7687WAT     H123303   9.500   1.571   0.458
 7687WAT     H223304   9.631   1.501   0.524
 7688WAT      O23305   4.367   8.868   1.003
 7688WAT     H123306   4.311   8.950   0.994
 7688WAT     H223307   4.444   8.873   0.940
 7689WAT      O23308   0.216   9.384   1.582
 7689WAT     H123309   0.132   9.386   1.528
 7689WAT     H223310   0.225   9.469   1.633
 7690WAT      O23311   0.690   5.744   9.072
 7690WAT     H123312   0.621   5.695   9.018
 7690WAT     H223313   0.669   5.734   9.169
 7691WAT      O23314   7.090   6.278   6.331
 7691WAT     H123315   7.053   6.312   6.245
 7691WAT     H223316   7.056   6.185   6.347
 7692WAT      O23317   0.540   3.944   6.745
 7692WAT     H123318   0.475   3.893   6.688
 7692WAT     H223319   0.630   3.900   6.741
 7693WAT      O23320   4.801   9.825   3.509
 7693WAT     H123321   4.827   9.895   3.442
 7693WAT     H223322   4.838   9.849   3.598
 7694WAT      O23323   0.988   4.977   0.464
 7694WAT     H123324   0.942   4.912   0.404
 7694WAT     H223325   0.959   4.961   0.558
 7695WAT      O23326   2.890   9.250   8.439
 7695WAT     H123327   2.951   9.208   8.373
 7695WAT     H223328   2.796   9.252   8.403
 7696WAT      O23329   3.326   5.458   9.510
 7696WAT     H123330   3.244   5.509   9.483
 7696WAT     H223331   3.384   5.444   9.431
 7697WAT      O23332   7.565   9.349   4.159
 7697WAT     H123333   7.524   9.439   4.143
 7697WAT     H223334   7.591   9.341   4.255
 7698WAT      O23335   6.774   2.756   1.692
 7698WAT     H123336   6.683   2.762   1.652
 7698WAT     H223337   6.832   2.829   1.655
 7699WAT      O23338   7.181   4.137   0.263
 7699WAT     H123339   7.233   4.214   0.298
 7699WAT     H223340   7.118   4.168   0.192
 7700WAT      O23341   9.849   8.450   7.913
 7700WAT     H123342   9.930   8.501   7.939
 7700WAT     H223343   9.825   8.387   7.987
 7701WAT      O23344   8.758   5.355   9.543
 7701WAT     H123345   8.719   5.290   9.608
 7701WAT     H223346   8.856   5.365   9.560
 7702WAT      O23347   3.896   8.167   5.976
 7702WAT     H123348   3.923   8.222   6.056
 7702WAT     H223349   3.968   8.173   5.906
 7703WAT      O23350   3.902   1.763   8.657
 7703WAT     H123351   3.896   1.789   8.753
 7703WAT     H223352   3.939   1.670   8.651
 7704WAT      O23353   8.031   0.318   7.051
 7704WAT     H123354   8.089   0.374   6.994
 7704WAT     H223355   8.087   0.262   7.112
 7705WAT      O23356   9.111   6.234   9.628
 7705WAT     H123357   9.207   6.243   9.655
 7705WAT     H223358   9.077   6.144   9.657
 7706WAT      O23359   6.331   8.435   1.859
 7706WAT     H123360   6.310   8.524   1.900
 7706WAT     H223361   6.269   8.420   1.781
 7707WAT      O23362   6.648   6.397   6.350
 7707WAT     H123363   6.580   6.460   6.389
 7707WAT     H223364   6.709   6.448   6.289
 7708WAT      O23365   0.083   6.672   1.003
 7708WAT     H123366   0.139   6.604   1.050
 7708WAT     H223367   0.117   6.686   0.910
 7709WAT      O23368   2.962   5.453   4.260
 7709WAT     H123369   2.994   5.450   4.165
 7709WAT     H223370   2.863   5.440   4.262
 7710WAT      O23371   5.504   9.339   5.565
 7710WAT     H123372   5.570   9.413   5.569
 7710WAT     H223373   5.439   9.356   5.491
 7711WAT      O23374   5.794   2.220   4.714
 7711WAT     H123375   5.830   2.135   4.752
 7711WAT     H223376   5.706   2.202   4.669
 7712WAT      O23377   9.704   7.694   1.727
 7712WAT     H123378   9.739   7.781   1.763
 7712WAT     H223379   9.696   7.700   1.628
 7713WAT      O23380   6.148   1.182   2.257
 7713WAT     H123381   6.050   1.180   2.234
 7713WAT     H223382   6.197   1.239   2.192
 7714WAT      O23383   1.833   4.597   0.542
 7714WAT     H123384   1.867   4.562   0.454
 7714WAT     H223385   1.905   4.651   0.586
 7715WAT      O23386   8.630   4.035   5.673
 7715WAT     H123387   8.551   4.065   5.618
 7715WAT     H223388   8.702   4.104   5.668
 7716WAT      O23389   3.797   6.384   8.008
 7716WAT     H123390   3.757   6.387   7.917
 7716WAT     H223391   3.733   6.423   8.074
 7717WAT      O23392   1.471   0.166   2.258
 7717WAT     H123393   1.414   0.220   2.320
 7717WAT     H223394   1.436   0.073   2.253
 7718WAT      O23395   6.858   0.784   4.344
 7718WAT     H123396   6.818   0.701   4.305
 7718WAT     H223397   6.952   0.765   4.373
 7719WAT      O23398   4.982   6.945   5.997
 7719WAT     H123399   4.930   7.004   6.059
 7719WAT     H223400   4.980   6.985   5.905
 7720WAT      O23401   4.779   9.453   4.709
 7720WAT     H123402   4.769   9.377   4.645
 7720WAT     H223403   4.756   9.422   4.801
 7721WAT      O23404   7.461   7.870   5.194
 7721WAT     H123405   7.382   7.810   5.181
 7721WAT     H223406   7.536   7.841   5.135
 7722WAT      O23407   8.099   3.691   6.635
 7722WAT     H123408   8.005   3.662   6.656
 7722WAT     H223409   8.111   3.786   6.665
 7723WAT      O23410   5.812   8.942   6.629
 7723WAT     H123411   5.886   8.954   6.562
 7723WAT     H223412   5.770   8.853   6.616
 7724WAT      O23413   4.719   3.288   9.059
 7724WAT     H123414   4.712   3.323   8.966
 7724WAT     H223415   4.798   3.228   9.068
 7725WAT      O23416   9.345   1.371   7.803
 7725WAT     H123417   9.282   1.431   7.753
 7725WAT     H223418   9.360   1.287   7.751
 7726WAT      O23419   3.583   2.778   4.345
 7726WAT     H123420   3.586   2.876   4.367
 7726WAT     H223421   3.529   2.764   4.262
 7727WAT      O23422   9.777   6.829   7.613
 7727WAT     H123423   9.765   6.801   7.708
 7727WAT     H223424   9.844   6.769   7.569
 7728WAT      O23425   1.455   0.756   0.705
 7728WAT     H123426   1.382   0.688   0.709
 7728WAT     H223427   1.535   0.716   0.660
 7729WAT      O23428   5.101   3.470   6.793
 7729WAT     H123429   5.083   3.401   6.864
 7729WAT     H223430   5.019   3.483   6.738
 7730WAT      O23431   2.220   9.478   9.722
 7730WAT     H123432   2.139   9.444   9.769
 7730WAT     H223433   2.213   9.456   9.624
 7731WAT      O23434   0.524   7.294   0.633
 7731WAT     H123435   0.568   7.260   0.716
 7731WAT     H223436   0.520   7.394   0.636
 7732WAT      O23437   2.207   6.925   1.162
 7732WAT     H123438   2.270   6.920   1.239
 7732WAT     H223439   2.116   6.894   1.191
 7733WAT      O23440   6.776   5.325   0.854
 7733WAT     H123441   6.735   5.303   0.765
 7733WAT     H223442   6.770   5.423   0.870
 7734WAT      O23443   8.979   4.780   2.545
 7734WAT     H123444   9.047   4.726   2.594
 7734WAT     H223445   9.026   4.852   2.493
 7735WAT      O23446   4.765   2.463   8.039
 7735WAT     H123447   4.721   2.484   7.951
 7735WAT     H223448   4.776   2.364   8.048
 7736WAT      O23449   3.454   0.807   2.266
 7736WAT     H123450   3.426   0.902   2.282
 7736WAT     H223451   3.539   0.806   2.212
 7737WAT      O23452   6.834   7.311   7.772
 7737WAT     H123453   6.814   7.218   7.744
 7737WAT     H223454   6.835   7.318   7.872
 7738WAT      O23455   3.879   1.874   2.170
 7738WAT     H123456   3.852   1.779   2.153
 7738WAT     H223457   3.955   1.898   2.111
 7739WAT      O23458   5.362   3.221   1.367
 7739WAT     H123459   5.450   3.206   1.322
 7739WAT     H223460   5.290   3.221   1.298
 7740WAT      O23461   0.929   2.359   3.433
 7740WAT     H123462   0.901   2.352   3.337
 7740WAT     H223463   0.977   2.446   3.447
 7741WAT      O23464   0.009   8.530   2.051
 7741WAT     H123465  -0.003   8.436   2.083
 7741WAT     H223466   0.070   8.530   1.972
 7742WAT      O23467   6.625   1.533   5.925
 7742WAT     H123468   6.678   1.604   5.879
 7742WAT     H223469   6.685   1.456   5.947
 7743WAT      O23470   7.624   6.966   8.310
 7743WAT     H123471   7.586   6.882   8.270
 7743WAT     H223472   7.723   6.968   8.293
 7744WAT      O23473   7.570   4.603   1.938
 7744WAT     H123474   7.533   4.655   2.015
 7744WAT     H223475   7.587   4.508   1.966
 7745WAT      O23476   4.494   8.816   1.523
 7745WAT     H123477   4.395   8.833   1.517
 7745WAT     H223478   4.516   8.729   1.479
 7746WAT      O23479   0.145   6.180   0.646
 7746WAT     H123480   0.198   6.117   0.590
 7746WAT     H223481   0.065   6.212   0.594
 7747WAT      O23482   5.126   3.639   5.452
 7747WAT     H123483   5.042   3.592   5.423
 7747WAT     H223484   5.184   3.576   5.503
 7748WAT      O23485   2.671   3.545   4.424
 7748WAT     H123486   2.700   3.580   4.513
 7748WAT     H223487   2.586   3.590   4.396
 7749WAT      O23488   1.309   2.737   4.626
 7749WAT     H123489   1.352   2.649   4.611
 7749WAT     H223490   1.218   2.738   4.584
 7750WAT      O23491   8.105   2.398   0.768
 7750WAT     H123492   8.154   2.367   0.686
 7750WAT     H223493   8.053   2.480   0.746
 7751WAT      O23494   1.892   2.580   0.500
 7751WAT     H123495   1.803   2.595   0.456
 7751WAT     H223496   1.935   2.499   0.461
 7752WAT      O23497   4.377   2.738   0.760
 7752WAT     H123498   4.355   2.641   0.772
 7752WAT     H223499   4.413   2.774   0.845
 7753WAT      O23500   4.054   5.089   6.054
 7753WAT     H123501   4.045   5.149   6.133
 7753WAT     H223502   4.005   5.003   6.072
 7754WAT      O23503   5.781   8.150   5.534
 7754WAT     H123504   5.733   8.069   5.567
 7754WAT     H223505   5.776   8.222   5.604
 7755WAT      O23506   2.196   2.340   2.288
 7755WAT     H123507   2.204   2.264   2.352
 7755WAT     H223508   2.263   2.411   2.312
 7756WAT      O23509   6.135   5.380   4.224
 7756WAT     H123510   6.124   5.338   4.314
 7756WAT     H223511   6.232   5.396   4.206
 7757WAT      O23512   4.963   1.047   4.775
 7757WAT     H123513   4.953   1.143   4.799
 7757WAT     H223514   4.905   0.991   4.834
 7758WAT      O23515   2.267   8.822   4.498
 7758WAT     H123516   2.319   8.747   4.540
 7758WAT     H223517   2.179   8.788   4.466
 7759WAT      O23518   1.366   1.844   7.782
 7759WAT     H123519   1.432   1.882   7.846
 7759WAT     H223520   1.412   1.821   7.696
 7760WAT      O23521   6.599   7.846   5.032
 7760WAT     H123522   6.624   7.940   5.052
 7760WAT     H223523   6.674   7.785   5.058
 7761WAT      O23524   7.898   2.905   5.503
 7761WAT     H123525   7.860   2.897   5.411
 7761WAT     H223526   7.971   2.837   5.515
 7762WAT      O23527   8.511   7.957   0.319
 7762WAT     H123528   8.558   7.872   0.295
 7762WAT     H223529   8.576   8.019   0.363
 7763WAT      O23530   3.570   3.298   6.632
 7763WAT     H123531   3.639   3.349   6.682
 7763WAT     H223532   3.548   3.346   6.547
 7764WAT      O23533   5.611   2.459   3.392
 7764WAT     H123534   5.676   2.443   3.318
 7764WAT     H223535   5.659   2.496   3.471
 7765WAT      O23536   6.954   6.930   9.125
 7765WAT     H123537   6.959   6.844   9.074
 7765WAT     H223538   6.870   6.979   9.099
 7766WAT      O23539   7.659   8.238   8.494
 7766WAT     H123540   7.626   8.169   8.559
 7766WAT     H223541   7.709   8.309   8.544
 7767WAT      O23542   2.974   0.512   5.863
 7767WAT     H123543   3.023   0.538   5.780
 7767WAT     H223544   2.876   0.506   5.843
 7768WAT      O23545   0.735   1.395   4.880
 7768WAT     H123546   0.647   1.354   4.902
 7768WAT     H223547   0.792   1.329   4.831
 7769WAT      O23548   2.951   7.273   8.892
 7769WAT     H123549   2.927   7.177   8.906
 7769WAT     H223550   2.971   7.316   8.980
 7770WAT      O23551   4.432   8.268   6.424
 7770WAT     H123552   4.442   8.342   6.357
 7770WAT     H223553   4.407   8.307   6.513
 7771WAT      O23554   4.198   6.501   6.399
 7771WAT     H123555   4.148   6.438   6.459
 7771WAT     H223556   4.257   6.559   6.454
 7772WAT      O23557   1.170   2.942   7.068
 7772WAT     H123558   1.239   2.869   7.068
 7772WAT     H223559   1.110   2.930   7.147
 7773WAT      O23560   4.355   1.570   6.860
 7773WAT     H123561   4.351   1.522   6.773
 7773WAT     H223562   4.450   1.580   6.889
 7774WAT      O23563   4.098   6.113   5.776
 7774WAT     H123564   4.125   6.172   5.701
 7774WAT     H223565   4.014   6.065   5.753
 7775WAT      O23566   8.308   7.261   0.879
 7775WAT     H123567   8.213   7.283   0.860
 7775WAT     H223568   8.362   7.344   0.881
 7776WAT      O23569   0.558   0.007   4.779
 7776WAT     H123570   0.615   0.081   4.815
 7776WAT     H223571   0.574  -0.076   4.831
 7777WAT      O23572   4.125   2.594   8.739
 7777WAT     H123573   4.098   2.606   8.643
 7777WAT     H223574   4.045   2.600   8.798
 7778WAT      O23575   1.351   3.973   5.967
 7778WAT     H123576   1.313   4.040   6.031
 7778WAT     H223577   1.277   3.918   5.928
 7779WAT      O23578   6.584   5.747   6.957
 7779WAT     H123579   6.559   5.794   7.041
 7779WAT     H223580   6.664   5.791   6.917
 7780WAT      O23581   6.322   6.920   3.707
 7780WAT     H123582   6.330   6.957   3.799
 7780WAT     H223583   6.318   6.820   3.712
 7781WAT      O23584   7.406   7.518   0.564
 7781WAT     H123585   7.367   7.480   0.648
 7781WAT     H223586   7.498   7.551   0.582
 7782WAT      O23587   3.759   8.975   6.597
 7782WAT     H123588   3.851   8.978   6.636
 7782WAT     H223589   3.695   8.937   6.664
 7783WAT      O23590   5.297   4.096   4.815
 7783WAT     H123591   5.273   4.184   4.855
 7783WAT     H223592   5.274   4.023   4.879
 7784WAT      O23593   8.849   9.691   7.078
 7784WAT     H123594   8.910   9.701   6.999
 7784WAT     H223595   8.754   9.702   7.048
 7785WAT      O23596   7.337   8.870   1.525
 7785WAT     H123597   7.331   8.901   1.430
 7785WAT     H223598   7.422   8.818   1.538
 7786WAT      O23599   6.781   5.123   1.042
 7786WAT     H123600   6.795   5.212   0.999
 7786WAT     H223601   6.686   5.095   1.030
 7787WAT      O23602   4.001   2.133   0.407
 7787WAT     H123603   4.010   2.231   0.425
 7787WAT     H223604   4.020   2.082   0.492
 7788WAT      O23605   0.041   3.438   1.150
 7788WAT     H123606   0.074   3.367   1.088
 7788WAT     H223607   0.069   3.416   1.244
 7789WAT      O23608   9.520   1.425   2.846
 7789WAT     H123609   9.536   1.517   2.883
 7789WAT     H223610   9.422   1.411   2.834
 7790WAT      O23611   6.031   8.009   8.906
 7790WAT     H123612   6.056   7.976   8.997
 7790WAT     H223613   6.113   8.043   8.859
 7791WAT      O23614   0.029   0.595   3.907
 7791WAT     H123615  -0.001   0.504   3.936
 7791WAT     H223616   0.070   0.589   3.816
 7792WAT      O23617   0.025   8.641   8.805
 7792WAT     H123618   0.053   8.736   8.790
 7792WAT     H223619   0.044   8.616   8.900
 7793WAT      O23620   4.406   4.320   7.715
 7793WAT     H123621   4.308   4.319   7.735
 7793WAT     H223622   4.452   4.252   7.771
 7794WAT      O23623   2.273   3.482   4.377
 7794WAT     H123624   2.184   3.506   4.340
 7794WAT     H223625   2.320   3.420   4.314
 7795WAT      O23626   6.976   0.277   9.029
 7795WAT     H123627   6.997   0.302   9.123
 7795WAT     H223628   6.883   0.306   9.006
 7796WAT      O23629   4.135   4.020   1.058
 7796WAT     H123630   4.087   4.106   1.075
 7796WAT     H223631   4.221   4.040   1.010
 7797WAT      O23632   3.702   2.541   2.310
 7797WAT     H123633   3.731   2.634   2.288
 7797WAT     H223634   3.778   2.493   2.354
 7798WAT      O23635   9.284   0.801   3.413
 7798WAT     H123636   9.218   0.816   3.486
 7798WAT     H223637   9.377   0.798   3.451
 7799WAT      O23638   5.423   0.109   0.217
 7799WAT     H123639   5.338   0.058   0.201
 7799WAT     H223640   5.487   0.091   0.143
 7800WAT      O23641   4.777   0.977   3.759
 7800WAT     H123642   4.681   0.977   3.787
 7800WAT     H223643   4.831   0.924   3.824
 7801WAT      O23644   2.700   4.686   6.387
 7801WAT     H123645   2.618   4.739   6.412
 7801WAT     H223646   2.767   4.747   6.345
 7802WAT      O23647   4.150   4.391   7.793
 7802WAT     H123648   4.100   4.397   7.706
 7802WAT     H223649   4.156   4.482   7.834
 7803WAT      O23650   2.906   4.601   3.829
 7803WAT     H123651   2.929   4.625   3.735
 7803WAT     H223652   2.911   4.501   3.839
 7804WAT      O23653   3.748   6.574   9.797
 7804WAT     H123654   3.696   6.501   9.842
 7804WAT     H223655   3.715   6.587   9.704
 7805WAT      O23656   7.743   0.854   7.202
 7805WAT     H123657   7.784   0.893   7.284
 7805WAT     H223658   7.737   0.924   7.131
 7806WAT      O23659   0.929   0.275   2.634
 7806WAT     H123660   0.983   0.278   2.719
 7806WAT     H223661   0.954   0.193   2.582
 7807WAT      O23662   2.879   8.625   6.756
 7807WAT     H123663   2.944   8.700   6.750
 7807WAT     H223664   2.917   8.545   6.710
 7808WAT      O23665   9.247   3.084   3.092
 7808WAT     H123666   9.217   3.063   3.185
 7808WAT     H223667   9.341   3.120   3.095
 7809WAT      O23668   4.577   3.605   6.632
 7809WAT     H123669   4.582   3.506   6.641
 7809WAT     H223670   4.627   3.633   6.549
 7810WAT      O23671   1.575   9.138   8.999
 7810WAT     H123672   1.506   9.086   8.949
 7810WAT     H223673   1.529   9.208   9.054
 7811WAT      O23674   8.403   5.264   6.793
 7811WAT     H123675   8.465   5.194   6.757
 7811WAT     H223676   8.345   5.299   6.720
 7812WAT      O23677   9.651   7.272   6.513
 7812WAT     H123678   9.681   7.232   6.600
 7812WAT     H223679   9.719   7.339   6.482
 7813WAT      O23680   8.477   4.600   7.896
 7813WAT     H123681   8.425   4.535   7.840
 7813WAT     H223682   8.529   4.549   7.965
 7814WAT      O23683   9.207   5.309   1.507
 7814WAT     H123684   9.165   5.278   1.422
 7814WAT     H223685   9.297   5.266   1.518
 7815WAT      O23686   6.288   3.920   8.570
 7815WAT     H123687   6.291   3.822   8.550
 7815WAT     H223688   6.361   3.966   8.521
 7816WAT      O23689   0.101   5.096   5.188
 7816WAT     H123690   0.182   5.104   5.246
 7816WAT     H223691   0.122   5.036   5.110
 7817WAT      O23692   7.437   4.941   6.918
 7817WAT     H123693   7.387   4.906   6.838
 7817WAT     H223694   7.529   4.900   6.920
 7818WAT      O23695   8.516   3.317   1.612
 7818WAT     H123696   8.564   3.400   1.583
 7818WAT     H223697   8.576   3.238   1.600
 7819WAT      O23698   9.308   1.620   8.794
 7819WAT     H123699   9.272   1.576   8.712
 7819WAT     H223700   9.233   1.668   8.841
 7820WAT      O23701   3.427   6.710   4.657
 7820WAT     H123702   3.518   6.691   4.622
 7820WAT     H223703   3.420   6.806   4.685
 7821WAT      O23704   5.130   1.867   8.934
 7821WAT     H123705   5.079   1.951   8.916
 7821WAT     H223706   5.136   1.852   9.033
 7822WAT      O23707   5.323   5.769   7.759
 7822WAT     H123708   5.261   5.811   7.693
 7822WAT     H223709   5.297   5.797   7.852
 7823WAT      O23710   1.120   1.981   7.792
 7823WAT     H123711   1.203   1.926   7.782
 7823WAT     H223712   1.146   2.075   7.816
 7824WAT      O23713   8.712   6.582   3.802
 7824WAT     H123714   8.674   6.660   3.852
 7824WAT     H223715   8.725   6.608   3.706
 7825WAT      O23716   4.044   5.416   3.473
 7825WAT     H123717   4.105   5.475   3.527
 7825WAT     H223718   3.951   5.452   3.480
 7826WAT      O23719   4.405   5.746   5.927
 7826WAT     H123720   4.377   5.650   5.931
 7826WAT     H223721   4.440   5.774   6.017
 7827WAT      O23722   0.487   7.804   6.466
 7827WAT     H123723   0.500   7.897   6.431
 7827WAT     H223724   0.454   7.745   6.392
 7828WAT      O23725   8.194   4.903   2.547
 7828WAT     H123726   8.164   4.862   2.460
 7828WAT     H223727   8.215   5.000   2.533
 7829WAT      O23728   8.996   9.121   4.582
 7829WAT     H123729   8.949   9.193   4.634
 7829WAT     H223730   9.002   9.149   4.486
 7830WAT      O23731   4.468   0.968   6.396
 7830WAT     H123732   4.564   0.971   6.425
 7830WAT     H223733   4.433   1.062   6.389
 7831WAT      O23734   3.658   5.180   9.077
 7831WAT     H123735   3.559   5.168   9.071
 7831WAT     H223736   3.696   5.184   8.984
 7832WAT      O23737   0.136   0.781   1.657
 7832WAT     H123738   0.195   0.713   1.614
 7832WAT     H223739   0.152   0.871   1.615
 7833WAT      O23740   2.846   4.974   3.310
 7833WAT     H123741   2.898   4.912   3.250
 7833WAT     H223742   2.749   4.952   3.305
 7834WAT      O23743   4.551   0.249   2.715
 7834WAT     H123744   4.475   0.309   2.686
 7834WAT     H223745   4.618   0.244   2.641
 7835WAT      O23746   5.060   5.339   8.106
 7835WAT     H123747   4.988   5.367   8.170
 7835WAT     H223748   5.139   5.305   8.157
 7836WAT      O23749   3.542   3.659   3.572
 7836WAT     H123750   3.608   3.612   3.513
 7836WAT     H223751   3.449   3.640   3.540
 7837WAT      O23752   5.765   0.229   1.472
 7837WAT     H123753   5.751   0.259   1.377
 7837WAT     H223754   5.676   0.214   1.516
 7838WAT      O23755   6.308   2.194   0.428
 7838WAT     H123756   6.402   2.216   0.399
 7838WAT     H223757   6.246   2.208   0.350
 7839WAT      O23758   7.929   9.141   2.702
 7839WAT     H123759   7.834   9.110   2.700
 7839WAT     H223760   7.930   9.241   2.704
 7840WAT      O23761   7.196   3.996   7.617
 7840WAT     H123762   7.126   4.067   7.623
 7840WAT     H223763   7.284   4.034   7.648
 7841WAT      O23764   2.738   9.400   1.637
 7841WAT     H123765   2.667   9.331   1.643
 7841WAT     H223766   2.774   9.420   1.728
 7842WAT      O23767   0.795   0.806   0.829
 7842WAT     H123768   0.831   0.788   0.920
 7842WAT     H223769   0.700   0.835   0.836
 7843WAT      O23770   4.134   2.458   0.917
 7843WAT     H123771   4.061   2.401   0.953
 7843WAT     H223772   4.160   2.526   0.986
 7844WAT      O23773   5.389   8.456   6.034
 7844WAT     H123774   5.364   8.436   6.129
 7844WAT     H223775   5.466   8.520   6.033
 7845WAT      O23776   8.302   2.740   6.727
 7845WAT     H123777   8.297   2.658   6.784
 7845WAT     H223778   8.268   2.819   6.779
 7846WAT      O23779   0.571   2.343   5.715
 7846WAT     H123780   0.617   2.335   5.627
 7846WAT     H223781   0.520   2.259   5.734
 7847WAT      O23782   3.659   3.783   4.346
 7847WAT     H123783   3.654   3.684   4.327
 7847WAT     H223784   3.656   3.798   4.444
 7848WAT      O23785   1.528   4.344   5.690
 7848WAT     H123786   1.585   4.267   5.719
 7848WAT     H223787   1.571   4.388   5.611
 7849WAT      O23788   6.820   7.819   6.506
 7849WAT     H123789   6.798   7.917   6.509
 7849WAT     H223790   6.768   7.775   6.433
 7850WAT      O23791   1.016   5.326   5.461
 7850WAT     H123792   0.933   5.312   5.514
 7850WAT     H223793   1.096   5.314   5.520
 7851WAT      O23794   4.104   3.504   7.004
 7851WAT     H123795   4.160   3.459   7.074
 7851WAT     H223796   4.091   3.600   7.029
 7852WAT      O23797   8.220   0.827   8.305
 7852WAT     H123798   8.155   0.777   8.362
 7852WAT     H223799   8.177   0.910   8.271
 7853WAT      O23800   9.376   8.953   3.418
 7853WAT     H123801   9.295   8.922   3.368
 7853WAT     H223802   9.426   9.020   3.363
 7854WAT      O23803   8.104   2.520   8.310
 7854WAT     H123804   8.079   2.507   8.214
 7854WAT     H223805   8.029   2.565   8.358
 7855WAT      O23806   9.270   6.960   6.429
 7855WAT     H123807   9.178   6.974   6.465
 7855WAT     H223808   9.306   6.873   6.464
 7856WAT      O23809   0.370   0.471   6.572
 7856WAT     H123810   0.349   0.554   6.521
 7856WAT     H223811   0.293   0.408   6.566
 7857WAT      O23812   5.020   0.996   2.812
 7857WAT     H123813   4.973   0.909   2.823
 7857WAT     H223814   4.969   1.068   2.859
 7858WAT      O23815   6.719   6.882   2.714
 7858WAT     H123816   6.649   6.952   2.729
 7858WAT     H223817   6.728   6.826   2.796
 7859WAT      O23818   5.848   0.057   2.851
 7859WAT     H123819   5.919   0.034   2.784
 7859WAT     H223820   5.760   0.021   2.820
 7860WAT      O23821   7.735   0.178   8.761
 7860WAT     H123822   7.692   0.188   8.671
 7860WAT     H223823   7.675   0.213   8.832
 7861WAT      O23824   5.624   7.126   8.807
 7861WAT     H123825   5.557   7.059   8.840
 7861WAT     H223826   5.607   7.215   8.849
 7862WAT      O23827   0.774   6.264   8.657
 7862WAT     H123828   0.738   6.284   8.565
 7862WAT     H223829   0.802   6.349   8.700
 7863WAT      O23830   5.362   7.616   5.187
 7863WAT     H123831   5.329   7.523   5.204
 7863WAT     H223832   5.377   7.663   5.274
 7864WAT      O23833   5.614   8.255   1.304
 7864WAT     H123834   5.523   8.252   1.345
 7864WAT     H223835   5.621   8.185   1.233
 7865WAT      O23836   8.188   5.366   0.513
 7865WAT     H123837   8.195   5.414   0.426
 7865WAT     H223838   8.116   5.298   0.508
 7866WAT      O23839   7.369   9.249   8.951
 7866WAT     H123840   7.326   9.178   9.006
 7866WAT     H223841   7.298   9.310   8.915
 7867WAT      O23842   4.611   1.342   2.257
 7867WAT     H123843   4.684   1.357   2.324
 7867WAT     H223844   4.560   1.259   2.282
 7868WAT      O23845   0.350   0.838   5.677
 7868WAT     H123846   0.416   0.828   5.603
 7868WAT     H223847   0.337   0.936   5.697
 7869WAT      O23848   6.227   1.164   2.713
 7869WAT     H123849   6.197   1.224   2.787
 7869WAT     H223850   6.238   1.071   2.747
 7870WAT      O23851   0.296   8.042   0.965
 7870WAT     H123852   0.318   8.035   1.063
 7870WAT     H223853   0.199   8.023   0.952
 7871WAT      O23854   1.238   4.601   3.897
 7871WAT     H123855   1.275   4.653   3.819
 7871WAT     H223856   1.226   4.506   3.870
 7872WAT      O23857   5.942   5.703   6.400
 7872WAT     H123858   5.867   5.694   6.335
 7872WAT     H223859   5.947   5.622   6.458
 7873WAT      O23860   0.509   8.521   2.528
 7873WAT     H123861   0.533   8.607   2.484
 7873WAT     H223862   0.440   8.539   2.599
 7874WAT      O23863   4.510   8.136   1.831
 7874WAT     H123864   4.429   8.181   1.867
 7874WAT     H223865   4.555   8.084   1.904
 7875WAT      O23866   9.319   1.873   0.630
 7875WAT     H123867   9.311   1.919   0.541
 7875WAT     H223868   9.250   1.800   0.636
 7876WAT      O23869   0.055   2.971   5.840
 7876WAT     H123870  -0.042   2.963   5.816
 7876WAT     H223871   0.094   2.879   5.850
 7877WAT      O23872   5.282   8.043   6.893
 7877WAT     H123873   5.258   7.958   6.941
 7877WAT     H223874   5.340   8.022   6.815
 7878WAT      O23875   9.453   1.907   9.015
 7878WAT     H123876   9.393   1.859   8.951
 7878WAT     H223877   9.443   2.006   9.002
 7879WAT      O23878   6.513   9.054   9.186
 7879WAT     H123879   6.524   9.100   9.275
 7879WAT     H223880   6.526   8.956   9.198
 7880WAT      O23881   5.534   7.891   2.410
 7880WAT     H123882   5.534   7.947   2.493
 7880WAT     H223883   5.621   7.842   2.403
 7881WAT      O23884   9.314   2.713   5.382
 7881WAT     H123885   9.324   2.620   5.345
 7881WAT     H223886   9.400   2.764   5.368
 7882WAT      O23887   0.210   1.964   0.099
 7882WAT     H123888   0.166   2.003   0.180
 7882WAT     H223889   0.279   2.028   0.065
 7883WAT      O23890   7.459   6.860   2.257
 7883WAT     H123891   7.423   6.810   2.336
 7883WAT     H223892   7.385   6.876   2.191
 7884WAT      O23893   5.823   3.077   8.507
 7884WAT     H123894   5.913   3.038   8.491
 7884WAT     H223895   5.831   3.158   8.564
 7885WAT      O23896   5.955   9.160   6.006
 7885WAT     H123897   5.959   9.181   5.908
 7885WAT     H223898   5.863   9.130   6.030
 7886WAT      O23899   8.660   9.530   4.347
 7886WAT     H123900   8.666   9.430   4.351
 7886WAT     H223901   8.743   9.570   4.386
 7887WAT      O23902   9.146   2.837   6.960
 7887WAT     H123903   9.078   2.850   7.033
 7887WAT     H223904   9.238   2.839   7.000
 7888WAT      O23905   3.747   5.653   8.136
 7888WAT     H123906   3.781   5.699   8.055
 7888WAT     H223907   3.750   5.554   8.122
 7889WAT      O23908   5.002   3.088   8.396
 7889WAT     H123909   5.013   3.029   8.315
 7889WAT     H223910   5.024   3.036   8.478
 7890WAT      O23911   8.046   1.404   1.396
 7890WAT     H123912   7.997   1.340   1.455
 7890WAT     H223913   8.087   1.353   1.320
 7891WAT      O23914   8.528   4.105   2.873
 7891WAT     H123915   8.567   4.197   2.871
 7891WAT     H223916   8.591   4.043   2.919
 7892WAT      O23917   4.133   4.813   7.197
 7892WAT     H123918   4.104   4.817   7.101
 7892WAT     H223919   4.159   4.719   7.220
 7893WAT      O23920   6.253   7.988   1.745
 7893WAT     H123921   6.163   8.017   1.712
 7893WAT     H223922   6.323   8.013   1.677
 7894WAT      O23923   4.459   2.755   7.934
 7894WAT     H123924   4.394   2.797   7.871
 7894WAT     H223925   4.469   2.812   8.015
 7895WAT      O23926   0.354   5.440   8.236
 7895WAT     H123927   0.359   5.471   8.141
 7895WAT     H223928   0.273   5.479   8.280
 7896WAT      O23929   1.403   7.448   1.230
 7896WAT     H123930   1.454   7.362   1.233
 7896WAT     H223931   1.388   7.481   1.323
 7897WAT      O23932   7.429   4.772   0.439
 7897WAT     H123933   7.424   4.695   0.503
 7897WAT     H223934   7.507   4.758   0.377
 7898WAT      O23935   6.746   5.346   1.411
 7898WAT     H123936   6.737   5.420   1.477
 7898WAT     H223937   6.839   5.343   1.376
 7899WAT      O23938   8.943   4.635   8.122
 7899WAT     H123939   8.994   4.570   8.179
 7899WAT     H223940   8.907   4.588   8.042
 7900WAT      O23941   5.120   2.580   5.814
 7900WAT     H123942   5.115   2.678   5.798
 7900WAT     H223943   5.080   2.531   5.737
 7901WAT      O23944   1.704   4.386   0.854
 7901WAT     H123945   1.676   4.383   0.758
 7901WAT     H223946   1.733   4.478   0.877
 7902WAT      O23947   8.818   8.949   3.409
 7902WAT     H123948   8.812   9.008   3.329
 7902WAT     H223949   8.730   8.946   3.455
 7903WAT      O23950   1.748   8.633   1.701
 7903WAT     H123951   1.670   8.676   1.654
 7903WAT     H223952   1.771   8.686   1.782
 7904WAT      O23953   5.051   0.786   9.206
 7904WAT     H123954   5.127   0.722   9.201
 7904WAT     H223955   5.042   0.833   9.118
 7905WAT      O23956   1.539   0.148   5.192
 7905WAT     H123957   1.461   0.210   5.205
 7905WAT     H223958   1.541   0.081   5.267
 7906WAT      O23959   4.408   1.466   1.167
 7906WAT     H123960   4.365   1.402   1.103
 7906WAT     H223961   4.469   1.416   1.228
 7907WAT      O23962   8.240   8.873   9.171
 7907WAT     H123963   8.333   8.908   9.173
 7907WAT     H223964   8.240   8.774   9.186
 7908WAT      O23965   9.439   9.585   5.650
 7908WAT     H123966   9.380   9.658   5.617
 7908WAT     H223967   9.528   9.591   5.605
 7909WAT      O23968   7.004   8.613   0.433
 7909WAT     H123969   6.919   8.560   0.427
 7909WAT     H223970   7.063   8.591   0.356
 7910WAT      O23971   6.585   4.976   3.617
 7910WAT     H123972   6.532   4.898   3.649
 7910WAT     H223973   6.546   5.060   3.655
 7911WAT      O23974   7.159   4.436   6.457
 7911WAT     H123975   7.191   4.350   6.415
 7911WAT     H223976   7.075   4.465   6.412
 7912WAT      O23977   1.402   4.975   1.111
 7912WAT     H123978   1.454   4.944   1.191
 7912WAT     H223979   1.313   4.929   1.109
 7913WAT      O23980   4.687   1.879   0.631
 7913WAT     H123981   4.601   1.869   0.580
 7913WAT     H223982   4.757   1.917   0.570
 7914WAT      O23983   0.351   3.686   3.169
 7914WAT     H123984   0.285   3.614   3.150
 7914WAT     H223985   0.324   3.770   3.121
 7915WAT      O23986   6.276   2.858   5.435
 7915WAT     H123987   6.339   2.803   5.379
 7915WAT     H223988   6.183   2.845   5.401
 7916WAT      O23989   4.110   0.064   7.642
 7916WAT     H123990   4.151   0.041   7.554
 7916WAT     H223991   4.011   0.064   7.634
 7917WAT      O23992   3.251   7.284   3.669
 7917WAT     H123993   3.293   7.348   3.733
 7917WAT     H223994   3.185   7.226   3.717
 7918WAT      O23995   5.603   4.801   3.331
 7918WAT     H123996   5.558   4.724   3.377
 7918WAT     H223997   5.702   4.793   3.342
 7919WAT      O23998   3.020   7.966   4.950
 7919WAT     H123999   3.104   7.912   4.947
 7919WAT     H224000   2.983   7.975   4.858
 7920WAT      O24001   9.638   3.394   9.363
 7920WAT     H124002   9.725   3.354   9.336
 7920WAT     H224003   9.640   3.493   9.348
 7921WAT      O24004   4.331   1.980   4.793
 7921WAT     H124005   4.410   1.957   4.735
 7921WAT     H224006   4.350   2.065   4.842
 7922WAT      O24007   3.335   1.980   0.194
 7922WAT     H124008   3.248   1.931   0.185
 7922WAT     H224009   3.323   2.075   0.163
 7923WAT      O24010   4.398   0.308   8.741
 7923WAT     H124011   4.401   0.267   8.832
 7923WAT     H224012   4.332   0.384   8.741
 7924WAT      O24013   5.673   3.717   6.985
 7924WAT     H124014   5.732   3.798   6.996
 7924WAT     H224015   5.686   3.679   6.894
 7925WAT      O24016   8.314   8.756   0.677
 7925WAT     H124017   8.374   8.772   0.756
 7925WAT     H224018   8.251   8.833   0.668
 7926WAT      O24019   2.132   6.782   3.983
 7926WAT     H124020   2.134   6.858   4.049
 7926WAT     H224021   2.214   6.727   3.994
 7927WAT      O24022   2.109   9.033   9.620
 7927WAT     H124023   2.199   9.072   9.601
 7927WAT     H224024   2.107   8.937   9.590
 7928WAT      O24025   1.467   3.322   1.797
 7928WAT     H124026   1.372   3.304   1.824
 7928WAT     H224027   1.474   3.414   1.759
 7929WAT      O24028   9.133   8.854   6.556
 7929WAT     H124029   9.178   8.775   6.514
 7929WAT     H224030   9.197   8.900   6.618
 7930WAT      O24031   0.231   2.238   7.749
 7930WAT     H124032   0.316   2.268   7.792
 7930WAT     H224033   0.174   2.191   7.816
 7931WAT      O24034   1.710   9.733   7.422
 7931WAT     H124035   1.661   9.696   7.344
 7931WAT     H224036   1.687   9.680   7.504
 7932WAT      O24037   9.026   8.899   6.925
 7932WAT     H124038   9.111   8.916   6.975
 7932WAT     H224039   9.021   8.960   6.846
 7933WAT      O24040   5.076   4.852   7.468
 7933WAT     H124041   5.163   4.902   7.463
 7933WAT     H224042   5.000   4.915   7.452
 7934WAT      O24043   0.659   8.303   9.750
 7934WAT     H124044   0.735   8.241   9.731
 7934WAT     H224045   0.611   8.271   9.832
 7935WAT      O24046   1.244   9.264   1.859
 7935WAT     H124047   1.239   9.217   1.771
 7935WAT     H224048   1.337   9.261   1.894
 7936WAT      O24049   4.092   9.701   1.795
 7936WAT     H124050   4.021   9.764   1.763
 7936WAT     H224051   4.088   9.694   1.895
 7937WAT      O24052   3.615   1.923   4.682
 7937WAT     H124053   3.648   1.911   4.588
 7937WAT     H224054   3.691   1.917   4.746
 7938WAT      O24055   5.633   4.912   7.660
 7938WAT     H124056   5.644   4.905   7.561
 7938WAT     H224057   5.550   4.863   7.687
 7939WAT      O24058   5.480   0.316   3.225
 7939WAT     H124059   5.396   0.361   3.256
 7939WAT     H224060   5.535   0.288   3.304
 7940WAT      O24061   1.425   3.055   8.801
 7940WAT     H124062   1.436   3.086   8.895
 7940WAT     H224063   1.425   2.955   8.798
 7941WAT      O24064   1.141   7.458   9.624
 7941WAT     H124065   1.166   7.370   9.665
 7941WAT     H224066   1.090   7.442   9.539
 7942WAT      O24067   9.618   8.907   3.794
 7942WAT     H124068   9.590   8.983   3.735
 7942WAT     H224069   9.676   8.942   3.867
 7943WAT      O24070   3.320   5.892   5.865
 7943WAT     H124071   3.373   5.851   5.939
 7943WAT     H224072   3.289   5.983   5.892
 7944WAT      O24073   7.192   9.524   2.118
 7944WAT     H124074   7.098   9.544   2.146
 7944WAT     H224075   7.255   9.573   2.179
 7945WAT      O24076   7.888   3.560   7.982
 7945WAT     H124077   7.792   3.589   7.975
 7945WAT     H224078   7.934   3.615   8.052
 7946WAT      O24079   8.323   0.168   2.305
 7946WAT     H124080   8.261   0.235   2.346
 7946WAT     H224081   8.412   0.210   2.288
 7947WAT      O24082   3.818   1.154   3.159
 7947WAT     H124083   3.850   1.080   3.220
 7947WAT     H224084   3.895   1.215   3.139
 7948WAT      O24085   1.381   7.109   8.005
 7948WAT     H124086   1.289   7.104   7.966
 7948WAT     H224087   1.375   7.130   8.103
 7949WAT      O24088   6.682   4.435   9.772
 7949WAT     H124089   6.680   4.396   9.864
 7949WAT     H224090   6.589   4.443   9.738
 7950WAT      O24091   9.609   1.024   6.969
 7950WAT     H124092   9.531   1.012   6.908
 7950WAT     H224093   9.618   1.120   6.994
 7951WAT      O24094   7.740   9.519   5.574
 7951WAT     H124095   7.781   9.443   5.625
 7951WAT     H224096   7.678   9.482   5.504
 7952WAT      O24097   6.032   1.021   5.162
 7952WAT     H124098   6.103   1.048   5.226
 7952WAT     H224099   5.946   1.008   5.211
 7953WAT      O24100   3.746   3.938   7.827
 7953WAT     H124101   3.673   3.953   7.761
 7953WAT     H224102   3.786   4.026   7.853
 7954WAT      O24103   9.455   7.407   6.190
 7954WAT     H124104   9.413   7.372   6.106
 7954WAT     H224105   9.434   7.346   6.266
 7955WAT      O24106   6.511   4.238   7.374
 7955WAT     H124107   6.549   4.177   7.444
 7955WAT     H224108   6.512   4.192   7.285
 7956WAT      O24109   3.840   2.548   9.313
 7956WAT     H124110   3.939   2.551   9.326
 7956WAT     H224111   3.800   2.484   9.379
 7957WAT      O24112   3.873   3.512   8.745
 7957WAT     H124113   3.874   3.612   8.744
 7957WAT     H224114   3.861   3.481   8.840
 7958WAT      O24115   2.082   0.908   5.575
 7958WAT     H124116   2.179   0.891   5.559
 7958WAT     H224117   2.027   0.846   5.519
 7959WAT      O24118   0.292   8.960   3.353
 7959WAT     H124119   0.275   8.862   3.339
 7959WAT     H224120   0.205   9.007   3.371
 7960WAT      O24121   5.841   2.090   3.444
 7960WAT     H124122   5.914   2.065   3.381
 7960WAT     H224123   5.871   2.074   3.538
 7961WAT      O24124   3.547   4.653   3.335
 7961WAT     H124125   3.559   4.752   3.332
 7961WAT     H224126   3.458   4.628   3.297
 7962WAT      O24127   7.884   2.930   7.594
 7962WAT     H124128   7.853   3.020   7.625
 7962WAT     H224129   7.812   2.863   7.609
 7963WAT      O24130   8.467   1.214   1.158
 7963WAT     H124131   8.551   1.195   1.210
 7963WAT     H224132   8.459   1.147   1.083
 7964WAT      O24133   2.068   9.341   1.815
 7964WAT     H124134   2.090   9.261   1.871
 7964WAT     H224135   2.079   9.319   1.718
 7965WAT      O24136   6.072   3.784   3.214
 7965WAT     H124137   6.102   3.694   3.181
 7965WAT     H224138   5.981   3.804   3.179
 7966WAT      O24139   1.980   5.094   2.048
 7966WAT     H124140   2.000   5.169   2.111
 7966WAT     H224141   1.959   5.132   1.958
 7967WAT      O24142   8.619   4.317   2.134
 7967WAT     H124143   8.526   4.316   2.172
 7967WAT     H224144   8.672   4.390   2.176
 7968WAT      O24145   5.527   2.966   9.765
 7968WAT     H124146   5.485   3.055   9.782
 7968WAT     H224147   5.548   2.957   9.668
 7969WAT      O24148   4.225   8.941   7.390
 7969WAT     H124149   4.157   8.944   7.317
 7969WAT     H224150   4.216   8.854   7.439
 7970WAT      O24151   0.491   1.194   6.560
 7970WAT     H124152   0.471   1.135   6.482
 7970WAT     H224153   0.535   1.140   6.632
 7971WAT      O24154   5.609   9.719   2.080
 7971WAT     H124155   5.545   9.758   2.014
 7971WAT     H224156   5.702   9.721   2.042
 7972WAT      O24157   1.745   4.932   9.786
 7972WAT     H124158   1.685   4.908   9.862
 7972WAT     H224159   1.716   5.020   9.748
 7973WAT      O24160   3.197   7.941   5.608
 7973WAT     H124161   3.098   7.934   5.614
 7973WAT     H224162   3.238   7.913   5.695
 7974WAT      O24163   5.085   2.552   8.909
 7974WAT     H124164   4.999   2.575   8.955
 7974WAT     H224165   5.161   2.558   8.974
 7975WAT      O24166   5.365   2.350   0.843
 7975WAT     H124167   5.421   2.280   0.798
 7975WAT     H224168   5.345   2.423   0.777
 7976WAT      O24169   6.489   6.972   2.851
 7976WAT     H124170   6.494   6.893   2.912
 7976WAT     H224171   6.402   6.971   2.802
 7977WAT      O24172   2.963   9.066   8.677
 7977WAT     H124173   2.943   9.136   8.610
 7977WAT     H224174   3.057   9.033   8.664
 7978WAT      O24175   4.038   5.505   5.894
 7978WAT     H124176   4.067   5.448   5.817
 7978WAT     H224177   3.954   5.553   5.870
 7979WAT      O24178   2.283   9.140   1.714
 7979WAT     H124179   2.208   9.170   1.656
 7979WAT     H224180   2.254   9.143   1.810
 7980WAT      O24181   6.815   7.188   5.346
 7980WAT     H124182   6.886   7.138   5.396
 7980WAT     H224183   6.793   7.139   5.262
 7981WAT      O24184   8.212   0.414   8.736
 7981WAT     H124185   8.242   0.501   8.774
 7981WAT     H224186   8.112   0.415   8.726
 7982WAT      O24187   7.432   2.479   7.648
 7982WAT     H124188   7.486   2.398   7.624
 7982WAT     H224189   7.492   2.547   7.690
 7983WAT      O24190   4.609   7.677   6.364
 7983WAT     H124191   4.676   7.672   6.290
 7983WAT     H224192   4.519   7.649   6.329
 7984WAT      O24193   8.929   7.396   1.773
 7984WAT     H124194   8.927   7.357   1.865
 7984WAT     H224195   8.944   7.324   1.706
 7985WAT      O24196   1.922   9.524   5.267
 7985WAT     H124197   2.021   9.525   5.281
 7985WAT     H224198   1.894   9.610   5.223
 7986WAT      O24199   4.916   9.159   8.687
 7986WAT     H124200   4.878   9.158   8.780
 7986WAT     H224201   4.899   9.248   8.645
 7987WAT      O24202   2.874   4.636   6.905
 7987WAT     H124203   2.910   4.551   6.866
 7987WAT     H224204   2.851   4.622   7.001
 7988WAT      O24205   0.174   1.537   7.359
 7988WAT     H124206   0.096   1.475   7.346
 7988WAT     H224207   0.258   1.492   7.327
 7989WAT      O24208   9.716   9.459   1.057
 7989WAT     H124209   9.617   9.450   1.044
 7989WAT     H224210   9.762   9.379   1.019
 7990WAT      O24211   7.953   0.777   6.820
 7990WAT     H124212   7.906   0.697   6.782
 7990WAT     H224213   8.046   0.751   6.846
 7991WAT      O24214   1.608   8.974   1.480
 7991WAT     H124215   1.697   8.983   1.524
 7991WAT     H224216   1.537   9.014   1.538
 7992WAT      O24217   5.183   3.017   1.676
 7992WAT     H124218   5.162   3.104   1.720
 7992WAT     H224219   5.196   2.947   1.746
 7993WAT      O24220   4.964   5.546   5.789
 7993WAT     H124221   4.871   5.539   5.825
 7993WAT     H224222   4.977   5.479   5.716
 7994WAT      O24223   0.435   8.903   7.800
 7994WAT     H124224   0.401   8.829   7.743
 7994WAT     H224225   0.371   8.919   7.876
 7995WAT      O24226   6.592   1.055   3.753
 7995WAT     H124227   6.682   1.034   3.716
 7995WAT     H224228   6.580   1.007   3.840
 7996WAT      O24229   6.311   1.982   7.545
 7996WAT     H124230   6.263   1.902   7.510
 7996WAT     H224231   6.317   2.052   7.474
 7997WAT      O24232   3.987   9.517   4.751
 7997WAT     H124233   4.076   9.547   4.718
 7997WAT     H224234   3.975   9.420   4.732
 7998WAT      O24235   3.676   8.941   5.600
 7998WAT     H124236   3.744   9.009   5.573
 7998WAT     H224237   3.588   8.964   5.559
 7999WAT      O24238   9.444   1.933   6.766
 7999WAT     H124239   9.474   1.903   6.676
 7999WAT     H224240   9.524   1.950   6.824
 8000WAT      O24241   3.899   6.951   7.733
 8000WAT     H124242   3.895   6.851   7.729
 8000WAT     H224243   3.807   6.987   7.752
 8001WAT      O24244   1.898   9.280   6.549
 8001WAT     H124245   1.983   9.273   6.497
 8001WAT     H224246   1.827   9.225   6.504
 8002WAT      O24247   7.889   7.210   6.936
 8002WAT     H124248   7.852   7.184   7.026
 8002WAT     H224249   7.989   7.207   6.940
 8003WAT      O24250   4.830   2.102   5.587
 8003WAT     H124251   4.734   2.074   5.578
 8003WAT     H224252   4.883   2.061   5.512
 8004WAT      O24253   4.198   0.195   5.274
 8004WAT     H124254   4.127   0.249   5.320
 8004WAT     H224255   4.164   0.165   5.185
 8005WAT      O24256   3.249   3.162   2.252
 8005WAT     H124257   3.347   3.145   2.247
 8005WAT     H224258   3.217   3.148   2.346
 8006WAT      O24259   7.777   6.803   6.432
 8006WAT     H124260   7.701   6.864   6.409
 8006WAT     H224261   7.786   6.733   6.361
 8007WAT      O24262   1.494   7.794   5.766
 8007WAT     H124263   1.449   7.823   5.850
 8007WAT     H224264   1.497   7.871   5.702
 8008WAT      O24265   9.043   4.977   3.988
 8008WAT     H124266   8.959   4.991   3.935
 8008WAT     H224267   9.020   4.955   4.083
 8009WAT      O24268   1.552   3.323   2.542
 8009WAT     H124269   1.565   3.285   2.451
 8009WAT     H224270   1.620   3.394   2.559
 8010WAT      O24271   5.408   5.890   3.196
 8010WAT     H124272   5.320   5.898   3.150
 8010WAT     H224273   5.405   5.940   3.283
 8011WAT      O24274   7.859   4.437   0.561
 8011WAT     H124275   7.805   4.354   0.553
 8011WAT     H224276   7.956   4.414   0.572
 8012WAT      O24277   2.382   0.085   3.006
 8012WAT     H124278   2.383   0.048   3.099
 8012WAT     H224279   2.396   0.011   2.940
 8013WAT      O24280   7.042   2.718   6.690
 8013WAT     H124281   7.101   2.641   6.663
 8013WAT     H224282   7.050   2.792   6.623
 8014WAT      O24283   1.729   3.794   9.207
 8014WAT     H124284   1.650   3.825   9.260
 8014WAT     H224285   1.805   3.772   9.268
 8015WAT      O24286   1.866   7.806   5.064
 8015WAT     H124287   1.942   7.850   5.015
 8015WAT     H224288   1.783   7.860   5.051
 8016WAT      O24289   5.508   9.659   0.725
 8016WAT     H124290   5.506   9.562   0.747
 8016WAT     H224291   5.468   9.711   0.801
 8017WAT      O24292   8.840   7.875   7.087
 8017WAT     H124293   8.812   7.925   7.005
 8017WAT     H224294   8.924   7.825   7.068
 8018WAT      O24295   3.604   4.014   6.437
 8018WAT     H124296   3.608   3.954   6.516
 8018WAT     H224297   3.683   4.076   6.438
 8019WAT      O24298   2.405   9.519   3.911
 8019WAT     H124299   2.487   9.561   3.872
 8019WAT     H224300   2.431   9.456   3.984
 8020WAT      O24301   7.570   4.135   7.785
 8020WAT     H124302   7.531   4.052   7.744
 8020WAT     H224303   7.500   4.206   7.789
 8021WAT      O24304   7.023   7.782   9.194
 8021WAT     H124305   6.993   7.869   9.154
 8021WAT     H224306   7.021   7.789   9.294
 8022WAT      O24307   9.652   0.102   2.713
 8022WAT     H124308   9.665   0.197   2.682
 8022WAT     H224309   9.621   0.102   2.808
 8023WAT      O24310   7.834   3.713   6.707
 8023WAT     H124311   7.809   3.640   6.771
 8023WAT     H224312   7.787   3.797   6.731
 8024WAT      O24313   8.274   0.526   5.561
 8024WAT     H124314   8.341   0.509   5.634
 8024WAT     H224315   8.307   0.488   5.475
 8025WAT      O24316   4.390   1.506   6.023
 8025WAT     H124317   4.295   1.507   6.053
 8025WAT     H224318   4.446   1.560   6.085
 8026WAT      O24319   2.854   1.884   4.273
 8026WAT     H124320   2.832   1.789   4.297
 8026WAT     H224321   2.904   1.885   4.187
 8027WAT      O24322   3.844   0.184   3.147
 8027WAT     H124323   3.932   0.171   3.101
 8027WAT     H224324   3.860   0.217   3.240
 8028WAT      O24325   7.269   6.630   9.175
 8028WAT     H124326   7.369   6.637   9.173
 8028WAT     H224327   7.233   6.698   9.238
 8029WAT      O24328   6.296   0.524   3.584
 8029WAT     H124329   6.281   0.595   3.653
 8029WAT     H224330   6.393   0.516   3.565
 8030WAT      O24331   7.818   8.725   2.859
 8030WAT     H124332   7.781   8.717   2.766
 8030WAT     H224333   7.794   8.813   2.898
 8031WAT      O24334   5.915   1.089   1.885
 8031WAT     H124335   5.890   1.019   1.818
 8031WAT     H224336   5.999   1.062   1.933
 8032WAT      O24337   1.809   9.047   3.703
 8032WAT     H124338   1.847   9.047   3.611
 8032WAT     H224339   1.884   9.047   3.770
 8033WAT      O24340   0.032   5.285   4.483
 8033WAT     H124341   0.053   5.379   4.456
 8033WAT     H224342   0.084   5.260   4.564
 8034WAT      O24343   1.967   8.945   2.329
 8034WAT     H124344   1.948   8.986   2.418
 8034WAT     H224345   2.023   8.863   2.340
 8035WAT      O24346   5.989   4.016   9.502
 8035WAT     H124347   6.050   3.945   9.538
 8035WAT     H224348   5.952   3.987   9.414
 8036WAT      O24349   8.600   3.656   7.490
 8036WAT     H124350   8.559   3.736   7.533
 8036WAT     H224351   8.698   3.654   7.511
 8037WAT      O24352   3.125   6.377   5.437
 8037WAT     H124353   3.190   6.311   5.475
 8037WAT     H224354   3.065   6.330   5.372
 8038WAT      O24355   2.950   7.947   2.651
 8038WAT     H124356   2.863   7.985   2.619
 8038WAT     H224357   2.957   7.959   2.750
 8039WAT      O24358   6.578   3.339   9.659
 8039WAT     H124359   6.678   3.334   9.662
 8039WAT     H224360   6.550   3.431   9.631
 8040WAT      O24361   8.879   1.293   9.339
 8040WAT     H124362   8.793   1.319   9.382
 8040WAT     H224363   8.896   1.352   9.260
 8041WAT      O24364   2.713   3.272   6.776
 8041WAT     H124365   2.721   3.366   6.745
 8041WAT     H224366   2.754   3.263   6.867
 8042WAT      O24367   1.414   3.446   7.790
 8042WAT     H124368   1.415   3.545   7.801
 8042WAT     H224369   1.341   3.407   7.847
 8043WAT      O24370   5.430   7.503   8.113
 8043WAT     H124371   5.390   7.484   8.203
 8043WAT     H224372   5.469   7.595   8.113
 8044WAT      O24373   7.858   1.514   5.313
 8044WAT     H124374   7.848   1.570   5.230
 8044WAT     H224375   7.775   1.522   5.368
 8045WAT      O24376   1.695   6.972   8.845
 8045WAT     H124377   1.615   6.991   8.788
 8045WAT     H224378   1.778   6.981   8.789
 8046WAT      O24379   8.564   6.289   5.059
 8046WAT     H124380   8.488   6.350   5.035
 8046WAT     H224381   8.626   6.336   5.122
 8047WAT      O24382   0.345   7.554   1.934
 8047WAT     H124383   0.276   7.623   1.913
 8047WAT     H224384   0.436   7.595   1.929
 8048WAT      O24385   3.740   7.516   5.673
 8048WAT     H124386   3.733   7.611   5.703
 8048WAT     H224387   3.835   7.496   5.647
 8049WAT      O24388   0.985   8.282   6.633
 8049WAT     H124389   0.918   8.272   6.559
 8049WAT     H224390   1.062   8.337   6.602
 8050WAT      O24391   1.760   7.984   6.507
 8050WAT     H124392   1.769   7.965   6.605
 8050WAT     H224393   1.758   8.083   6.492
 8051WAT      O24394   1.082   3.407   7.839
 8051WAT     H124395   1.087   3.311   7.811
 8051WAT     H224396   1.085   3.465   7.758
 8052WAT      O24397   7.760   2.948   5.723
 8052WAT     H124398   7.830   2.935   5.794
 8052WAT     H224399   7.804   2.951   5.634
 8053WAT      O24400   0.573   9.208   1.597
 8053WAT     H124401   0.552   9.275   1.526
 8053WAT     H224402   0.509   9.132   1.592
 8054WAT      O24403   1.981   0.485   3.577
 8054WAT     H124404   1.924   0.455   3.501
 8054WAT     H224405   1.976   0.585   3.585
 8055WAT      O24406   8.822   0.971   3.327
 8055WAT     H124407   8.763   0.942   3.402
 8055WAT     H224408   8.802   0.915   3.246
 8056WAT      O24409   2.196   2.163   7.538
 8056WAT     H124410   2.164   2.153   7.444
 8056WAT     H224411   2.122   2.139   7.601
 8057WAT      O24412   9.392   8.284   6.786
 8057WAT     H124413   9.486   8.295   6.755
 8057WAT     H224414   9.352   8.202   6.744
 8058WAT      O24415   3.094   6.320   4.168
 8058WAT     H124416   3.077   6.252   4.239
 8058WAT     H224417   3.183   6.363   4.185
 8059WAT      O24418   2.882   1.901   6.314
 8059WAT     H124419   2.849   1.963   6.386
 8059WAT     H224420   2.914   1.816   6.356
 8060WAT      O24421   2.671   2.124   0.206
 8060WAT     H124422   2.649   2.046   0.266
 8060WAT     H224423   2.656   2.209   0.256
 8061WAT      O24424   1.117   7.746   5.082
 8061WAT     H124425   1.113   7.646   5.077
 8061WAT     H224426   1.129   7.784   4.990
 8062WAT      O24427   4.711   1.019   7.165
 8062WAT     H124428   4.765   0.985   7.243
 8062WAT     H224429   4.624   1.055   7.199
 8063WAT      O24430   2.548   1.026   1.600
 8063WAT     H124431   2.500   1.001   1.684
 8063WAT     H224432   2.645   1.006   1.609
 8064WAT      O24433   5.949   5.433   8.824
 8064WAT     H124434   6.031   5.476   8.862
 8064WAT     H224435   5.940   5.340   8.861
 8065WAT      O24436   6.286   3.090   3.499
 8065WAT     H124437   6.264   3.144   3.418
 8065WAT     H224438   6.382   3.103   3.524
 8066WAT      O24439   0.458   7.270   4.380
 8066WAT     H124440   0.527   7.215   4.428
 8066WAT     H224441   0.371   7.266   4.431
 8067WAT      O24442   6.346   8.073   8.070
 8067WAT     H124443   6.399   8.093   8.153
 8067WAT     H224444   6.362   8.145   8.003
 8068WAT      O24445   8.363   1.168   4.688
 8068WAT     H124446   8.333   1.241   4.749
 8068WAT     H224447   8.355   1.197   4.593
 8069WAT      O24448   0.073   7.532   7.283
 8069WAT     H124449   0.104   7.443   7.315
 8069WAT     H224450   0.081   7.599   7.357
 8070WAT      O24451   6.533   7.730   7.845
 8070WAT     H124452   6.562   7.811   7.794
 8070WAT     H224453   6.461   7.682   7.794
 8071WAT      O24454   4.160   1.591   5.174
 8071WAT     H124455   4.135   1.502   5.214
 8071WAT     H224456   4.144   1.589   5.076
 8072WAT      O24457   2.446   8.638   8.437
 8072WAT     H124458   2.514   8.710   8.423
 8072WAT     H224459   2.492   8.552   8.458
 8073WAT      O24460   6.287   9.337   5.885
 8073WAT     H124461   6.290   9.323   5.984
 8073WAT     H224462   6.274   9.249   5.840
 8074WAT      O24463   6.813   3.571   9.281
 8074WAT     H124464   6.899   3.528   9.256
 8074WAT     H224465   6.744   3.501   9.300
 8075WAT      O24466   9.819   2.088   5.212
 8075WAT     H124467   9.804   2.094   5.310
 8075WAT     H224468   9.829   1.992   5.185
 8076WAT      O24469   6.961   5.541   1.070
 8076WAT     H124470   6.975   5.460   1.126
 8076WAT     H224471   7.045   5.560   1.017
 8077WAT      O24472   9.078   6.478   7.959
 8077WAT     H124473   9.113   6.436   7.875
 8077WAT     H224474   9.151   6.531   8.002
 8078WAT      O24475   7.702   5.084   7.958
 8078WAT     H124476   7.604   5.095   7.941
 8078WAT     H224477   7.746   5.174   7.961
 8079WAT      O24478   4.234   7.557   3.971
 8079WAT     H124479   4.183   7.473   3.953
 8079WAT     H224480   4.250   7.605   3.886
 8080WAT      O24481   6.138   0.736   0.947
 8080WAT     H124482   6.186   0.661   0.900
 8080WAT     H224483   6.085   0.788   0.880
 8081WAT      O24484   2.902   9.256   7.920
 8081WAT     H124485   2.837   9.264   7.996
 8081WAT     H224486   2.868   9.189   7.855
 8082WAT      O24487   2.712   8.188   3.673
 8082WAT     H124488   2.649   8.181   3.751
 8082WAT     H224489   2.688   8.268   3.618
 8083WAT      O24490   7.334   5.191   7.051
 8083WAT     H124491   7.285   5.244   6.983
 8083WAT     H224492   7.370   5.108   7.008
 8084WAT      O24493   7.067   5.037   4.136
 8084WAT     H124494   7.092   4.945   4.106
 8084WAT     H224495   7.109   5.105   4.075
 8085WAT      O24496   5.452   0.786   1.923
 8085WAT     H124497   5.492   0.728   1.993
 8085WAT     H224498   5.483   0.757   1.833
 8086WAT      O24499   3.705   1.937   9.858
 8086WAT     H124500   3.667   1.958   9.948
 8086WAT     H224501   3.724   2.022   9.809
 8087WAT      O24502   8.279   2.859   0.540
 8087WAT     H124503   8.202   2.920   0.558
 8087WAT     H224504   8.307   2.813   0.624
 8088WAT      O24505   9.441   3.865   1.894
 8088WAT     H124506   9.497   3.806   1.835
 8088WAT     H224507   9.445   3.831   1.988
 8089WAT      O24508   5.196   2.431   3.545
 8089WAT     H124509   5.232   2.340   3.566
 8089WAT     H224510   5.142   2.427   3.461
 8090WAT      O24511   3.077   8.829   8.347
 8090WAT     H124512   3.011   8.886   8.298
 8090WAT     H224513   3.152   8.805   8.286
 8091WAT      O24514   5.230   1.236   5.619
 8091WAT     H124515   5.242   1.142   5.586
 8091WAT     H224516   5.169   1.285   5.557
 8092WAT      O24517   9.239   4.313   5.285
 8092WAT     H124518   9.219   4.377   5.211
 8092WAT     H224519   9.196   4.225   5.266
 8093WAT      O24520   9.266   8.883   5.462
 8093WAT     H124521   9.332   8.956   5.474
 8093WAT     H224522   9.190   8.895   5.526
 8094WAT      O24523   5.277   2.039   0.356
 8094WAT     H124524   5.304   2.125   0.400
 8094WAT     H224525   5.286   1.964   0.421
 8095WAT      O24526   3.326   7.109   8.433
 8095WAT     H124527   3.292   7.117   8.527
 8095WAT     H224528   3.346   7.200   8.397
 8096WAT      O24529   9.756   9.132   5.380
 8096WAT     H124530   9.694   9.210   5.391
 8096WAT     H224531   9.712   9.063   5.322
 8097WAT      O24532   5.977   7.342   8.207
 8097WAT     H124533   5.970   7.256   8.257
 8097WAT     H224534   6.066   7.346   8.161
 8098WAT      O24535   3.653   0.510   3.067
 8098WAT     H124536   3.575   0.536   3.009
 8098WAT     H224537   3.737   0.545   3.027
 8099WAT      O24538   7.053   3.503   9.582
 8099WAT     H124539   7.001   3.421   9.607
 8099WAT     H224540   7.098   3.539   9.664
 8100WAT      O24541   0.857   3.305   2.420
 8100WAT     H124542   0.950   3.316   2.457
 8100WAT     H224543   0.793   3.291   2.496
 8101WAT      O24544   8.276   6.406   7.602
 8101WAT     H124545   8.179   6.401   7.626
 8101WAT     H224546   8.310   6.498   7.621
 8102WAT      O24547   7.314   6.052   8.756
 8102WAT     H124548   7.388   6.064   8.822
 8102WAT     H224549   7.248   6.127   8.765
 8103WAT      O24550   2.668   5.477   0.484
 8103WAT     H124551   2.644   5.403   0.421
 8103WAT     H224552   2.671   5.564   0.435
 8104WAT      O24553   4.976   7.841   2.814
 8104WAT     H124554   4.953   7.853   2.910
 8104WAT     H224555   4.980   7.931   2.770
 8105WAT      O24556   6.215   8.190   3.342
 8105WAT     H124557   6.152   8.134   3.288
 8105WAT     H224558   6.163   8.248   3.404
 8106WAT      O24559   7.470   2.775   8.847
 8106WAT     H124560   7.555   2.731   8.876
 8106WAT     H224561   7.484   2.874   8.843
 8107WAT      O24562   8.186   5.813   9.663
 8107WAT     H124563   8.164   5.854   9.575
 8107WAT     H224564   8.101   5.795   9.713
 8108WAT      O24565   1.274   0.317   4.268
 8108WAT     H124566   1.284   0.400   4.323
 8108WAT     H224567   1.177   0.304   4.245
 8109WAT      O24568   8.650   8.998   1.137
 8109WAT     H124569   8.663   9.062   1.061
 8109WAT     H224570   8.619   9.048   1.217
 8110WAT      O24571   7.203   5.121   3.494
 8110WAT     H124572   7.248   5.210   3.496
 8110WAT     H224573   7.108   5.130   3.525
 8111WAT      O24574   4.208   7.066   7.124
 8111WAT     H124575   4.152   7.067   7.041
 8111WAT     H224576   4.170   7.001   7.190
 8112WAT      O24577   8.895   1.256   8.224
 8112WAT     H124578   8.905   1.350   8.192
 8112WAT     H224579   8.986   1.217   8.240
 8113WAT      O24580   7.708   1.161   6.518
 8113WAT     H124581   7.628   1.100   6.514
 8113WAT     H224582   7.778   1.128   6.454
 8114WAT      O24583   2.533   1.021   5.633
 8114WAT     H124584   2.551   0.998   5.537
 8114WAT     H224585   2.617   1.050   5.677
 8115WAT      O24586   3.930   5.393   8.868
 8115WAT     H124587   3.957   5.339   8.948
 8115WAT     H224588   3.937   5.491   8.890
 8116WAT      O24589   8.024   7.228   5.390
 8116WAT     H124590   7.927   7.253   5.387
 8116WAT     H224591   8.077   7.304   5.427
 8117WAT      O24592   5.281   6.309   4.814
 8117WAT     H124593   5.322   6.218   4.814
 8117WAT     H224594   5.343   6.374   4.770
 8118WAT      O24595   6.854   4.378   0.795
 8118WAT     H124596   6.866   4.295   0.850
 8118WAT     H224597   6.807   4.355   0.710
 8119WAT      O24598   1.855   1.762   0.784
 8119WAT     H124599   1.883   1.843   0.733
 8119WAT     H224600   1.932   1.699   0.792
 8120WAT      O24601   7.835   0.442   0.792
 8120WAT     H124602   7.928   0.406   0.802
 8120WAT     H224603   7.787   0.391   0.720
 8121WAT      O24604   9.522   9.584   6.602
 8121WAT     H124605   9.424   9.569   6.614
 8121WAT     H224606   9.548   9.672   6.642
 8122WAT      O24607   2.810   7.391   0.173
 8122WAT     H124608   2.714   7.396   0.199
 8122WAT     H224609   2.851   7.482   0.180
 8123WAT      O24610   7.291   3.497   9.439
 8123WAT     H124611   7.205   3.491   9.489
 8123WAT     H224612   7.301   3.418   9.379
 8124WAT      O24613   0.071   1.261   1.266
 8124WAT     H124614   0.021   1.344   1.241
 8124WAT     H224615   0.157   1.259   1.216
 8125WAT      O24616   3.941   7.101   7.950
 8125WAT     H124617   3.850   7.142   7.942
 8125WAT     H224618   3.947   7.022   7.889
 8126WAT      O24619   8.613   0.656   3.625
 8126WAT     H124620   8.692   0.630   3.680
 8126WAT     H224621   8.533   0.668   3.683
 8127WAT      O24622   2.751   1.811   0.078
 8127WAT     H124623   2.711   1.883   0.134
 8127WAT     H224624   2.790   1.740   0.137
 8128WAT      O24625   3.005   6.170   0.695
 8128WAT     H124626   2.961   6.172   0.785
 8128WAT     H224627   3.036   6.262   0.672
 8129WAT      O24628   1.129   5.807   7.082
 8129WAT     H124629   1.076   5.741   7.028
 8129WAT     H224630   1.120   5.898   7.042
 8130WAT      O24631   6.656   3.419   6.532
 8130WAT     H124632   6.608   3.336   6.505
 8130WAT     H224633   6.619   3.453   6.618
 8131WAT      O24634   5.542   3.552   0.990
 8131WAT     H124635   5.485   3.569   0.909
 8131WAT     H224636   5.625   3.608   0.985
 8132WAT      O24637   5.320   5.482   4.397
 8132WAT     H124638   5.235   5.534   4.400
 8132WAT     H224639   5.312   5.408   4.331
 8133WAT      O24640   7.525   7.910   4.221
 8133WAT     H124641   7.438   7.952   4.192
 8133WAT     H224642   7.579   7.886   4.140
 8134WAT      O24643   8.457   8.839   8.332
 8134WAT     H124644   8.458   8.868   8.237
 8134WAT     H224645   8.456   8.920   8.391
 8135WAT      O24646   7.720   1.279   1.347
 8135WAT     H124647   7.746   1.357   1.290
 8135WAT     H224648   7.792   1.262   1.414
 8136WAT      O24649   6.061   8.978   4.367
 8136WAT     H124650   6.032   8.991   4.461
 8136WAT     H224651   6.140   9.036   4.347
 8137WAT      O24652   4.638   2.656   4.512
 8137WAT     H124653   4.652   2.696   4.603
 8137WAT     H224654   4.544   2.623   4.504
 8138WAT      O24655   5.447   8.635   0.702
 8138WAT     H124656   5.501   8.703   0.652
 8138WAT     H224657   5.498   8.606   0.783
 8139WAT      O24658   8.065   8.861   1.354
 8139WAT     H124659   8.009   8.839   1.274
 8139WAT     H224660   8.116   8.780   1.383
 8140WAT      O24661   7.002   7.866   1.109
 8140WAT     H124662   7.078   7.813   1.070
 8140WAT     H224663   6.943   7.899   1.036
 8141WAT      O24664   8.920   1.849   5.465
 8141WAT     H124665   8.970   1.936   5.456
 8141WAT     H224666   8.959   1.781   5.403
 8142WAT      O24667   3.195   5.870   2.731
 8142WAT     H124668   3.105   5.867   2.688
 8142WAT     H224669   3.227   5.776   2.750
 8143WAT      O24670   5.711   4.940   9.303
 8143WAT     H124671   5.790   4.881   9.289
 8143WAT     H224672   5.642   4.920   9.234
 8144WAT      O24673   0.224   6.566   6.972
 8144WAT     H124674   0.147   6.540   6.914
 8144WAT     H224675   0.212   6.661   7.003
 8145WAT      O24676   4.351   6.664   5.051
 8145WAT     H124677   4.329   6.580   5.001
 8145WAT     H224678   4.366   6.739   4.987
 8146WAT      O24679   2.814   3.531   5.997
 8146WAT     H124680   2.792   3.434   6.006
 8146WAT     H224681   2.732   3.581   5.968
 8147WAT      O24682   3.532   8.392   5.763
 8147WAT     H124683   3.608   8.431   5.712
 8147WAT     H224684   3.449   8.445   5.744
 8148WAT      O24685   7.298   5.723   1.866
 8148WAT     H124686   7.311   5.798   1.931
 8148WAT     H224687   7.373   5.657   1.876
 8149WAT      O24688   2.958   3.160   7.670
 8149WAT     H124689   3.050   3.197   7.686
 8149WAT     H224690   2.893   3.205   7.731
 8150WAT      O24691   4.036   6.488   3.525
 8150WAT     H124692   4.020   6.535   3.438
 8150WAT     H224693   4.012   6.391   3.516
 8151WAT      O24694   4.748   6.826   7.333
 8151WAT     H124695   4.794   6.753   7.283
 8151WAT     H224696   4.692   6.786   7.405
 8152WAT      O24697   5.575   9.431   1.505
 8152WAT     H124698   5.492   9.382   1.533
 8152WAT     H224699   5.635   9.442   1.584
 8153WAT      O24700   3.559   0.960   7.759
 8153WAT     H124701   3.492   0.904   7.710
 8153WAT     H224702   3.571   1.047   7.712
 8154WAT      O24703   0.938   6.408   0.068
 8154WAT     H124704   0.888   6.491   0.088
 8154WAT     H224705   0.913   6.374  -0.023
 8155WAT      O24706   0.671   3.355   1.422
 8155WAT     H124707   0.680   3.277   1.485
 8155WAT     H224708   0.621   3.325   1.341
 8156WAT      O24709   3.866   6.998   8.427
 8156WAT     H124710   3.781   6.977   8.380
 8156WAT     H224711   3.897   6.917   8.478
 8157WAT      O24712   1.259   6.108   7.196
 8157WAT     H124713   1.295   6.017   7.212
 8157WAT     H224714   1.183   6.103   7.131
 8158WAT      O24715   6.435   7.623   0.948
 8158WAT     H124716   6.526   7.651   0.916
 8158WAT     H224717   6.443   7.540   1.003
 8159WAT      O24718   3.370   7.596   6.408
 8159WAT     H124719   3.427   7.641   6.339
 8159WAT     H224720   3.409   7.506   6.431
 8160WAT      O24721   3.296   9.755   2.785
 8160WAT     H124722   3.301   9.824   2.858
 8160WAT     H224723   3.380   9.701   2.785
 8161WAT      O24724   0.112   6.577   8.925
 8161WAT     H124725   0.151   6.486   8.913
 8161WAT     H224726   0.181   6.639   8.961
 8162WAT      O24727   6.873   8.620   6.707
 8162WAT     H124728   6.869   8.568   6.793
 8162WAT     H224729   6.781   8.649   6.682
 8163WAT      O24730   8.088   8.943   2.774
 8163WAT     H124731   8.022   9.009   2.738
 8163WAT     H224732   8.097   8.867   2.709
 8164WAT      O24733   0.588   9.600   2.914
 8164WAT     H124734   0.642   9.530   2.960
 8164WAT     H224735   0.614   9.605   2.818
 8165WAT      O24736   7.220   3.019   6.668
 8165WAT     H124737   7.319   3.011   6.661
 8165WAT     H224738   7.193   3.019   6.765
 8166WAT      O24739   2.774   4.779   4.245
 8166WAT     H124740   2.873   4.771   4.228
 8166WAT     H224741   2.738   4.691   4.275
 8167WAT      O24742   4.499   1.156   7.289
 8167WAT     H124743   4.424   1.092   7.304
 8167WAT     H224744   4.523   1.199   7.376
 8168WAT      O24745   1.098   4.104   7.665
 8168WAT     H124746   1.163   4.073   7.595
 8168WAT     H224747   1.065   4.025   7.716
 8169WAT      O24748   1.535   2.886   1.230
 8169WAT     H124749   1.630   2.869   1.204
 8169WAT     H224750   1.489   2.798   1.246
 8170WAT      O24751   5.410   6.190   5.840
 8170WAT     H124752   5.460   6.271   5.810
 8170WAT     H224753   5.424   6.116   5.774
 8171WAT      O24754   9.799   1.598   6.730
 8171WAT     H124755   9.843   1.607   6.819
 8171WAT     H224756   9.794   1.688   6.686
 8172WAT      O24757   6.800   5.937   6.889
 8172WAT     H124758   6.852   5.874   6.831
 8172WAT     H224759   6.783   6.022   6.839
 8173WAT      O24760   4.027   6.547   4.724
 8173WAT     H124761   3.940   6.540   4.677
 8173WAT     H224762   4.011   6.560   4.822
 8174WAT      O24763   9.830   7.822   5.347
 8174WAT     H124764   9.810   7.738   5.397
 8174WAT     H224765   9.788   7.900   5.393
 8175WAT      O24766   7.396   8.793   2.819
 8175WAT     H124767   7.402   8.849   2.901
 8175WAT     H224768   7.299   8.776   2.797
 8176WAT      O24769   7.472   3.191   2.572
 8176WAT     H124770   7.568   3.220   2.580
 8176WAT     H224771   7.414   3.272   2.560
 8177WAT      O24772   4.908   2.102   0.906
 8177WAT     H124773   4.965   2.184   0.900
 8177WAT     H224774   4.940   2.035   0.840
 8178WAT      O24775   3.881   8.911   4.618
 8178WAT     H124776   3.962   8.955   4.579
 8178WAT     H224777   3.807   8.912   4.550
 8179WAT      O24778   6.724   3.644   3.375
 8179WAT     H124779   6.629   3.667   3.397
 8179WAT     H224780   6.784   3.715   3.411
 8180WAT      O24781   7.786   1.009   6.023
 8180WAT     H124782   7.698   0.962   6.019
 8180WAT     H224783   7.774   1.102   6.058
 8181WAT      O24784   0.296   9.380   7.593
 8181WAT     H124785   0.322   9.285   7.608
 8181WAT     H224786   0.344   9.415   7.513
 8182WAT      O24787   1.383   3.271   4.412
 8182WAT     H124788   1.305   3.332   4.417
 8182WAT     H224789   1.352   3.176   4.406
 8183WAT      O24790   4.474   4.713   7.134
 8183WAT     H124791   4.427   4.703   7.047
 8183WAT     H224792   4.572   4.700   7.121
 8184WAT      O24793   7.177   9.659   7.433
 8184WAT     H124794   7.191   9.568   7.394
 8184WAT     H224795   7.142   9.650   7.526
 8185WAT      O24796   1.020   2.377   2.407
 8185WAT     H124797   1.097   2.441   2.407
 8185WAT     H224798   1.009   2.338   2.498
 8186WAT      O24799   8.235   2.336   7.682
 8186WAT     H124800   8.226   2.271   7.608
 8186WAT     H224801   8.146   2.375   7.705
 8187WAT      O24802   4.537   4.880   5.850
 8187WAT     H124803   4.560   4.914   5.942
 8187WAT     H224804   4.532   4.957   5.787
 8188WAT      O24805   2.524   1.541   5.322
 8188WAT     H124806   2.521   1.477   5.399
 8188WAT     H224807   2.615   1.538   5.280
 8189WAT      O24808   9.776   6.442   6.127
 8189WAT     H124809   9.711   6.511   6.097
 8189WAT     H224810   9.816   6.470   6.215
 8190WAT      O24811   2.626   6.646   6.519
 8190WAT     H124812   2.678   6.621   6.438
 8190WAT     H224813   2.533   6.611   6.512
 8191WAT      O24814   1.068   4.577   2.671
 8191WAT     H124815   1.150   4.619   2.711
 8191WAT     H224816   1.078   4.574   2.572
 8192WAT      O24817   8.646   4.351   7.294
 8192WAT     H124818   8.640   4.395   7.204
 8192WAT     H224819   8.740   4.356   7.327
 8193WAT      O24820   0.003   9.769   6.923
 8193WAT     H124821  -0.024   9.688   6.975
 8193WAT     H224822   0.065   9.825   6.978
 8194WAT      O24823   9.553   5.091   4.696
 8194WAT     H124824   9.586   5.146   4.772
 8194WAT     H224825   9.602   5.116   4.613
 8195WAT      O24826   7.013   5.736   9.745
 8195WAT     H124827   6.940   5.783   9.795
 8195WAT     H224828   7.028   5.646   9.787
 8196WAT      O24829   5.671   8.512   4.067
 8196WAT     H124830   5.668   8.489   4.164
 8196WAT     H224831   5.626   8.439   4.015
 8197WAT      O24832   7.496   2.221   4.629
 8197WAT     H124833   7.572   2.180   4.680
 8197WAT     H224834   7.529   2.299   4.577
 8198WAT      O24835   3.882   7.883   0.604
 8198WAT     H124836   3.862   7.792   0.567
 8198WAT     H224837   3.809   7.911   0.665
 8199WAT      O24838   7.577   2.185   7.697
 8199WAT     H124839   7.647   2.220   7.635
 8199WAT     H224840   7.621   2.142   7.776
 8200WAT      O24841   5.970   4.025   3.116
 8200WAT     H124842   5.935   4.105   3.067
 8200WAT     H224843   6.069   4.033   3.127
 8201WAT      O24844   1.852   5.671   2.465
 8201WAT     H124845   1.925   5.614   2.426
 8201WAT     H224846   1.877   5.698   2.558
 8202WAT      O24847   3.119   8.861   5.785
 8202WAT     H124848   3.074   8.896   5.868
 8202WAT     H224849   3.217   8.856   5.800
 8203WAT      O24850   2.980   4.912   2.481
 8203WAT     H124851   3.026   4.830   2.516
 8203WAT     H224852   2.884   4.909   2.506
 8204WAT      O24853   3.153   3.663   2.459
 8204WAT     H124854   3.089   3.699   2.526
 8204WAT     H224855   3.103   3.606   2.393
 8205WAT      O24856   3.494   1.878   4.353
 8205WAT     H124857   3.492   1.787   4.395
 8205WAT     H224858   3.467   1.871   4.257
 8206WAT      O24859   5.808   5.436   9.500
 8206WAT     H124860   5.719   5.471   9.531
 8206WAT     H224861   5.866   5.419   9.580
 8207WAT      O24862   5.495   5.982   2.616
 8207WAT     H124863   5.520   5.997   2.712
 8207WAT     H224864   5.398   6.001   2.603
 8208WAT      O24865   5.304   5.420   8.964
 8208WAT     H124866   5.206   5.437   8.972
 8208WAT     H224867   5.355   5.493   9.011
 8209WAT      O24868   2.322   6.592   2.893
 8209WAT     H124869   2.417   6.622   2.888
 8209WAT     H224870   2.299   6.541   2.810
 8210WAT      O24871   8.563   1.089   2.075
 8210WAT     H124872   8.474   1.067   2.037
 8210WAT     H224873   8.617   1.005   2.083
 8211WAT      O24874   7.236   8.305   6.423
 8211WAT     H124875   7.283   8.351   6.499
 8211WAT     H224876   7.138   8.301   6.443
 8212WAT      O24877   9.155   7.106   5.839
 8212WAT     H124878   9.120   7.132   5.929
 8212WAT     H224879   9.252   7.082   5.847
 8213WAT      O24880   7.022   4.466   9.201
 8213WAT     H124881   7.044   4.518   9.283
 8213WAT     H224882   7.095   4.476   9.134
 8214WAT      O24883   3.662   5.186   6.973
 8214WAT     H124884   3.658   5.284   6.958
 8214WAT     H224885   3.730   5.145   6.913
 8215WAT      O24886   4.720   8.168   9.297
 8215WAT     H124887   4.648   8.198   9.360
 8215WAT     H224888   4.744   8.242   9.234
 8216WAT      O24889   1.602   0.322   8.373
 8216WAT     H124890   1.700   0.322   8.390
 8216WAT     H224891   1.552   0.319   8.460
 8217WAT      O24892   7.613   9.191   3.704
 8217WAT     H124893   7.680   9.119   3.688
 8217WAT     H224894   7.628   9.231   3.794
 8218WAT      O24895   2.736   4.047   2.774
 8218WAT     H124896   2.683   3.963   2.787
 8218WAT     H224897   2.706   4.092   2.689
 8219WAT      O24898   1.614   8.240   8.997
 8219WAT     H124899   1.623   8.281   8.906
 8219WAT     H224900   1.680   8.282   9.059
 8220WAT      O24901   7.549   9.666   0.137
 8220WAT     H124902   7.521   9.688   0.043
 8220WAT     H224903   7.637   9.710   0.157
 8221WAT      O24904   9.032   2.789   8.984
 8221WAT     H124905   9.095   2.777   9.061
 8221WAT     H224906   8.938   2.774   9.016
 8222WAT      O24907   8.641   2.623   1.581
 8222WAT     H124908   8.667   2.561   1.655
 8222WAT     H224909   8.585   2.574   1.514
 8223WAT      O24910   4.537   3.333   6.650
 8223WAT     H124911   4.445   3.352   6.614
 8223WAT     H224912   4.548   3.235   6.664
 8224WAT      O24913   3.183   9.310   1.096
 8224WAT     H124914   3.188   9.396   1.044
 8224WAT     H224915   3.180   9.331   1.194
 8225WAT      O24916   7.898   9.271   7.188
 8225WAT     H124917   7.842   9.202   7.140
 8225WAT     H224918   7.995   9.250   7.175
 8226WAT      O24919   2.869   7.402   7.426
 8226WAT     H124920   2.940   7.400   7.497
 8226WAT     H224921   2.859   7.310   7.388
 8227WAT      O24922   7.526   6.074   2.874
 8227WAT     H124923   7.564   5.995   2.923
 8227WAT     H224924   7.426   6.072   2.880
 8228WAT      O24925   0.377   6.592   5.351
 8228WAT     H124926   0.314   6.535   5.405
 8228WAT     H224927   0.469   6.585   5.389
 8229WAT      O24928   5.190   0.621   8.463
 8229WAT     H124929   5.283   0.585   8.465
 8229WAT     H224930   5.165   0.652   8.555
 8230WAT      O24931   1.455   5.107   4.838
 8230WAT     H124932   1.373   5.111   4.895
 8230WAT     H224933   1.497   5.198   4.835
 8231WAT      O24934   5.644   6.728   8.218
 8231WAT     H124935   5.597   6.783   8.287
 8231WAT     H224936   5.580   6.703   8.146
 8232WAT      O24937   5.367   8.751   1.104
 8232WAT     H124938   5.335   8.691   1.177
 8232WAT     H224939   5.463   8.732   1.085
 8233WAT      O24940   6.775   4.865   2.533
 8233WAT     H124941   6.696   4.924   2.516
 8233WAT     H224942   6.748   4.787   2.588
 8234WAT      O24943   9.491   0.055   9.689
 8234WAT     H124944   9.545  -0.009   9.743
 8234WAT     H224945   9.466   0.012   9.602
 8235WAT      O24946   4.682   3.009   8.947
 8235WAT     H124947   4.764   3.056   8.977
 8235WAT     H224948   4.632   3.067   8.882
 8236WAT      O24949   5.874   7.760   3.126
 8236WAT     H124950   5.802   7.702   3.165
 8236WAT     H224951   5.895   7.730   3.033
 8237WAT      O24952   6.194   7.242   6.121
 8237WAT     H124953   6.119   7.307   6.133
 8237WAT     H224954   6.275   7.289   6.086
 8238WAT      O24955   2.611   1.393   1.866
 8238WAT     H124956   2.576   1.378   1.773
 8238WAT     H224957   2.548   1.352   1.932
 8239WAT      O24958   4.417   1.139   2.306
 8239WAT     H124959   4.475   1.086   2.244
 8239WAT     H224960   4.324   1.103   2.302
 8240WAT      O24961   0.532   9.380   1.811
 8240WAT     H124962   0.568   9.456   1.756
 8240WAT     H224963   0.536   9.295   1.758
 8241WAT      O24964   4.476   8.293   4.869
 8241WAT     H124965   4.395   8.348   4.881
 8241WAT     H224966   4.510   8.303   4.775
 8242WAT      O24967   2.210   1.837   4.241
 8242WAT     H124968   2.147   1.895   4.190
 8242WAT     H224969   2.220   1.872   4.334
 8243WAT      O24970   3.383   7.155   2.917
 8243WAT     H124971   3.381   7.237   2.973
 8243WAT     H224972   3.468   7.152   2.864
 8244WAT      O24973   7.726   6.361   0.660
 8244WAT     H124974   7.772   6.285   0.615
 8244WAT     H224975   7.640   6.330   0.700
 8245WAT      O24976   6.707   5.905   5.626
 8245WAT     H124977   6.690   5.925   5.529
 8245WAT     H224978   6.805   5.898   5.642
 8246WAT      O24979   2.115   6.123   9.060
 8246WAT     H124980   2.057   6.134   9.141
 8246WAT     H224981   2.188   6.191   9.062
 8247WAT      O24982   7.709   6.615   9.596
 8247WAT     H124983   7.809   6.606   9.598
 8247WAT     H224984   7.680   6.675   9.670
 8248WAT      O24985   3.041   5.808   8.542
 8248WAT     H124986   3.027   5.900   8.505
 8248WAT     H224987   2.995   5.801   8.631
 8249WAT      O24988   1.082   1.554   0.591
 8249WAT     H124989   1.053   1.483   0.526
 8249WAT     H224990   1.003   1.584   0.644
 8250WAT      O24991   3.221   0.397   1.764
 8250WAT     H124992   3.164   0.405   1.846
 8250WAT     H224993   3.316   0.383   1.790
 8251WAT      O24994   7.843   6.145   4.760
 8251WAT     H124995   7.835   6.119   4.664
 8251WAT     H224996   7.886   6.235   4.767
 8252WAT      O24997   2.494   2.648   3.144
 8252WAT     H124998   2.561   2.624   3.074
 8252WAT     H224999   2.415   2.691   3.101
 8253WAT      O25000   6.142   1.250   9.752
 8253WAT     H125001   6.121   1.235   9.655
 8253WAT     H225002   6.176   1.165   9.793
 8254WAT      O25003   5.730   6.582   3.715
 8254WAT     H125004   5.725   6.586   3.615
 8254WAT     H225005   5.741   6.487   3.744
 8255WAT      O25006   6.422   7.852   2.616
 8255WAT     H125007   6.507   7.805   2.591
 8255WAT     H225008   6.444   7.930   2.675
 8256WAT      O25009   9.266   6.494   4.219
 8256WAT     H125010   9.275   6.534   4.128
 8256WAT     H225011   9.344   6.434   4.237
 8257WAT      O25012   0.422   3.942   5.666
 8257WAT     H125013   0.330   3.917   5.695
 8257WAT     H225014   0.418   3.984   5.575
 8258WAT      O25015   7.613   5.834   8.144
 8258WAT     H125016   7.637   5.798   8.234
 8258WAT     H225017   7.639   5.931   8.139
 8259WAT      O25018   5.795   0.390   6.141
 8259WAT     H125019   5.850   0.307   6.150
 8259WAT     H225020   5.837   0.451   6.075
 8260WAT      O25021   5.857   3.635   7.365
 8260WAT     H125022   5.910   3.662   7.445
 8260WAT     H225023   5.798   3.710   7.337
 8261WAT      O25024   7.714   9.440   9.710
 8261WAT     H125025   7.649   9.515   9.718
 8261WAT     H225026   7.673   9.356   9.745
 8262WAT      O25027   3.700   4.174   8.217
 8262WAT     H125028   3.664   4.136   8.131
 8262WAT     H225029   3.736   4.266   8.201
 8263WAT      O25030   2.943   6.977   9.393
 8263WAT     H125031   3.013   6.906   9.385
 8263WAT     H225032   2.933   7.003   9.489
 8264WAT      O25033   1.892   7.953   2.464
 8264WAT     H125034   1.950   8.024   2.503
 8264WAT     H225035   1.943   7.902   2.395
 8265WAT      O25036   7.853   3.143   5.994
 8265WAT     H125037   7.873   3.054   5.953
 8265WAT     H225038   7.759   3.169   5.972
 8266WAT      O25039   2.686   0.732   1.716
 8266WAT     H125040   2.645   0.813   1.759
 8266WAT     H225041   2.786   0.738   1.723
 8267WAT      O25042   5.548   0.533   3.547
 8267WAT     H125043   5.641   0.561   3.523
 8267WAT     H225044   5.484   0.605   3.522
 8268WAT      O25045   1.611   3.167   9.582
 8268WAT     H125046   1.644   3.074   9.598
 8268WAT     H225047   1.512   3.165   9.566
 8269WAT      O25048   1.522   5.277   9.209
 8269WAT     H125049   1.584   5.356   9.210
 8269WAT     H225050   1.435   5.304   9.168
 8270WAT      O25051   8.475   1.269   6.987
 8270WAT     H125052   8.386   1.283   7.032
 8270WAT     H225053   8.532   1.350   7.000
 8271WAT      O25054   9.616   2.217   2.603
 8271WAT     H125055   9.572   2.137   2.562
 8271WAT     H225056   9.689   2.250   2.543
 8272WAT      O25057   2.399   6.658   5.145
 8272WAT     H125058   2.425   6.606   5.064
 8272WAT     H225059   2.395   6.597   5.224
 8273WAT      O25060   4.070   0.371   0.511
 8273WAT     H125061   4.082   0.273   0.496
 8273WAT     H225062   4.013   0.386   0.592
 8274WAT      O25063   0.858   4.778   5.904
 8274WAT     H125064   0.820   4.855   5.956
 8274WAT     H225065   0.863   4.804   5.807
 8275WAT      O25066   3.222   1.116   6.357
 8275WAT     H125067   3.311   1.075   6.341
 8275WAT     H225068   3.171   1.119   6.271
 8276WAT      O25069   4.340   4.683   1.401
 8276WAT     H125070   4.352   4.593   1.441
 8276WAT     H225071   4.402   4.694   1.323
 8277WAT      O25072   2.017   7.563   5.060
 8277WAT     H125073   2.039   7.504   5.137
 8277WAT     H225074   1.922   7.547   5.031
 8278WAT      O25075   1.756   8.037   3.540
 8278WAT     H125076   1.822   8.096   3.493
 8278WAT     H225077   1.705   8.091   3.607
 8279WAT      O25078   5.855   7.644   7.432
 8279WAT     H125079   5.907   7.577   7.379
 8279WAT     H225080   5.821   7.602   7.516
 8280WAT      O25081   8.424   1.945   0.878
 8280WAT     H125082   8.459   1.971   0.788
 8280WAT     H225083   8.443   2.018   0.943
 8281WAT      O25084   3.818   0.069   4.287
 8281WAT     H125085   3.750  -0.003   4.271
 8281WAT     H225086   3.902   0.048   4.238
 8282WAT      O25087   8.298   7.790   3.291
 8282WAT     H125088   8.304   7.888   3.272
 8282WAT     H225089   8.388   7.748   3.276
 8283WAT      O25090   6.896   7.280   3.710
 8283WAT     H125091   6.870   7.243   3.799
 8283WAT     H225092   6.907   7.379   3.716
 8284WAT      O25093   0.614   0.016   9.620
 8284WAT     H125094   0.544   0.052   9.682
 8284WAT     H225095   0.572  -0.003   9.531
 8285WAT      O25096   2.233   5.747   3.677
 8285WAT     H125097   2.156   5.768   3.738
 8285WAT     H225098   2.200   5.693   3.599
 8286WAT      O25099   8.468   4.247   5.949
 8286WAT     H125100   8.434   4.154   5.937
 8286WAT     H225101   8.568   4.246   5.948
 8287WAT      O25102   2.359   8.316   1.042
 8287WAT     H125103   2.337   8.368   0.960
 8287WAT     H225104   2.339   8.371   1.123
 8288WAT      O25105   3.890   1.884   0.805
 8288WAT     H125106   3.885   1.969   0.753
 8288WAT     H225107   3.821   1.885   0.877
 8289WAT      O25108   5.565   6.792   5.159
 8289WAT     H125109   5.475   6.750   5.142
 8289WAT     H225110   5.557   6.891   5.154
 8290WAT      O25111   6.773   4.980   6.914
 8290WAT     H125112   6.798   4.888   6.946
 8290WAT     H225113   6.851   5.041   6.923
 8291WAT      O25114   2.769   3.525   2.984
 8291WAT     H125115   2.672   3.543   2.997
 8291WAT     H225116   2.787   3.428   2.999
 8292WAT      O25117   4.421   9.420   4.396
 8292WAT     H125118   4.435   9.480   4.475
 8292WAT     H225119   4.437   9.325   4.425
 8293WAT      O25120   4.855   2.441   7.733
 8293WAT     H125121   4.885   2.536   7.730
 8293WAT     H225122   4.758   2.437   7.757
 8294WAT      O25123   2.936   6.659   1.472
 8294WAT     H125124   3.014   6.601   1.494
 8294WAT     H225125   2.932   6.673   1.373
 8295WAT      O25126   4.680   4.306   2.009
 8295WAT     H125127   4.617   4.313   1.931
 8295WAT     H225128   4.627   4.301   2.094
 8296WAT      O25129   5.819   6.574   7.214
 8296WAT     H125130   5.763   6.499   7.249
 8296WAT     H225131   5.838   6.638   7.288
 8297WAT      O25132   4.946   9.641   8.384
 8297WAT     H125133   4.882   9.711   8.416
 8297WAT     H225134   4.919   9.552   8.421
 8298WAT      O25135   5.181   2.975   9.436
 8298WAT     H125136   5.234   2.897   9.468
 8298WAT     H225137   5.146   2.956   9.344
 8299WAT      O25138   6.513   6.871   1.947
 8299WAT     H125139   6.539   6.779   1.917
 8299WAT     H225140   6.498   6.871   2.046
 8300WAT      O25141   4.035   9.376   1.181
 8300WAT     H125142   4.106   9.446   1.177
 8300WAT     H225143   4.025   9.334   1.090
 8301WAT      O25144   2.243   5.476   0.704
 8301WAT     H125145   2.341   5.470   0.719
 8301WAT     H225146   2.201   5.526   0.781
 8302WAT      O25147   2.629   9.216   8.369
 8302WAT     H125148   2.582   9.128   8.359
 8302WAT     H225149   2.576   9.275   8.430
 8303WAT      O25150   0.734   0.491   1.040
 8303WAT     H125151   0.655   0.547   1.063
 8303WAT     H225152   0.738   0.412   1.100
 8304WAT      O25153   7.005   9.331   9.324
 8304WAT     H125154   6.964   9.357   9.237
 8304WAT     H225155   7.093   9.378   9.334
 8305WAT      O25156   6.692   4.293   3.443
 8305WAT     H125157   6.632   4.256   3.514
 8305WAT     H225158   6.733   4.218   3.392
 8306WAT      O25159   1.300   6.693   6.602
 8306WAT     H125160   1.373   6.687   6.534
 8306WAT     H225161   1.340   6.712   6.692
 8307WAT      O25162   6.754   2.635   3.763
 8307WAT     H125163   6.790   2.576   3.690
 8307WAT     H225164   6.672   2.593   3.802
 8308WAT      O25165   6.362   9.641   9.150
 8308WAT     H125166   6.371   9.737   9.177
 8308WAT     H225167   6.383   9.632   9.053
 8309WAT      O25168   0.576   8.811   6.174
 8309WAT     H125169   0.626   8.742   6.124
 8309WAT     H225170   0.594   8.801   6.272
 8310WAT      O25171   3.691   0.588   4.598
 8310WAT     H125172   3.690   0.580   4.498
 8310WAT     H225173   3.759   0.655   4.625
 8311WAT      O25174   2.629   7.129   2.011
 8311WAT     H125175   2.659   7.189   1.937
 8311WAT     H225176   2.529   7.122   2.011
 8312WAT      O25177   3.199   0.289   5.214
 8312WAT     H125178   3.290   0.247   5.217
 8312WAT     H225179   3.131   0.221   5.186
 8313WAT      O25180   4.026   5.588   7.215
 8313WAT     H125181   4.000   5.545   7.301
 8313WAT     H225182   4.024   5.688   7.225
 8314WAT      O25183   8.079   5.228   3.068
 8314WAT     H125184   7.979   5.227   3.070
 8314WAT     H225185   8.115   5.140   3.100
 8315WAT      O25186   3.424   2.097   5.792
 8315WAT     H125187   3.341   2.093   5.737
 8315WAT     H225188   3.439   2.191   5.823
 8316WAT      O25189   2.509   5.308   0.889
 8316WAT     H125190   2.475   5.321   0.982
 8316WAT     H225191   2.509   5.395   0.841
 8317WAT      O25192   5.437   5.129   6.086
 8317WAT     H125193   5.440   5.051   6.023
 8317WAT     H225194   5.484   5.207   6.044
 8318WAT      O25195   3.603   5.596   8.587
 8318WAT     H125196   3.618   5.509   8.635
 8318WAT     H225197   3.577   5.666   8.653
 8319WAT      O25198   0.434   6.113   6.352
 8319WAT     H125199   0.340   6.082   6.368
 8319WAT     H225200   0.443   6.144   6.258
 8320WAT      O25201   0.090   3.749   9.186
 8320WAT     H125202   0.124   3.656   9.197
 8320WAT     H225203   0.133   3.808   9.255
 8321WAT      O25204   1.958   1.636   0.298
 8321WAT     H125205   1.876   1.596   0.337
 8321WAT     H225206   2.032   1.568   0.297
 8322WAT      O25207   4.053   5.522   6.756
 8322WAT     H125208   4.010   5.579   6.825
 8322WAT     H225209   4.144   5.558   6.734
 8323WAT      O25210   1.245   1.871   1.698
 8323WAT     H125211   1.253   1.772   1.686
 8323WAT     H225212   1.334   1.908   1.723
 8324WAT      O25213   7.718   5.454   1.266
 8324WAT     H125214   7.718   5.358   1.236
 8324WAT     H225215   7.792   5.469   1.331
 8325WAT      O25216   2.685   7.468   0.855
 8325WAT     H125217   2.760   7.497   0.914
 8325WAT     H225218   2.631   7.398   0.902
 8326WAT      O25219   6.760   6.883   6.385
 8326WAT     H125220   6.698   6.943   6.334
 8326WAT     H225221   6.832   6.938   6.427
 8327WAT      O25222   2.562   7.250   9.496
 8327WAT     H125223   2.524   7.209   9.413
 8327WAT     H225224   2.489   7.295   9.547
 8328WAT      O25225   6.331   4.812   3.027
 8328WAT     H125226   6.236   4.792   3.003
 8328WAT     H225227   6.372   4.731   3.069
 8329WAT      O25228   7.574   2.234   9.140
 8329WAT     H125229   7.524   2.237   9.054
 8329WAT     H225230   7.555   2.147   9.187
 8330WAT      O25231   5.656   4.909   8.421
 8330WAT     H125232   5.735   4.970   8.412
 8330WAT     H225233   5.593   4.923   8.344
 8331WAT      O25234   1.048   3.123   6.386
 8331WAT     H125235   1.062   3.186   6.463
 8331WAT     H225236   1.086   3.034   6.409
 8332WAT      O25237   2.360   1.441   6.201
 8332WAT     H125238   2.363   1.424   6.102
 8332WAT     H225239   2.442   1.490   6.230
 8333WAT      O25240   8.387   2.768   2.750
 8333WAT     H125241   8.345   2.722   2.672
 8333WAT     H225242   8.434   2.701   2.807
 8334WAT      O25243   0.349   6.805   7.184
 8334WAT     H125244   0.357   6.766   7.276
 8334WAT     H225245   0.437   6.844   7.157
 8335WAT      O25246   0.100   8.238   7.693
 8335WAT     H125247   0.051   8.292   7.762
 8335WAT     H225248   0.146   8.161   7.738
 8336WAT      O25249   9.885   2.231   8.672
 8336WAT     H125250   9.796   2.190   8.694
 8336WAT     H225251   9.946   2.161   8.637
 8337WAT      O25252   3.851   1.012   3.569
 8337WAT     H125253   3.905   1.021   3.485
 8337WAT     H225254   3.911   0.988   3.645
 8338WAT      O25255   8.746   0.412   5.746
 8338WAT     H125256   8.822   0.447   5.802
 8338WAT     H225257   8.780   0.338   5.687
 8339WAT      O25258   3.257   7.342   3.069
 8339WAT     H125259   3.327   7.366   3.135
 8339WAT     H225260   3.169   7.329   3.115
 8340WAT      O25261   1.726   8.039   4.030
 8340WAT     H125262   1.714   8.134   4.057
 8340WAT     H225263   1.814   8.005   4.066
 8341WAT      O25264   2.214   5.607   4.989
 8341WAT     H125265   2.293   5.662   5.012
 8341WAT     H225266   2.162   5.651   4.916
 8342WAT      O25267   1.939   4.098   1.119
 8342WAT     H125268   2.033   4.097   1.084
 8342WAT     H225269   1.929   4.026   1.189
 8343WAT      O25270   0.251   0.014   3.052
 8343WAT     H125271   0.183  -0.058   3.061
 8343WAT     H225272   0.260   0.063   3.139
 8344WAT      O25273   3.091   0.665   2.562
 8344WAT     H125274   3.137   0.641   2.477
 8344WAT     H225275   3.051   0.756   2.554
 8345WAT      O25276   3.547   0.656   7.215
 8345WAT     H125277   3.575   0.650   7.311
 8345WAT     H225278   3.595   0.586   7.163
 8346WAT      O25279   6.562   4.419   6.725
 8346WAT     H125280   6.518   4.386   6.809
 8346WAT     H225281   6.557   4.348   6.655
 8347WAT      O25282   4.003   0.310   4.030
 8347WAT     H125283   3.954   0.368   4.096
 8347WAT     H225284   3.940   0.243   3.992
 8348WAT      O25285   9.001   2.651   7.606
 8348WAT     H125286   9.064   2.683   7.676
 8348WAT     H225287   8.918   2.616   7.649
 8349WAT      O25288   4.531   9.287   6.493
 8349WAT     H125289   4.482   9.290   6.580
 8349WAT     H225290   4.615   9.341   6.500
 8350WAT      O25291   2.626   0.379   6.666
 8350WAT     H125292   2.714   0.423   6.680
 8350WAT     H225293   2.590   0.347   6.754
 8351WAT      O25294   1.992   4.291   4.506
 8351WAT     H125295   2.007   4.390   4.499
 8351WAT     H225296   2.078   4.245   4.525
 8352WAT      O25297   7.925   9.717   3.158
 8352WAT     H125298   7.991   9.684   3.226
 8352WAT     H225299   7.947   9.676   3.069
 8353WAT      O25300   4.313   4.842   9.523
 8353WAT     H125301   4.311   4.848   9.423
 8353WAT     H225302   4.219   4.848   9.558
 8354WAT      O25303   6.887   5.739   0.276
 8354WAT     H125304   6.793   5.708   0.259
 8354WAT     H225305   6.950   5.662   0.265
 8355WAT      O25306   5.288   3.882   7.994
 8355WAT     H125307   5.267   3.902   7.898
 8355WAT     H225308   5.276   3.965   8.048
 8356WAT      O25309   2.512   0.405   4.882
 8356WAT     H125310   2.587   0.397   4.947
 8356WAT     H225311   2.459   0.487   4.901
 8357WAT      O25312   1.136   6.833   6.187
 8357WAT     H125313   1.057   6.850   6.128
 8357WAT     H225314   1.150   6.734   6.195
 8358WAT      O25315   6.077   3.382   4.117
 8358WAT     H125316   6.042   3.342   4.032
 8358WAT     H225317   6.168   3.346   4.137
 8359WAT      O25318   4.015   5.788   7.530
 8359WAT     H125319   3.930   5.780   7.478
 8359WAT     H225320   4.032   5.884   7.553
 8360WAT      O25321   2.515   6.994   6.643
 8360WAT     H125322   2.428   6.985   6.690
 8360WAT     H225323   2.509   6.952   6.552
 8361WAT      O25324   5.600   7.918   8.895
 8361WAT     H125325   5.676   7.892   8.836
 8361WAT     H225326   5.622   8.003   8.942
 8362WAT      O25327   5.753   8.134   9.021
 8362WAT     H125328   5.843   8.173   9.003
 8362WAT     H225329   5.762   8.055   9.081
 8363WAT      O25330   4.238   3.420   1.318
 8363WAT     H125331   4.314   3.469   1.275
 8363WAT     H225332   4.219   3.459   1.408
 8364WAT      O25333   7.350   2.044   4.483
 8364WAT     H125334   7.412   2.096   4.542
 8364WAT     H225335   7.257   2.048   4.520
 8365WAT      O25336   3.897   8.360   6.711
 8365WAT     H125337   3.838   8.279   6.717
 8365WAT     H225338   3.957   8.352   6.632
 8366WAT      O25339   9.049   1.988   7.342
 8366WAT     H125340   8.973   1.933   7.308
 8366WAT     H225341   9.135   1.954   7.303
 8367WAT      O25342   7.517   2.214   1.859
 8367WAT     H125343   7.504   2.139   1.924
 8367WAT     H225344   7.594   2.193   1.798
 8368WAT      O25345   9.199   9.592   6.849
 8368WAT     H125346   9.244   9.611   6.761
 8368WAT     H225347   9.267   9.594   6.922
 8369WAT      O25348   3.712   7.021   5.360
 8369WAT     H125349   3.796   7.074   5.348
 8369WAT     H225350   3.660   7.020   5.275
 8370WAT      O25351   1.728   1.936   7.402
 8370WAT     H125352   1.776   1.853   7.430
 8370WAT     H225353   1.744   1.953   7.305
 8371WAT      O25354   0.725   6.855   5.373
 8371WAT     H125355   0.814   6.823   5.341
 8371WAT     H225356   0.737   6.927   5.442
 8372WAT      O25357   6.057   5.140   6.535
 8372WAT     H125358   5.983   5.199   6.505
 8372WAT     H225359   6.078   5.159   6.631
 8373WAT      O25360   0.942   4.746   6.534
 8373WAT     H125361   0.949   4.703   6.624
 8373WAT     H225362   1.033   4.763   6.497
 8374WAT      O25363   7.294   5.167   9.736
 8374WAT     H125364   7.302   5.240   9.668
 8374WAT     H225365   7.222   5.190   9.802
 8375WAT      O25366   0.376   4.988   4.825
 8375WAT     H125367   0.416   5.068   4.779
 8375WAT     H225368   0.410   4.905   4.782
 8376WAT      O25369   4.633   1.076   8.831
 8376WAT     H125370   4.689   1.031   8.762
 8376WAT     H225371   4.645   1.030   8.919
 8377WAT      O25372   5.008   9.687   2.189
 8377WAT     H125373   4.978   9.751   2.118
 8377WAT     H225374   5.082   9.729   2.243
 8378WAT      O25375   2.476   1.675   6.776
 8378WAT     H125376   2.520   1.757   6.738
 8378WAT     H225377   2.422   1.630   6.704
 8379WAT      O25378   8.078   4.239   5.163
 8379WAT     H125379   7.988   4.237   5.121
 8379WAT     H225380   8.146   4.201   5.100
 8380WAT      O25381   8.903   1.201   9.789
 8380WAT     H125382   8.838   1.268   9.824
 8380WAT     H225383   8.983   1.249   9.752
 8381WAT      O25384   2.081   3.195   2.500
 8381WAT     H125385   2.027   3.123   2.456
 8381WAT     H225386   2.083   3.180   2.599
 8382WAT      O25387   5.065   3.183   2.481
 8382WAT     H125388   5.139   3.184   2.548
 8382WAT     H225389   4.983   3.143   2.521
 8383WAT      O25390   4.088   2.422   8.200
 8383WAT     H125391   4.051   2.333   8.175
 8383WAT     H225392   4.153   2.452   8.130
 8384WAT      O25393   7.967   1.841   4.197
 8384WAT     H125394   8.018   1.756   4.209
 8384WAT     H225395   7.910   1.834   4.115
 8385WAT      O25396   1.683   7.487   6.394
 8385WAT     H125397   1.651   7.402   6.353
 8385WAT     H225398   1.730   7.467   6.479
 8386WAT      O25399   9.067   8.783   3.984
 8386WAT     H125400   9.135   8.742   4.045
 8386WAT     H225401   9.086   8.756   3.890
 8387WAT      O25402   2.986   4.616   8.304
 8387WAT     H125403   3.056   4.570   8.359
 8387WAT     H225404   3.029   4.657   8.224
 8388WAT      O25405   3.235   9.333   1.353
 8388WAT     H125406   3.198   9.310   1.444
 8388WAT     H225407   3.325   9.376   1.364
 8389WAT      O25408   4.027   2.793   1.429
 8389WAT     H125409   4.041   2.882   1.384
 8389WAT     H225410   3.946   2.799   1.488
 8390WAT      O25411   0.774   7.049   0.367
 8390WAT     H125412   0.845   7.110   0.400
 8390WAT     H225413   0.730   7.089   0.287
 8391WAT      O25414   4.675   7.241   9.292
 8391WAT     H125415   4.703   7.232   9.388
 8391WAT     H225416   4.746   7.290   9.241
 8392WAT      O25417   2.012   6.816   2.065
 8392WAT     H125418   2.055   6.755   2.131
 8392WAT     H225419   1.912   6.810   2.074
 8393WAT      O25420   5.534   0.575   2.623
 8393WAT     H125421   5.598   0.525   2.564
 8393WAT     H225422   5.506   0.515   2.698
 8394WAT      O25423   0.824   4.687   4.042
 8394WAT     H125424   0.797   4.623   4.114
 8394WAT     H225425   0.912   4.727   4.066
 8395WAT      O25426   5.536   3.739   4.007
 8395WAT     H125427   5.634   3.722   3.997
 8395WAT     H225428   5.486   3.654   3.988
 8396WAT      O25429   0.835   3.551   6.010
 8396WAT     H125430   0.744   3.545   6.050
 8396WAT     H225431   0.828   3.566   5.912
 8397WAT      O25432   8.464   5.248   3.274
 8397WAT     H125433   8.450   5.223   3.370
 8397WAT     H225434   8.546   5.304   3.265
 8398WAT      O25435   9.165   3.409   2.278
 8398WAT     H125436   9.081   3.366   2.245
 8398WAT     H225437   9.165   3.410   2.378
 8399WAT      O25438   6.937   2.678   9.252
 8399WAT     H125439   7.024   2.684   9.301
 8399WAT     H225440   6.913   2.768   9.216
 8400WAT      O25441   4.900   3.018   1.780
 8400WAT     H125442   4.969   2.992   1.712
 8400WAT     H225443   4.865   2.936   1.825
 8401WAT      O25444   3.532   4.426   4.269
 8401WAT     H125445   3.480   4.442   4.184
 8401WAT     H225446   3.606   4.493   4.276
 8402WAT      O25447   8.474   9.407   5.642
 8402WAT     H125448   8.535   9.487   5.639
 8402WAT     H225449   8.380   9.438   5.653
 8403WAT      O25450   6.502   5.179   3.752
 8403WAT     H125451   6.512   5.277   3.738
 8403WAT     H225452   6.508   5.158   3.850
 8404WAT      O25453   1.321   2.227   2.737
 8404WAT     H125454   1.363   2.164   2.802
 8404WAT     H225455   1.338   2.195   2.644
 8405WAT      O25456   7.386   2.149   5.165
 8405WAT     H125457   7.363   2.244   5.186
 8405WAT     H225458   7.460   2.119   5.226
 8406WAT      O25459   2.064   7.162   3.235
 8406WAT     H125460   1.999   7.142   3.309
 8406WAT     H225461   2.019   7.149   3.147
 8407WAT      O25462   3.585   4.535   6.072
 8407WAT     H125463   3.516   4.562   6.139
 8407WAT     H225464   3.542   4.485   5.998
 8408WAT      O25465   8.694   3.800   5.558
 8408WAT     H125466   8.754   3.816   5.480
 8408WAT     H225467   8.656   3.887   5.589
 8409WAT      O25468   4.934   7.803   2.143
 8409WAT     H125469   4.972   7.721   2.101
 8409WAT     H225470   4.987   7.826   2.225
 8410WAT      O25471   7.209   4.986   4.409
 8410WAT     H125472   7.134   4.997   4.343
 8410WAT     H225473   7.176   4.937   4.489
 8411WAT      O25474   3.374   7.349   5.906
 8411WAT     H125475   3.399   7.422   5.843
 8411WAT     H225476   3.326   7.276   5.857
 8412WAT      O25477   1.331   6.361   3.790
 8412WAT     H125478   1.429   6.345   3.776
 8412WAT     H225479   1.319   6.435   3.856
 8413WAT      O25480   6.910   1.272   4.417
 8413WAT     H125481   6.905   1.177   4.386
 8413WAT     H225482   6.837   1.325   4.374
 8414WAT      O25483   8.503   2.685   6.037
 8414WAT     H125484   8.585   2.712   5.986
 8414WAT     H225485   8.523   2.686   6.135
 8415WAT      O25486   0.909   7.674   0.580
 8415WAT     H125487   1.009   7.672   0.587
 8415WAT     H225488   0.882   7.648   0.487
 8416WAT      O25489   7.013   5.001   0.938
 8416WAT     H125490   7.030   4.903   0.943
 8416WAT     H225491   6.930   5.023   0.990
 8417WAT      O25492   1.512   1.546   7.870
 8417WAT     H125493   1.510   1.555   7.770
 8417WAT     H225494   1.433   1.594   7.909
 8418WAT      O25495   8.710   8.601   2.499
 8418WAT     H125496   8.754   8.629   2.585
 8418WAT     H225497   8.733   8.506   2.480
 8419WAT      O25498   5.364   8.800   4.546
 8419WAT     H125499   5.272   8.818   4.579
 8419WAT     H225500   5.428   8.862   4.591
 8420WAT      O25501   7.972   2.321   0.085
 8420WAT     H125502   7.925   2.355   0.004
 8420WAT     H225503   8.069   2.310   0.066
 8421WAT      O25504   0.244   8.302   3.064
 8421WAT     H125505   0.171   8.236   3.080
 8421WAT     H225506   0.261   8.309   2.966
 8422WAT      O25507   4.369   3.022   4.313
 8422WAT     H125508   4.434   3.097   4.301
 8422WAT     H225509   4.379   2.983   4.404
 8423WAT      O25510   5.361   7.483   8.369
 8423WAT     H125511   5.312   7.560   8.409
 8423WAT     H225512   5.412   7.435   8.440
 8424WAT      O25513   8.496   8.647   2.912
 8424WAT     H125514   8.500   8.548   2.923
 8424WAT     H225515   8.509   8.691   3.001
 8425WAT      O25516   0.201   8.878   0.547
 8425WAT     H125517   0.109   8.877   0.509
 8425WAT     H225518   0.266   8.907   0.475
 8426WAT      O25519   9.568   8.115   9.052
 8426WAT     H125520   9.649   8.169   9.034
 8426WAT     H225521   9.592   8.035   9.108
 8427WAT      O25522   6.487   5.411   9.011
 8427WAT     H125523   6.576   5.372   9.034
 8427WAT     H225524   6.484   5.507   9.039
 8428WAT      O25525   1.946   9.640   0.956
 8428WAT     H125526   1.948   9.556   1.010
 8428WAT     H225527   1.993   9.713   1.006
 8429WAT      O25528   6.693   8.336   8.344
 8429WAT     H125529   6.772   8.388   8.314
 8429WAT     H225530   6.694   8.327   8.444
 8430WAT      O25531   8.832   1.827   9.336
 8430WAT     H125532   8.868   1.765   9.406
 8430WAT     H225533   8.804   1.773   9.257
 8431WAT      O25534   4.133   1.233   6.053
 8431WAT     H125535   4.231   1.215   6.061
 8431WAT     H225536   4.087   1.201   6.136
 8432WAT      O25537   0.094   1.542   9.415
 8432WAT     H125538   0.084   1.634   9.451
 8432WAT     H225539   0.190   1.523   9.396
 8433WAT      O25540   8.616   0.657   0.977
 8433WAT     H125541   8.701   0.618   0.942
 8433WAT     H225542   8.539   0.600   0.949
 8434WAT      O25543   8.422   2.882   1.516
 8434WAT     H125544   8.415   2.815   1.590
 8434WAT     H225545   8.444   2.835   1.430
 8435WAT      O25546   9.279   5.130   4.060
 8435WAT     H125547   9.205   5.064   4.047
 8435WAT     H225548   9.366   5.088   4.033
 8436WAT      O25549   4.277   1.695   4.509
 8436WAT     H125550   4.238   1.621   4.564
 8436WAT     H225551   4.241   1.783   4.541
 8437WAT      O25552   4.308   0.267   6.446
 8437WAT     H125553   4.340   0.244   6.538
 8437WAT     H225554   4.324   0.190   6.384
 8438WAT      O25555   5.385   2.831   6.794
 8438WAT     H125556   5.473   2.877   6.785
 8438WAT     H225557   5.396   2.734   6.770
 8439WAT      O25558   5.350   0.189   8.033
 8439WAT     H125559   5.383   0.252   7.963
 8439WAT     H225560   5.272   0.138   7.997
 8440WAT      O25561   5.184   5.147   5.151
 8440WAT     H125562   5.208   5.139   5.054
 8440WAT     H225563   5.213   5.236   5.186
 8441WAT      O25564   7.342   2.846   6.017
 8441WAT     H125565   7.429   2.852   5.968
 8441WAT     H225566   7.276   2.908   5.975
 8442WAT      O25567   8.163   0.778   1.533
 8442WAT     H125568   8.129   0.761   1.440
 8442WAT     H225569   8.259   0.752   1.539
 8443WAT      O25570   0.177   3.506   0.525
 8443WAT     H125571   0.129   3.419   0.524
 8443WAT     H225572   0.271   3.494   0.493
 8444WAT      O25573   7.108   6.134   7.171
 8444WAT     H125574   7.098   6.211   7.107
 8444WAT     H225575   7.111   6.048   7.119
 8445WAT      O25576   8.781   7.865   9.036
 8445WAT     H125577   8.801   7.854   9.134
 8445WAT     H225578   8.865   7.852   8.984
 8446WAT      O25579   8.218   4.674   3.415
 8446WAT     H125580   8.177   4.707   3.500
 8446WAT     H225581   8.147   4.658   3.347
 8447WAT      O25582   1.109   2.864   3.208
 8447WAT     H125583   1.164   2.902   3.282
 8447WAT     H225584   1.140   2.771   3.188
 8448WAT      O25585   5.400   1.857   9.810
 8448WAT     H125586   5.499   1.869   9.801
 8448WAT     H225587   5.353   1.918   9.745
 8449WAT      O25588   0.476   8.724   9.318
 8449WAT     H125589   0.427   8.793   9.371
 8449WAT     H225590   0.440   8.633   9.340
 8450WAT      O25591   3.210   7.289   7.627
 8450WAT     H125592   3.270   7.230   7.680
 8450WAT     H225593   3.141   7.233   7.580
 8451WAT      O25594   2.515   0.694   8.612
 8451WAT     H125595   2.444   0.744   8.661
 8451WAT     H225596   2.508   0.596   8.633
 8452WAT      O25597   8.754   3.760   1.441
 8452WAT     H125598   8.671   3.775   1.388
 8452WAT     H225599   8.763   3.832   1.511
 8453WAT      O25600   0.759   5.527   4.693
 8453WAT     H125601   0.820   5.576   4.755
 8453WAT     H225602   0.796   5.531   4.600
 8454WAT      O25603   7.088   2.192   4.378
 8454WAT     H125604   7.058   2.262   4.443
 8454WAT     H225605   7.172   2.221   4.333
 8455WAT      O25606   1.090   7.022   2.803
 8455WAT     H125607   1.169   7.066   2.846
 8455WAT     H225608   1.110   7.007   2.706
 8456WAT      O25609   9.164   8.484   6.048
 8456WAT     H125610   9.189   8.573   6.087
 8456WAT     H225611   9.103   8.497   5.970
 8457WAT      O25612   8.802   5.688   6.451
 8457WAT     H125613   8.826   5.594   6.425
 8457WAT     H225614   8.743   5.728   6.381
 8458WAT      O25615   4.600   5.830   0.215
 8458WAT     H125616   4.594   5.736   0.249
 8458WAT     H225617   4.693   5.849   0.185
 8459WAT      O25618   2.724   9.743   5.488
 8459WAT     H125619   2.625   9.738   5.496
 8459WAT     H225620   2.751   9.726   5.393
 8460WAT      O25621   5.662   1.371   6.735
 8460WAT     H125622   5.652   1.275   6.761
 8460WAT     H225623   5.586   1.399   6.677
 8461WAT      O25624   4.079   8.056   1.038
 8461WAT     H125625   4.094   8.154   1.049
 8461WAT     H225626   4.129   8.022   0.959
 8462WAT      O25627   2.328   6.607   6.069
 8462WAT     H125628   2.274   6.644   6.144
 8462WAT     H225629   2.319   6.508   6.067
 8463WAT      O25630   7.128   5.300   9.104
 8463WAT     H125631   7.139   5.328   9.200
 8463WAT     H225632   7.205   5.336   9.051
 8464WAT      O25633   2.507   9.255   0.615
 8464WAT     H125634   2.503   9.337   0.558
 8464WAT     H225635   2.529   9.176   0.558
 8465WAT      O25636   1.911   3.314   3.856
 8465WAT     H125637   1.991   3.374   3.860
 8465WAT     H225638   1.931   3.228   3.903
 8466WAT      O25639   0.400   9.623   7.718
 8466WAT     H125640   0.365   9.531   7.700
 8466WAT     H225641   0.423   9.667   7.631
 8467WAT      O25642   8.994   7.949   3.777
 8467WAT     H125643   9.074   7.966   3.719
 8467WAT     H225644   9.023   7.940   3.872
 8468WAT      O25645   6.808   8.900   0.680
 8468WAT     H125646   6.863   8.937   0.755
 8468WAT     H225647   6.764   8.975   0.631
 8469WAT      O25648   2.784   4.486   0.755
 8469WAT     H125649   2.775   4.579   0.720
 8469WAT     H225650   2.874   4.475   0.797
 8470WAT      O25651   5.412   5.229   8.423
 8470WAT     H125652   5.403   5.302   8.356
 8470WAT     H225653   5.497   5.242   8.475
 8471WAT      O25654   5.788   7.605   1.409
 8471WAT     H125655   5.803   7.546   1.487
 8471WAT     H225656   5.713   7.568   1.353
 8472WAT      O25657   4.647   0.740   6.296
 8472WAT     H125658   4.566   0.707   6.248
 8472WAT     H225659   4.648   0.704   6.389
 8473WAT      O25660   5.702   0.905   3.398
 8473WAT     H125661   5.632   0.973   3.419
 8473WAT     H225662   5.737   0.866   3.483
 8474WAT      O25663   3.208   4.516   4.772
 8474WAT     H125664   3.266   4.496   4.692
 8474WAT     H225665   3.232   4.453   4.846
 8475WAT      O25666   1.664   3.459   9.268
 8475WAT     H125667   1.707   3.398   9.334
 8475WAT     H225668   1.705   3.444   9.178
 8476WAT      O25669   1.296   1.953   7.250
 8476WAT     H125670   1.228   2.024   7.266
 8476WAT     H225671   1.315   1.904   7.335
 8477WAT      O25672   7.767   7.286   8.920
 8477WAT     H125673   7.675   7.247   8.927
 8477WAT     H225674   7.812   7.281   9.009
 8478WAT      O25675   2.590   5.595   1.232
 8478WAT     H125676   2.527   5.646   1.173
 8478WAT     H225677   2.670   5.651   1.253
 8479WAT      O25678   3.195   5.977   8.844
 8479WAT     H125679   3.103   5.994   8.809
 8479WAT     H225680   3.206   5.880   8.864
 8480WAT      O25681   9.476   4.719   7.054
 8480WAT     H125682   9.554   4.782   7.060
 8480WAT     H225683   9.509   4.628   7.030
 8481WAT      O25684   0.610   2.308   8.731
 8481WAT     H125685   0.697   2.339   8.770
 8481WAT     H225686   0.586   2.219   8.771
 8482WAT      O25687   3.530   6.160   6.942
 8482WAT     H125688   3.431   6.160   6.935
 8482WAT     H225689   3.560   6.244   6.987
 8483WAT      O25690   2.244   0.776   4.799
 8483WAT     H125691   2.170   0.774   4.731
 8483WAT     H225692   2.219   0.717   4.876
 8484WAT      O25693   7.761   9.086   7.075
 8484WAT     H125694   7.666   9.118   7.081
 8484WAT     H225695   7.765   8.989   7.098
 8485WAT      O25696   0.463   1.131   0.315
 8485WAT     H125697   0.455   1.166   0.408
 8485WAT     H225698   0.374   1.098   0.283
 8486WAT      O25699   6.435   0.199   8.603
 8486WAT     H125700   6.358   0.258   8.580
 8486WAT     H225701   6.512   0.220   8.543
 8487WAT      O25702   6.714   3.596   1.307
 8487WAT     H125703   6.739   3.500   1.305
 8487WAT     H225704   6.788   3.651   1.268
 8488WAT      O25705   1.285   2.880   1.414
 8488WAT     H125706   1.355   2.911   1.477
 8488WAT     H225707   1.249   2.792   1.445
 8489WAT      O25708   1.148   1.038   9.637
 8489WAT     H125709   1.209   1.115   9.622
 8489WAT     H225710   1.077   1.063   9.703
 8490WAT      O25711   7.174   8.501   7.862
 8490WAT     H125712   7.230   8.581   7.882
 8490WAT     H225713   7.084   8.531   7.831
 8491WAT      O25714   1.870   1.127   0.824
 8491WAT     H125715   1.786   1.180   0.813
 8491WAT     H225716   1.864   1.044   0.769
 8492WAT      O25717   2.477   8.524   2.738
 8492WAT     H125718   2.498   8.441   2.686
 8492WAT     H225719   2.469   8.503   2.835
 8493WAT      O25720   3.195   2.985   4.584
 8493WAT     H125721   3.117   2.925   4.568
 8493WAT     H225722   3.231   3.016   4.496
 8494WAT      O25723   8.299   4.256   9.086
 8494WAT     H125724   8.217   4.241   9.141
 8494WAT     H225725   8.356   4.175   9.087
 8495WAT      O25726   1.076   3.143   7.746
 8495WAT     H125727   1.162   3.134   7.695
 8495WAT     H225728   1.008   3.082   7.706
 8496WAT      O25729   5.446   5.725   7.441
 8496WAT     H125730   5.398   5.638   7.427
 8496WAT     H225731   5.532   5.708   7.489
 8497WAT      O25732   8.963   8.454   2.010
 8497WAT     H125733   8.944   8.549   1.982
 8497WAT     H225734   9.010   8.454   2.098
 8498WAT      O25735   2.793   6.895   1.612
 8498WAT     H125736   2.709   6.856   1.649
 8498WAT     H225737   2.853   6.822   1.581
 8499WAT      O25738   4.868   6.945   3.856
 8499WAT     H125739   4.910   6.982   3.939
 8499WAT     H225740   4.936   6.893   3.804
 8500WAT      O25741   0.172   5.760   8.806
 8500WAT     H125742   0.241   5.818   8.849
 8500WAT     H225743   0.182   5.764   8.707
 8501WAT      O25744   2.997   5.227   1.113
 8501WAT     H125745   2.898   5.215   1.104
 8501WAT     H225746   3.033   5.268   1.030
 8502WAT      O25747   7.330   6.078   7.356
 8502WAT     H125748   7.252   6.100   7.298
 8502WAT     H225749   7.318   5.986   7.393
 8503WAT      O25750   6.930   2.009   8.489
 8503WAT     H125751   6.888   2.012   8.398
 8503WAT     H225752   7.014   2.063   8.489
 8504WAT      O25753   7.402   8.688   5.834
 8504WAT     H125754   7.350   8.762   5.876
 8504WAT     H225755   7.493   8.721   5.808
 8505WAT      O25756   5.361   2.502   4.059
 8505WAT     H125757   5.417   2.432   4.016
 8505WAT     H225758   5.346   2.577   3.993
 8506WAT      O25759   3.326   4.774   4.311
 8506WAT     H125760   3.393   4.756   4.239
 8506WAT     H225761   3.369   4.830   4.383
 8507WAT      O25762   0.724   5.821   4.464
 8507WAT     H125763   0.803   5.760   4.470
 8507WAT     H225764   0.694   5.847   4.556
 8508WAT      O25765   1.094   1.460   9.221
 8508WAT     H125766   1.181   1.507   9.232
 8508WAT     H225767   1.097   1.373   9.270
 8509WAT      O25768   7.499   8.694   1.953
 8509WAT     H125769   7.475   8.638   1.874
 8509WAT     H225770   7.498   8.638   2.035
 8510WAT      O25771   7.699   6.015   9.726
 8510WAT     H125772   7.772   5.991   9.790
 8510WAT     H225773   7.730   6.089   9.667
 8511WAT      O25774   4.584   5.449   7.942
 8511WAT     H125775   4.674   5.442   7.899
 8511WAT     H225776   4.581   5.391   8.023
 8512WAT      O25777   5.025   1.952   1.791
 8512WAT     H125778   5.121   1.980   1.787
 8512WAT     H225779   5.001   1.929   1.886
 8513WAT      O25780   8.025   8.447   6.924
 8513WAT     H125781   7.996   8.533   6.882
 8513WAT     H225782   7.992   8.443   7.019
 8514WAT      O25783   4.687   8.780   9.884
 8514WAT     H125784   4.645   8.851   9.828
 8514WAT     H225785   4.640   8.775   9.972
 8515WAT      O25786   4.259   3.715   7.911
 8515WAT     H125787   4.246   3.663   7.827
 8515WAT     H225788   4.174   3.762   7.934
 8516WAT      O25789   3.255   0.459   9.556
 8516WAT     H125790   3.206   0.372   9.546
 8516WAT     H225791   3.194   0.535   9.531
 8517WAT      O25792   4.411   4.255   7.348
 8517WAT     H125793   4.409   4.308   7.263
 8517WAT     H225794   4.462   4.306   7.417
 8518WAT      O25795   8.129   1.590   7.520
 8518WAT     H125796   8.032   1.610   7.503
 8518WAT     H225797   8.141   1.491   7.524
 8519WAT      O25798   5.854   7.734   9.483
 8519WAT     H125799   5.809   7.789   9.553
 8519WAT     H225800   5.826   7.638   9.493
 8520WAT      O25801   6.258   2.527   2.792
 8520WAT     H125802   6.208   2.449   2.755
 8520WAT     H225803   6.247   2.606   2.732
 8521WAT      O25804   8.002   4.926   0.483
 8521WAT     H125805   8.068   4.893   0.415
 8521WAT     H225806   7.945   4.850   0.513
 8522WAT      O25807   5.875   9.259   1.517
 8522WAT     H125808   5.925   9.309   1.447
 8522WAT     H225809   5.844   9.323   1.588
 8523WAT      O25810   6.773   9.345   5.506
 8523WAT     H125811   6.716   9.318   5.584
 8523WAT     H225812   6.847   9.278   5.494
 8524WAT      O25813   7.721   5.346   6.482
 8524WAT     H125814   7.648   5.322   6.418
 8524WAT     H225815   7.694   5.428   6.534
 8525WAT      O25816   9.710   9.573   1.302
 8525WAT     H125817   9.711   9.530   1.212
 8525WAT     H225818   9.626   9.547   1.350
 8526WAT      O25819   7.359   6.482   2.854
 8526WAT     H125820   7.286   6.529   2.805
 8526WAT     H225821   7.341   6.384   2.858
 8527WAT      O25822   0.509   8.608   1.004
 8527WAT     H125823   0.510   8.702   1.038
 8527WAT     H225824   0.562   8.550   1.066
 8528WAT      O25825   6.086   8.297   9.869
 8528WAT     H125826   6.014   8.317   9.803
 8528WAT     H225827   6.055   8.324   9.960
 8529WAT      O25828   3.086   6.467   9.619
 8529WAT     H125829   3.027   6.543   9.594
 8529WAT     H225830   3.182   6.493   9.604
 8530WAT      O25831   4.154   1.870   2.618
 8530WAT     H125832   4.088   1.888   2.691
 8530WAT     H225833   4.106   1.855   2.532
 8531WAT      O25834   4.935   2.669   4.057
 8531WAT     H125835   4.841   2.640   4.042
 8531WAT     H225836   4.972   2.623   4.138
 8532WAT      O25837   3.822   1.407   1.751
 8532WAT     H125838   3.842   1.477   1.682
 8532WAT     H225839   3.880   1.327   1.735
 8533WAT      O25840   5.790   9.054   7.882
 8533WAT     H125841   5.847   9.101   7.815
 8533WAT     H225842   5.707   9.020   7.837
 8534WAT      O25843   6.229   7.431   2.187
 8534WAT     H125844   6.164   7.497   2.224
 8534WAT     H225845   6.201   7.405   2.095
 8535WAT      O25846   0.389   4.039   0.361
 8535WAT     H125847   0.385   3.940   0.347
 8535WAT     H225848   0.426   4.059   0.452
 8536WAT      O25849   3.053   1.491   6.224
 8536WAT     H125850   3.046   1.425   6.299
 8536WAT     H225851   3.123   1.460   6.159
 8537WAT      O25852   1.658   7.520   9.843
 8537WAT     H125853   1.559   7.518   9.855
 8537WAT     H225854   1.692   7.427   9.825
 8538WAT      O25855   4.841   2.792   2.762
 8538WAT     H125856   4.909   2.756   2.699
 8538WAT     H225857   4.767   2.727   2.773
 8539WAT      O25858   4.599   6.921   4.555
 8539WAT     H125859   4.660   6.844   4.534
 8539WAT     H225860   4.590   6.930   4.654
 8540WAT      O25861   3.684   4.944   4.917
 8540WAT     H125862   3.693   4.902   5.008
 8540WAT     H225863   3.774   4.974   4.885
 8541WAT      O25864   5.648   5.313   4.833
 8541WAT     H125865   5.730   5.317   4.890
 8541WAT     H225866   5.642   5.223   4.790
 8542WAT      O25867   2.882   1.129   7.601
 8542WAT     H125868   2.846   1.208   7.650
 8542WAT     H225869   2.915   1.157   7.511
 8543WAT      O25870   8.568   0.162   0.643
 8543WAT     H125871   8.505   0.239   0.653
 8543WAT     H225872   8.516   0.078   0.624
 8544WAT      O25873   1.657   8.513   5.201
 8544WAT     H125874   1.749   8.545   5.176
 8544WAT     H225875   1.623   8.567   5.278
 8545WAT      O25876   5.991   3.448   1.883
 8545WAT     H125877   5.910   3.459   1.941
 8545WAT     H225878   5.977   3.372   1.820
 8546WAT      O25879   0.884   8.493   7.377
 8546WAT     H125880   0.934   8.413   7.343
 8546WAT     H225881   0.925   8.576   7.340
 8547WAT      O25882   7.486   4.661   2.409
 8547WAT     H125883   7.449   4.735   2.466
 8547WAT     H225884   7.417   4.589   2.399
 8548WAT      O25885   8.707   9.207   8.814
 8548WAT     H125886   8.663   9.133   8.866
 8548WAT     H225887   8.755   9.168   8.735
 8549WAT      O25888   2.131   2.275   2.583
 8549WAT     H125889   2.165   2.211   2.514
 8549WAT     H225890   2.048   2.238   2.626
 8550WAT      O25891   0.616   3.984   2.855
 8550WAT     H125892   0.577   4.021   2.939
 8550WAT     H225893   0.694   3.926   2.879
 8551WAT      O25894   8.339   9.316   7.897
 8551WAT     H125895   8.338   9.245   7.967
 8551WAT     H225896   8.400   9.390   7.924
 8552WAT      O25897   9.530   8.158   5.913
 8552WAT     H125898   9.548   8.256   5.919
 8552WAT     H225899   9.432   8.144   5.899
 8553WAT      O25900   6.419   8.153   1.023
 8553WAT     H125901   6.336   8.110   0.986
 8553WAT     H225902   6.469   8.086   1.078
 8554WAT      O25903   9.232   2.413   2.842
 8554WAT     H125904   9.259   2.490   2.899
 8554WAT     H225905   9.256   2.431   2.746
 8555WAT      O25906   3.093   4.192   2.701
 8555WAT     H125907   3.042   4.188   2.787
 8555WAT     H225908   3.179   4.241   2.715
 8556WAT      O25909   9.705   3.500   8.326
 8556WAT     H125910   9.683   3.597   8.310
 8556WAT     H225911   9.752   3.490   8.414
 8557WAT      O25912   0.804   4.606   2.585
 8557WAT     H125913   0.882   4.619   2.646
 8557WAT     H225914   0.720   4.601   2.640
 8558WAT      O25915   5.914   9.623   5.549
 8558WAT     H125916   5.980   9.563   5.593
 8558WAT     H225917   5.961   9.692   5.495
 8559WAT      O25918   9.229   1.181   2.976
 8559WAT     H125919   9.310   1.124   2.961
 8559WAT     H225920   9.149   1.138   2.934
 8560WAT      O25921   1.372   0.343   9.421
 8560WAT     H125922   1.434   0.375   9.492
 8560WAT     H225923   1.287   0.396   9.423
 8561WAT      O25924   4.437   7.022   3.626
 8561WAT     H125925   4.449   7.104   3.682
 8561WAT     H225926   4.523   6.997   3.583
 8562WAT      O25927   7.017   2.800   0.681
 8562WAT     H125928   6.990   2.734   0.611
 8562WAT     H225929   7.026   2.890   0.640
 8563WAT      O25930   7.177   1.748   0.598
 8563WAT     H125931   7.202   1.732   0.502
 8563WAT     H225932   7.244   1.810   0.640
 8564WAT      O25933   1.857   3.689   9.444
 8564WAT     H125934   1.911   3.705   9.526
 8564WAT     H225935   1.899   3.616   9.390
 8565WAT      O25936   2.574   8.633   4.339
 8565WAT     H125937   2.630   8.563   4.295
 8565WAT     H225938   2.480   8.624   4.309
 8566WAT      O25939   7.924   8.858   1.672
 8566WAT     H125940   7.836   8.857   1.719
 8566WAT     H225941   7.998   8.841   1.737
 8567WAT      O25942   4.769   4.020   2.654
 8567WAT     H125943   4.762   3.932   2.607
 8567WAT     H225944   4.734   4.093   2.596
 8568WAT      O25945   7.064   2.104   3.330
 8568WAT     H125946   7.162   2.084   3.318
 8568WAT     H225947   7.021   2.112   3.240
 8569WAT      O25948   8.997   4.996   8.539
 8569WAT     H125949   8.965   5.038   8.624
 8569WAT     H225950   8.941   4.916   8.518
 8570WAT      O25951   7.220   0.409   1.261
 8570WAT     H125952   7.249   0.504   1.250
 8570WAT     H225953   7.238   0.379   1.355
 8571WAT      O25954   8.030   7.732   4.742
 8571WAT     H125955   8.027   7.658   4.811
 8571WAT     H225956   8.033   7.692   4.651
 8572WAT      O25957   6.821   3.082   5.621
 8572WAT     H125958   6.737   3.058   5.572
 8572WAT     H225959   6.809   3.066   5.719
 8573WAT      O25960   6.166   0.141   1.381
 8573WAT     H125961   6.265   0.145   1.369
 8573WAT     H225962   6.124   0.222   1.342
 8574WAT      O25963   0.893   9.414   2.761
 8574WAT     H125964   0.845   9.404   2.849
 8574WAT     H225965   0.826   9.413   2.687
 8575WAT      O25966   3.356   1.037   8.772
 8575WAT     H125967   3.285   1.075   8.830
 8575WAT     H225968   3.446   1.058   8.810
 8576WAT      O25969   6.526   1.974   8.515
 8576WAT     H125970   6.553   2.030   8.437
 8576WAT     H225971   6.601   1.971   8.581
 8577WAT      O25972   9.743   6.989   6.344
 8577WAT     H125973   9.739   7.020   6.249
 8577WAT     H225974   9.798   7.054   6.398
 8578WAT      O25975   9.463   5.105   5.592
 8578WAT     H125976   9.403   5.160   5.534
 8578WAT     H225977   9.420   5.016   5.608
 8579WAT      O25978   8.643   7.773   2.746
 8579WAT     H125979   8.666   7.773   2.844
 8579WAT     H225980   8.649   7.866   2.711
 8580WAT      O25981   8.707   5.276   9.296
 8580WAT     H125982   8.720   5.313   9.388
 8580WAT     H225983   8.746   5.184   9.291
 8581WAT      O25984   3.754   9.776   0.446
 8581WAT     H125985   3.733   9.828   0.529
 8581WAT     H225986   3.849   9.745   0.449
 8582WAT      O25987   2.030   9.496   2.595
 8582WAT     H125988   1.931   9.491   2.610
 8582WAT     H225989   2.050   9.568   2.529
 8583WAT      O25990   1.387   9.489   9.292
 8583WAT     H125991   1.361   9.449   9.204
 8583WAT     H225992   1.375   9.420   9.364
 8584WAT      O25993   9.847   8.570   7.608
 8584WAT     H125994   9.867   8.529   7.697
 8584WAT     H225995   9.893   8.518   7.536
 8585WAT      O25996   0.577   8.431   8.073
 8585WAT     H125997   0.603   8.362   8.005
 8585WAT     H225998   0.586   8.522   8.033
 8586WAT      O25999   3.341   3.276   0.539
 8586WAT     H126000   3.291   3.192   0.558
 8586WAT     H226001   3.436   3.265   0.569
 8587WAT      O26002   9.193   8.091   1.130
 8587WAT     H126003   9.190   8.089   1.230
 8587WAT     H226004   9.249   8.168   1.100
 8588WAT      O26005   0.097   4.136   7.575
 8588WAT     H126006   0.093   4.038   7.559
 8588WAT     H226007   0.017   4.180   7.535
 8589WAT      O26008   4.055   3.016   3.936
 8589WAT     H126009   4.002   2.932   3.945
 8589WAT     H226010   4.079   3.051   4.027
 8590WAT      O26011   6.481   8.245   1.443
 8590WAT     H126012   6.524   8.220   1.530
 8590WAT     H226013   6.493   8.343   1.426
 8591WAT      O26014   0.654   9.066   8.131
 8591WAT     H126015   0.737   9.014   8.149
 8591WAT     H226016   0.579   9.027   8.185
 8592WAT      O26017   9.169   0.518   2.562
 8592WAT     H126018   9.165   0.477   2.470
 8592WAT     H226019   9.263   0.518   2.594
 8593WAT      O26020   2.907   4.939   1.868
 8593WAT     H126021   2.962   4.857   1.849
 8593WAT     H226022   2.840   4.952   1.795
 8594WAT      O26023   9.269   9.742   8.262
 8594WAT     H126024   9.369   9.736   8.254
 8594WAT     H226025   9.241   9.697   8.347
 8595WAT      O26026   8.393   6.538   8.715
 8595WAT     H126027   8.449   6.610   8.756
 8595WAT     H226028   8.438   6.504   8.632
 8596WAT      O26029   8.291   9.051   0.195
 8596WAT     H126030   8.215   8.995   0.163
 8596WAT     H226031   8.284   9.143   0.156
 8597WAT      O26032   8.787   9.835   5.015
 8597WAT     H126033   8.721   9.892   5.063
 8597WAT     H226034   8.793   9.865   4.920
 8598WAT      O26035   9.548   3.641   1.777
 8598WAT     H126036   9.513   3.550   1.798
 8598WAT     H226037   9.648   3.637   1.769
 8599WAT      O26038   0.919   9.413   5.353
 8599WAT     H126039   0.846   9.373   5.297
 8599WAT     H226040   1.000   9.354   5.349
 8600WAT      O26041   6.495   8.716   5.079
 8600WAT     H126042   6.506   8.796   5.138
 8600WAT     H226043   6.574   8.656   5.089
 8601WAT      O26044   0.822   7.791   3.557
 8601WAT     H126045   0.793   7.695   3.563
 8601WAT     H226046   0.791   7.830   3.471
 8602WAT      O26047   1.585   9.586   7.253
 8602WAT     H126048   1.555   9.522   7.324
 8602WAT     H226049   1.600   9.536   7.168
 8603WAT      O26050   7.597   5.670   2.839
 8603WAT     H126051   7.584   5.572   2.821
 8603WAT     H226052   7.542   5.723   2.774
 8604WAT      O26053   3.682   0.244   7.275
 8604WAT     H126054   3.736   0.301   7.336
 8604WAT     H226055   3.646   0.300   7.200
 8605WAT      O26056   3.763   1.016   1.315
 8605WAT     H126057   3.664   1.004   1.305
 8605WAT     H226058   3.794   1.092   1.257
 8606WAT      O26059   0.581   6.402   0.954
 8606WAT     H126060   0.541   6.433   0.868
 8606WAT     H226061   0.606   6.481   1.010
 8607WAT      O26062   0.735   4.518   5.744
 8607WAT     H126063   0.776   4.436   5.707
 8607WAT     H226064   0.805   4.589   5.755
 8608WAT      O26065   4.234   7.040   4.050
 8608WAT     H126066   4.298   6.977   4.006
 8608WAT     H226067   4.253   7.044   4.148
 8609WAT      O26068   7.043   2.941   5.657
 8609WAT     H126069   6.968   3.001   5.633
 8609WAT     H226070   7.063   2.880   5.580
 8610WAT      O26071   9.689   4.895   0.938
 8610WAT     H126072   9.592   4.873   0.946
 8610WAT     H226073   9.732   4.829   0.876
 8611WAT      O26074   3.706   7.987   3.678
 8611WAT     H126075   3.618   8.023   3.707
 8611WAT     H226076   3.693   7.906   3.621
 8612WAT      O26077   1.508   6.730   1.386
 8612WAT     H126078   1.487   6.637   1.354
 8612WAT     H226079   1.556   6.725   1.474
 8613WAT      O26080   3.372   6.630   5.680
 8613WAT     H126081   3.400   6.687   5.603
 8613WAT     H226082   3.409   6.666   5.765
 8614WAT      O26083   5.544   0.883   8.851
 8614WAT     H126084   5.459   0.905   8.803
 8614WAT     H226085   5.606   0.962   8.845
 8615WAT      O26086   4.789   3.752   4.003
 8615WAT     H126087   4.727   3.675   3.989
 8615WAT     H226088   4.736   3.832   4.032
 8616WAT      O26089   6.220   2.423   1.567
 8616WAT     H126090   6.282   2.494   1.533
 8616WAT     H226091   6.236   2.408   1.664
 8617WAT      O26092   6.805   9.735   4.949
 8617WAT     H126093   6.799   9.725   4.850
 8617WAT     H226094   6.758   9.819   4.977
 8618WAT      O26095   3.351   4.946   7.629
 8618WAT     H126096   3.345   5.003   7.711
 8618WAT     H226097   3.290   4.867   7.639
 8619WAT      O26098   9.001   5.096   5.537
 8619WAT     H126099   8.997   5.006   5.495
 8619WAT     H226100   9.053   5.091   5.622
 8620WAT      O26101   2.829   2.178   2.187
 8620WAT     H126102   2.732   2.152   2.179
 8620WAT     H226103   2.869   2.132   2.266
 8621WAT      O26104   9.338   6.218   0.243
 8621WAT     H126105   9.300   6.163   0.168
 8621WAT     H226106   9.267   6.230   0.313
 8622WAT      O26107   4.505   6.363   9.587
 8622WAT     H126108   4.435   6.374   9.658
 8622WAT     H226109   4.593   6.395   9.621
 8623WAT      O26110   2.543   5.730   1.973
 8623WAT     H126111   2.567   5.742   1.877
 8623WAT     H226112   2.523   5.820   2.013
 8624WAT      O26113   4.903   0.897   8.924
 8624WAT     H126114   4.884   0.926   8.830
 8624WAT     H226115   4.857   0.810   8.941
 8625WAT      O26116   9.720   8.395   4.894
 8625WAT     H126117   9.784   8.472   4.895
 8625WAT     H226118   9.736   8.339   4.813
 8626WAT      O26119   8.929   6.090   2.534
 8626WAT     H126120   8.980   6.082   2.448
 8626WAT     H226121   8.990   6.120   2.607
 8627WAT      O26122   0.451   9.408   4.287
 8627WAT     H126123   0.381   9.441   4.351
 8627WAT     H226124   0.509   9.485   4.260
 8628WAT      O26125   4.986   7.575   1.950
 8628WAT     H126126   4.940   7.568   1.861
 8628WAT     H226127   5.081   7.545   1.941
 8629WAT      O26128   2.564   6.112   6.331
 8629WAT     H126129   2.550   6.176   6.407
 8629WAT     H226130   2.589   6.022   6.367
 8630WAT      O26131   2.573   1.709   0.585
 8630WAT     H126132   2.624   1.764   0.652
 8630WAT     H226133   2.616   1.620   0.576
 8631WAT      O26134   1.773   7.327   6.998
 8631WAT     H126135   1.861   7.367   6.974
 8631WAT     H226136   1.737   7.373   7.079
 8632WAT      O26137   0.713   6.809   2.856
 8632WAT     H126138   0.622   6.840   2.882
 8632WAT     H226139   0.724   6.713   2.882
 8633WAT      O26140   7.908   7.486   6.056
 8633WAT     H126141   7.966   7.412   6.022
 8633WAT     H226142   7.908   7.485   6.156
 8634WAT      O26143   1.317   2.662   9.474
 8634WAT     H126144   1.230   2.648   9.521
 8634WAT     H226145   1.331   2.759   9.459
 8635WAT      O26146   9.315   8.126   1.659
 8635WAT     H126147   9.306   8.189   1.736
 8635WAT     H226148   9.358   8.041   1.690
 8636WAT      O26149   8.516   9.391   7.051
 8636WAT     H126150   8.436   9.445   7.076
 8636WAT     H226151   8.538   9.405   6.955
 8637WAT      O26152   2.471   7.082   9.272
 8637WAT     H126153   2.533   7.010   9.240
 8637WAT     H226154   2.426   7.125   9.194
 8638WAT      O26155   3.135   4.516   7.734
 8638WAT     H126156   3.116   4.500   7.637
 8638WAT     H226157   3.090   4.445   7.788
 8639WAT      O26158   2.477   7.662   1.865
 8639WAT     H126159   2.408   7.734   1.868
 8639WAT     H226160   2.548   7.687   1.799
 8640WAT      O26161   7.428   1.938   2.386
 8640WAT     H126162   7.474   1.877   2.322
 8640WAT     H226163   7.412   1.890   2.473
 8641WAT      O26164   7.332   2.406   5.246
 8641WAT     H126165   7.240   2.432   5.275
 8641WAT     H226166   7.399   2.448   5.308
 8642WAT      O26167   8.734   0.135   6.375
 8642WAT     H126168   8.739   0.097   6.283
 8642WAT     H226169   8.777   0.073   6.440
 8643WAT      O26170   0.957   7.916   6.524
 8643WAT     H126171   1.003   7.844   6.473
 8643WAT     H226172   0.998   7.926   6.614
 8644WAT      O26173   4.936   8.198   3.230
 8644WAT     H126174   4.891   8.125   3.281
 8644WAT     H226175   5.032   8.205   3.259
 8645WAT      O26176   3.375   3.744   0.284
 8645WAT     H126177   3.310   3.693   0.227
 8645WAT     H226178   3.370   3.712   0.378
 8646WAT      O26179   9.835   5.073   7.091
 8646WAT     H126180   9.797   5.120   7.011
 8646WAT     H226181   9.934   5.090   7.096
 8647WAT      O26182   2.934   1.117   6.239
 8647WAT     H126183   2.933   1.017   6.235
 8647WAT     H226184   2.923   1.154   6.147
 8648WAT      O26185   5.635   6.207   1.618
 8648WAT     H126186   5.546   6.179   1.653
 8648WAT     H226187   5.623   6.262   1.535
 8649WAT      O26188   7.671   2.122   3.451
 8649WAT     H126189   7.647   2.199   3.510
 8649WAT     H226190   7.589   2.067   3.434
 8650WAT      O26191   1.482   1.441   4.251
 8650WAT     H126192   1.399   1.495   4.264
 8650WAT     H226193   1.545   1.456   4.327
 8651WAT      O26194   9.044   5.541   3.259
 8651WAT     H126195   9.098   5.460   3.237
 8651WAT     H226196   8.956   5.513   3.296
 8652WAT      O26197   8.180   9.131   8.318
 8652WAT     H126198   8.270   9.145   8.359
 8652WAT     H226199   8.163   9.033   8.309
 8653WAT      O26200   8.447   0.449   5.746
 8653WAT     H126201   8.540   0.413   5.748
 8653WAT     H226202   8.440   0.526   5.809
 8654WAT      O26203   9.866   5.339   5.264
 8654WAT     H126204   9.928   5.263   5.245
 8654WAT     H226205   9.888   5.416   5.205
 8655WAT      O26206   5.478   0.922   8.548
 8655WAT     H126207   5.570   0.948   8.522
 8655WAT     H226208   5.472   0.823   8.557
 8656WAT      O26209   6.747   3.043   5.897
 8656WAT     H126210   6.651   3.070   5.909
 8656WAT     H226211   6.764   2.958   5.945
 8657WAT      O26212   8.842   6.312   1.742
 8657WAT     H126213   8.822   6.406   1.716
 8657WAT     H226214   8.813   6.250   1.669
 8658WAT      O26215   4.360   0.045   9.354
 8658WAT     H126216   4.385  -0.032   9.412
 8658WAT     H226217   4.261   0.046   9.340
 8659WAT      O26218   3.596   6.649   3.174
 8659WAT     H126219   3.637   6.573   3.124
 8659WAT     H226220   3.506   6.669   3.136
 8660WAT      O26221   3.673   1.329   0.419
 8660WAT     H126222   3.585   1.353   0.378
 8660WAT     H226223   3.677   1.229   0.432
 8661WAT      O26224   6.305   0.651   6.101
 8661WAT     H126225   6.231   0.706   6.138
 8661WAT     H226226   6.303   0.560   6.144
 8662WAT      O26227   7.289   2.023   2.008
 8662WAT     H126228   7.243   2.110   2.026
 8662WAT     H226229   7.380   2.024   2.051
 8663WAT      O26230   6.818   4.673   6.956
 8663WAT     H126231   6.915   4.691   6.940
 8663WAT     H226232   6.786   4.606   6.889
 8664WAT      O26233   0.505   9.417   9.675
 8664WAT     H126234   0.521   9.362   9.592
 8664WAT     H226235   0.590   9.460   9.703
 8665WAT      O26236   8.292   8.998   6.686
 8665WAT     H126237   8.307   9.092   6.719
 8665WAT     H226238   8.260   9.002   6.591
 8666WAT      O26239   4.805   9.842   1.555
 8666WAT     H126240   4.834   9.747   1.551
 8666WAT     H226241   4.751   9.858   1.638
 8667WAT      O26242   4.621   8.406   5.681
 8667WAT     H126243   4.712   8.379   5.649
 8667WAT     H226244   4.622   8.502   5.708
 8668WAT      O26245   0.416   3.894   1.378
 8668WAT     H126246   0.330   3.941   1.358
 8668WAT     H226247   0.410   3.851   1.468
 8669WAT      O26248   2.146   4.043   4.231
 8669WAT     H126249   2.050   4.056   4.255
 8669WAT     H226250   2.188   4.132   4.214
 8670WAT      O26251   1.856   3.132   6.647
 8670WAT     H126252   1.792   3.164   6.718
 8670WAT     H226253   1.901   3.048   6.678
 8671WAT      O26254   4.223   4.488   5.748
 8671WAT     H126255   4.312   4.531   5.760
 8671WAT     H226256   4.198   4.488   5.651
 8672WAT      O26257   3.398   1.078   2.335
 8672WAT     H126258   3.461   1.099   2.410
 8672WAT     H226259   3.309   1.121   2.353
 8673WAT      O26260   4.115   9.120   4.852
 8673WAT     H126261   4.188   9.139   4.787
 8673WAT     H226262   4.032   9.168   4.825
 8674WAT      O26263   5.141   2.363   2.199
 8674WAT     H126264   5.056   2.374   2.251
 8674WAT     H226265   5.181   2.273   2.219
 8675WAT      O26266   9.005   1.221   4.331
 8675WAT     H126267   9.069   1.249   4.402
 8675WAT     H226268   8.939   1.294   4.314
 8676WAT      O26269   2.121   4.085   3.630
 8676WAT     H126270   2.030   4.055   3.659
 8676WAT     H226271   2.113   4.171   3.580
 8677WAT      O26272   8.457   1.924   5.623
 8677WAT     H126273   8.545   1.880   5.608
 8677WAT     H226274   8.419   1.954   5.535
 8678WAT      O26275   7.131   7.506   7.741
 8678WAT     H126276   7.062   7.468   7.678
 8678WAT     H226277   7.084   7.557   7.813
 8679WAT      O26278   0.110   0.307   6.856
 8679WAT     H126279   0.171   0.275   6.783
 8679WAT     H226280   0.161   0.308   6.943
 8680WAT      O26281   7.558   8.523   8.304
 8680WAT     H126282   7.642   8.483   8.267
 8680WAT     H226283   7.554   8.507   8.403
 8681WAT      O26284   6.878   9.302   3.944
 8681WAT     H126285   6.819   9.263   3.874
 8681WAT     H226286   6.952   9.354   3.901
 8682WAT      O26287   7.468   7.319   3.159
 8682WAT     H126288   7.465   7.319   3.059
 8682WAT     H226289   7.379   7.345   3.196
 8683WAT      O26290   6.473   3.056   9.252
 8683WAT     H126291   6.397   3.104   9.209
 8683WAT     H226292   6.440   2.969   9.289
 8684WAT      O26293   5.866   8.239   1.416
 8684WAT     H126294   5.783   8.216   1.366
 8684WAT     H226295   5.946   8.217   1.359
 8685WAT      O26296   1.452   1.181   8.787
 8685WAT     H126297   1.475   1.258   8.728
 8685WAT     H226298   1.353   1.180   8.802
 8686WAT      O26299   3.671   4.440   8.453
 8686WAT     H126300   3.685   4.359   8.510
 8686WAT     H226301   3.615   4.416   8.374
 8687WAT      O26302   0.493   9.100   1.197
 8687WAT     H126303   0.400   9.064   1.208
 8687WAT     H226304   0.490   9.193   1.163
 8688WAT      O26305   7.817   4.675   3.530
 8688WAT     H126306   7.886   4.610   3.563
 8688WAT     H226307   7.739   4.625   3.494
 8689WAT      O26308   2.332   4.192   5.964
 8689WAT     H126309   2.387   4.181   6.047
 8689WAT     H226310   2.390   4.228   5.890
 8690WAT      O26311   9.624   6.456   3.937
 8690WAT     H126312   9.661   6.529   3.879
 8690WAT     H226313   9.554   6.406   3.886
 8691WAT      O26314   6.950   0.667   1.011
 8691WAT     H126315   6.958   0.708   1.102
 8691WAT     H226316   7.037   0.625   0.986
 8692WAT      O26317   7.459   4.508   5.804
 8692WAT     H126318   7.377   4.566   5.808
 8692WAT     H226319   7.532   4.558   5.758
 8693WAT      O26320   8.413   1.374   2.257
 8693WAT     H126321   8.399   1.374   2.158
 8693WAT     H226322   8.396   1.466   2.293
 8694WAT      O26323   3.339   9.130   5.116
 8694WAT     H126324   3.388   9.215   5.136
 8694WAT     H226325   3.256   9.125   5.172
 8695WAT      O26326   3.792   0.891   9.140
 8695WAT     H126327   3.701   0.911   9.177
 8695WAT     H226328   3.862   0.921   9.205
 8696WAT      O26329   6.081   3.110   3.019
 8696WAT     H126330   6.171   3.101   3.063
 8696WAT     H226331   6.026   3.175   3.070
 8697WAT      O26332   4.816   7.452   8.332
 8697WAT     H126333   4.731   7.401   8.320
 8697WAT     H226334   4.794   7.547   8.354
 8698WAT      O26335   2.687   2.116   2.926
 8698WAT     H126336   2.778   2.143   2.894
 8698WAT     H226337   2.631   2.198   2.941
 8699WAT      O26338   1.662   2.207   3.246
 8699WAT     H126339   1.637   2.242   3.155
 8699WAT     H226340   1.732   2.267   3.285
 8700WAT      O26341   1.397   3.980   1.239
 8700WAT     H126342   1.361   4.066   1.275
 8700WAT     H226343   1.492   3.969   1.267
 8701WAT      O26344   4.841   4.413   8.152
 8701WAT     H126345   4.934   4.449   8.141
 8701WAT     H226346   4.837   4.356   8.234
 8702WAT      O26347   0.160   7.044   8.113
 8702WAT     H126348   0.257   7.065   8.122
 8702WAT     H226349   0.148   6.964   8.055
 8703WAT      O26350   4.223   8.206   3.086
 8703WAT     H126351   4.147   8.212   3.021
 8703WAT     H226352   4.253   8.111   3.094
 8704WAT      O26353   1.357   4.432   0.253
 8704WAT     H126354   1.338   4.521   0.294
 8704WAT     H226355   1.305   4.362   0.300
 8705WAT      O26356   0.244   1.548   7.632
 8705WAT     H126357   0.172   1.510   7.690
 8705WAT     H226358   0.217   1.538   7.536
 8706WAT      O26359   0.043   0.153   1.232
 8706WAT     H126360   0.143   0.148   1.236
 8706WAT     H226361   0.012   0.237   1.278
 8707WAT      O26362   1.582   1.572   4.028
 8707WAT     H126363   1.533   1.528   4.104
 8707WAT     H226364   1.632   1.504   3.975
 8708WAT      O26365   8.397   2.056   5.400
 8708WAT     H126366   8.352   2.133   5.355
 8708WAT     H226367   8.497   2.068   5.393
 8709WAT      O26368   9.745   9.276   2.975
 8709WAT     H126369   9.659   9.316   3.005
 8709WAT     H226370   9.737   9.246   2.879
 8710WAT      O26371   4.581   2.694   4.784
 8710WAT     H126372   4.545   2.630   4.851
 8710WAT     H226373   4.586   2.785   4.824
 8711WAT      O26374   7.191   6.044   9.393
 8711WAT     H126375   7.253   6.117   9.366
 8711WAT     H226376   7.201   6.025   9.490
 8712WAT      O26377   2.201   4.286   4.155
 8712WAT     H126378   2.202   4.277   4.055
 8712WAT     H226379   2.256   4.366   4.182
 8713WAT      O26380   8.367   5.852   2.034
 8713WAT     H126381   8.313   5.876   2.114
 8713WAT     H226382   8.443   5.793   2.061
 8714WAT      O26383   6.969   8.762   5.974
 8714WAT     H126384   6.914   8.827   6.027
 8714WAT     H226385   6.981   8.678   6.028
 8715WAT      O26386   4.186   1.832   6.323
 8715WAT     H126387   4.218   1.926   6.335
 8715WAT     H226388   4.177   1.788   6.412
 8716WAT      O26389   5.460   4.506   0.897
 8716WAT     H126390   5.456   4.424   0.954
 8716WAT     H226391   5.425   4.485   0.806
 8717WAT      O26392   7.155   3.153   3.855
 8717WAT     H126393   7.207   3.068   3.841
 8717WAT     H226394   7.103   3.174   3.772
 8718WAT      O26395   8.595   5.814   3.543
 8718WAT     H126396   8.551   5.728   3.518
 8718WAT     H226397   8.668   5.834   3.478
 8719WAT      O26398   6.466   0.750   9.376
 8719WAT     H126399   6.515   0.682   9.321
 8719WAT     H226400   6.411   0.807   9.316
 8720WAT      O26401   9.422   4.542   1.004
 8720WAT     H126402   9.388   4.488   0.927
 8720WAT     H226403   9.475   4.483   1.065
 8721WAT      O26404   4.476   2.749   7.497
 8721WAT     H126405   4.479   2.846   7.522
 8721WAT     H226406   4.559   2.725   7.447
 8722WAT      O26407   6.293   0.925   5.752
 8722WAT     H126408   6.253   0.837   5.775
 8722WAT     H226409   6.384   0.932   5.792
 8723WAT      O26410   7.075   5.292   5.251
 8723WAT     H126411   7.085   5.245   5.339
 8723WAT     H226412   7.015   5.240   5.191
 8724WAT      O26413   0.007   4.260   0.913
 8724WAT     H126414   0.021   4.170   0.953
 8724WAT     H226415   0.091   4.291   0.870
 8725WAT      O26416   5.986   7.067   7.328
 8725WAT     H126417   6.085   7.075   7.329
 8725WAT     H226418   5.954   7.027   7.414
 8726WAT      O26419   9.685   8.396   9.420
 8726WAT     H126420   9.599   8.349   9.440
 8726WAT     H226421   9.753   8.329   9.388
 8727WAT      O26422   3.131   0.598   4.686
 8727WAT     H126423   3.116   0.697   4.674
 8727WAT     H226424   3.213   0.570   4.637
 8728WAT      O26425   9.300   3.284   8.581
 8728WAT     H126426   9.276   3.288   8.484
 8728WAT     H226427   9.284   3.192   8.616
 8729WAT      O26428   6.960   0.618   9.764
 8729WAT     H126429   7.055   0.589   9.752
 8729WAT     H226430   6.899   0.554   9.718
 8730WAT      O26431   2.903   2.522   5.011
 8730WAT     H126432   2.865   2.500   5.101
 8730WAT     H226433   2.846   2.480   4.940
 8731WAT      O26434   2.520   2.348   9.409
 8731WAT     H126435   2.603   2.299   9.436
 8731WAT     H226436   2.490   2.315   9.320
 8732WAT      O26437   0.147   2.258   7.270
 8732WAT     H126438   0.235   2.210   7.269
 8732WAT     H226439   0.116   2.272   7.177
 8733WAT      O26440   0.412   4.575   7.372
 8733WAT     H126441   0.481   4.585   7.300
 8733WAT     H226442   0.350   4.501   7.348
 8734WAT      O26443   9.767   2.299   7.684
 8734WAT     H126444   9.689   2.238   7.698
 8734WAT     H226445   9.783   2.310   7.586
 8735WAT      O26446   5.240   9.719   4.820
 8735WAT     H126447   5.161   9.777   4.843
 8735WAT     H226448   5.298   9.708   4.901
 8736WAT      O26449   5.374   9.704   7.883
 8736WAT     H126450   5.368   9.664   7.974
 8736WAT     H226451   5.405   9.634   7.818
 8737WAT      O26452   2.029   4.623   2.905
 8737WAT     H126453   2.069   4.537   2.873
 8737WAT     H226454   2.040   4.693   2.835
 8738WAT      O26455   3.813   3.778   8.626
 8738WAT     H126456   3.747   3.817   8.691
 8738WAT     H226457   3.859   3.853   8.578
 8739WAT      O26458   3.981   9.063   6.863
 8739WAT     H126459   3.905   9.041   6.925
 8739WAT     H226460   4.033   8.979   6.844
 8740WAT      O26461   7.613   3.385   7.514
 8740WAT     H126462   7.611   3.483   7.537
 8740WAT     H226463   7.546   3.367   7.441
 8741WAT      O26464   2.754   0.074   3.272
 8741WAT     H126465   2.829   0.033   3.323
 8741WAT     H226466   2.677   0.010   3.269
 8742WAT      O26467   2.336   8.519   1.267
 8742WAT     H126468   2.256   8.578   1.259
 8742WAT     H226469   2.338   8.478   1.358
 8743WAT      O26470   5.761   9.251   2.519
 8743WAT     H126471   5.769   9.291   2.611
 8743WAT     H226472   5.670   9.211   2.509
 8744WAT      O26473   8.480   7.562   4.647
 8744WAT     H126474   8.413   7.604   4.586
 8744WAT     H226475   8.448   7.570   4.742
 8745WAT      O26476   1.151   8.308   3.914
 8745WAT     H126477   1.154   8.392   3.859
 8745WAT     H226478   1.087   8.319   3.990
 8746WAT      O26479   5.322   4.715   1.099
 8746WAT     H126480   5.289   4.767   1.178
 8746WAT     H226481   5.388   4.770   1.048
 8747WAT      O26482   7.644   9.123   0.548
 8747WAT     H126483   7.554   9.146   0.511
 8747WAT     H226484   7.649   9.153   0.644
 8748WAT      O26485   4.979   0.437   6.252
 8748WAT     H126486   4.892   0.466   6.210
 8748WAT     H226487   4.960   0.397   6.341
 8749WAT      O26488   5.309   0.726   7.469
 8749WAT     H126489   5.389   0.764   7.423
 8749WAT     H226490   5.233   0.721   7.404
 8750WAT      O26491   9.181   7.831   9.247
 8750WAT     H126492   9.265   7.802   9.203
 8750WAT     H226493   9.132   7.895   9.188
 8751WAT      O26494   6.300   9.728   4.514
 8751WAT     H126495   6.387   9.680   4.522
 8751WAT     H226496   6.232   9.684   4.574
 8752WAT      O26497   9.101   7.381   0.998
 8752WAT     H126498   9.125   7.378   1.096
 8752WAT     H226499   9.004   7.402   0.988
 8753WAT      O26500   0.536   5.156   6.163
 8753WAT     H126501   0.587   5.141   6.247
 8753WAT     H226502   0.440   5.173   6.185
 8754WAT      O26503   0.481   2.821   1.704
 8754WAT     H126504   0.434   2.856   1.623
 8754WAT     H226505   0.516   2.898   1.758
 8755WAT      O26506   2.206   3.229   2.048
 8755WAT     H126507   2.216   3.159   1.977
 8755WAT     H226508   2.118   3.274   2.038
 8756WAT      O26509   5.317   0.440   0.641
 8756WAT     H126510   5.327   0.536   0.668
 8756WAT     H226511   5.373   0.422   0.559
 8757WAT      O26512   1.606   2.420   9.810
 8757WAT     H126513   1.558   2.458   9.730
 8757WAT     H226514   1.698   2.392   9.782
 8758WAT      O26515   0.854   0.691   2.100
 8758WAT     H126516   0.823   0.743   2.180
 8758WAT     H226517   0.945   0.653   2.118
 8759WAT      O26518   0.400   1.481   5.460
 8759WAT     H126519   0.383   1.452   5.554
 8759WAT     H226520   0.415   1.400   5.402
 8760WAT      O26521   3.917   9.588   5.655
 8760WAT     H126522   3.904   9.492   5.678
 8760WAT     H226523   3.966   9.635   5.729
 8761WAT      O26524   2.188   8.801   1.022
 8761WAT     H126525   2.135   8.759   1.096
 8761WAT     H226526   2.282   8.767   1.025
 8762WAT      O26527   5.488   0.108   0.593
 8762WAT     H126528   5.522   0.200   0.576
 8762WAT     H226529   5.564   0.048   0.619
 8763WAT      O26530   7.549   7.064   3.231
 8763WAT     H126531   7.544   7.162   3.212
 8763WAT     H226532   7.508   7.013   3.156
 8764WAT      O26533   2.315   2.875   3.672
 8764WAT     H126534   2.329   2.809   3.598
 8764WAT     H226535   2.394   2.873   3.733
 8765WAT      O26536   8.537   1.186   5.409
 8765WAT     H126537   8.548   1.128   5.328
 8765WAT     H226538   8.440   1.195   5.430
 8766WAT      O26539   9.221   7.322   3.616
 8766WAT     H126540   9.249   7.328   3.520
 8766WAT     H226541   9.121   7.327   3.622
 8767WAT      O26542   6.854   4.634   9.629
 8767WAT     H126543   6.806   4.567   9.684
 8767WAT     H226544   6.789   4.692   9.581
 8768WAT      O26545   2.212   0.638   8.464
 8768WAT     H126546   2.287   0.699   8.440
 8768WAT     H226547   2.172   0.667   8.552
 8769WAT      O26548   3.207   0.487   5.986
 8769WAT     H126549   3.114   0.510   5.955
 8769WAT     H226550   3.232   0.546   6.062
 8770WAT      O26551   1.649   7.965   5.037
 8770WAT     H126552   1.584   7.893   5.012
 8770WAT     H226553   1.616   8.053   5.004
 8771WAT      O26554   4.203   0.365   0.025
 8771WAT     H126555   4.237   0.441   0.080
 8771WAT     H226556   4.226   0.279   0.070
 8772WAT      O26557   7.005   4.592   0.763
 8772WAT     H126558   6.944   4.514   0.778
 8772WAT     H226559   7.016   4.643   0.848
 8773WAT      O26560   3.149   9.572   2.272
 8773WAT     H126561   3.086   9.496   2.256
 8773WAT     H226562   3.206   9.551   2.352
 8774WAT      O26563   4.273   5.656   7.511
 8774WAT     H126564   4.242   5.573   7.558
 8774WAT     H226565   4.199   5.722   7.506
 8775WAT      O26566   3.945   2.382   3.513
 8775WAT     H126567   3.902   2.360   3.601
 8775WAT     H226568   3.923   2.476   3.487
 8776WAT      O26569   4.788   8.959   5.284
 8776WAT     H126570   4.883   8.932   5.275
 8776WAT     H226571   4.733   8.881   5.314
 8777WAT      O26572   8.397   5.036   4.092
 8777WAT     H126573   8.391   5.066   3.997
 8777WAT     H226574   8.485   4.990   4.106
 8778WAT      O26575   9.678   8.743   5.417
 8778WAT     H126576   9.629   8.656   5.417
 8778WAT     H226577   9.775   8.727   5.435
 8779WAT      O26578   0.531   3.581   1.485
 8779WAT     H126579   0.588   3.657   1.515
 8779WAT     H226580   0.579   3.495   1.499
 8780WAT      O26581   3.406   6.827   4.083
 8780WAT     H126582   3.444   6.746   4.039
 8780WAT     H226583   3.471   6.903   4.076
 8781WAT      O26584   7.106   6.847   6.225
 8781WAT     H126585   7.198   6.842   6.263
 8781WAT     H226586   7.112   6.850   6.125
 8782WAT      O26587   7.819   3.655   5.181
 8782WAT     H126588   7.844   3.594   5.106
 8782WAT     H226589   7.720   3.660   5.189
 8783WAT      O26590   5.619   5.312   2.014
 8783WAT     H126591   5.636   5.304   1.916
 8783WAT     H226592   5.528   5.351   2.029
 8784WAT      O26593   5.369   5.148   3.705
 8784WAT     H126594   5.442   5.088   3.673
 8784WAT     H226595   5.322   5.187   3.626
 8785WAT      O26596   3.191   3.061   3.132
 8785WAT     H126597   3.266   3.046   3.068
 8785WAT     H226598   3.222   3.117   3.208
 8786WAT      O26599   6.160   4.811   6.232
 8786WAT     H126600   6.157   4.908   6.211
 8786WAT     H226601   6.156   4.799   6.332
 8787WAT      O26602   8.754   3.558   2.909
 8787WAT     H126603   8.821   3.623   2.873
 8787WAT     H226604   8.785   3.525   2.998
 8788WAT      O26605   9.086   5.386   8.555
 8788WAT     H126606   9.132   5.454   8.612
 8788WAT     H226607   9.149   5.312   8.534
 8789WAT      O26608   9.862   4.958   8.924
 8789WAT     H126609   9.900   5.017   8.854
 8789WAT     H226610   9.855   4.864   8.889
 8790WAT      O26611   0.506   1.566   2.060
 8790WAT     H126612   0.527   1.659   2.032
 8790WAT     H226613   0.462   1.518   1.984
 8791WAT      O26614   4.432   1.482   5.755
 8791WAT     H126615   4.367   1.409   5.735
 8791WAT     H226616   4.422   1.509   5.851
 8792WAT      O26617   8.855   1.723   0.564
 8792WAT     H126618   8.826   1.781   0.640
 8792WAT     H226619   8.787   1.651   0.549
 8793WAT      O26620   6.152   7.415   0.961
 8793WAT     H126621   6.167   7.478   1.037
 8793WAT     H226622   6.200   7.329   0.980
 8794WAT      O26623   2.365   4.290   3.170
 8794WAT     H126624   2.304   4.339   3.232
 8794WAT     H226625   2.394   4.352   3.097
 8795WAT      O26626   6.192   3.888   7.848
 8795WAT     H126627   6.249   3.931   7.918
 8795WAT     H226628   6.237   3.895   7.759
 8796WAT      O26629   2.742   9.730   9.646
 8796WAT     H126630   2.680   9.652   9.649
 8796WAT     H226631   2.837   9.697   9.647
 8797WAT      O26632   6.413   7.989   2.904
 8797WAT     H126633   6.511   8.008   2.907
 8797WAT     H226634   6.398   7.891   2.918
 8798WAT      O26635   3.377   6.697   2.579
 8798WAT     H126636   3.288   6.727   2.615
 8798WAT     H226637   3.412   6.766   2.516
 8799WAT      O26638   9.486   1.062   9.804
 8799WAT     H126639   9.412   0.995   9.800
 8799WAT     H226640   9.533   1.066   9.716
 8800WAT      O26641   8.803   4.480   6.627
 8800WAT     H126642   8.717   4.530   6.621
 8800WAT     H226643   8.796   4.408   6.695
 8801WAT      O26644   3.406   1.939   2.479
 8801WAT     H126645   3.406   2.033   2.514
 8801WAT     H226646   3.479   1.928   2.412
 8802WAT      O26647   2.182   2.185   0.568
 8802WAT     H126648   2.255   2.187   0.500
 8802WAT     H226649   2.218   2.149   0.654
 8803WAT      O26650   9.023   3.822   5.227
 8803WAT     H126651   8.950   3.840   5.293
 8803WAT     H226652   9.093   3.764   5.268
 8804WAT      O26653   8.099   8.411   7.407
 8804WAT     H126654   8.093   8.312   7.416
 8804WAT     H226655   8.116   8.451   7.497
 8805WAT      O26656   6.065   2.838   8.517
 8805WAT     H126657   6.100   2.770   8.453
 8805WAT     H226658   6.030   2.792   8.599
 8806WAT      O26659   6.366   2.469   4.374
 8806WAT     H126660   6.345   2.565   4.357
 8806WAT     H226661   6.437   2.462   4.443
 8807WAT      O26662   0.281   6.638   4.640
 8807WAT     H126663   0.317   6.728   4.613
 8807WAT     H226664   0.350   6.568   4.622
 8808WAT      O26665   4.246   1.837   5.315
 8808WAT     H126666   4.235   1.746   5.276
 8808WAT     H226667   4.325   1.839   5.377
 8809WAT      O26668   1.040   5.381   0.801
 8809WAT     H126669   1.040   5.329   0.715
 8809WAT     H226670   1.130   5.422   0.815
 8810WAT      O26671   3.183   6.986   4.722
 8810WAT     H126672   3.105   6.962   4.780
 8810WAT     H226673   3.151   7.004   4.629
 8811WAT      O26674   4.169   6.225   3.360
 8811WAT     H126675   4.257   6.258   3.394
 8811WAT     H226676   4.164   6.126   3.371
 8812WAT      O26677   2.830   4.412   1.713
 8812WAT     H126678   2.867   4.444   1.626
 8812WAT     H226679   2.846   4.481   1.784
 8813WAT      O26680   3.908   8.391   6.988
 8813WAT     H126681   3.939   8.482   7.012
 8813WAT     H226682   3.926   8.374   6.891
 8814WAT      O26683   0.848   4.181   0.526
 8814WAT     H126684   0.870   4.184   0.623
 8814WAT     H226685   0.817   4.271   0.496
 8815WAT      O26686   5.393   0.016   6.686
 8815WAT     H126687   5.380   0.101   6.635
 8815WAT     H226688   5.490  -0.010   6.682
 8816WAT      O26689   4.572   4.930   8.433
 8816WAT     H126690   4.636   4.884   8.494
 8816WAT     H226691   4.533   5.010   8.479
 8817WAT      O26692   1.507   3.759   4.982
 8817WAT     H126693   1.444   3.684   4.963
 8817WAT     H226694   1.455   3.842   5.003
 8818WAT      O26695   5.603   4.022   7.450
 8818WAT     H126696   5.541   4.067   7.385
 8818WAT     H226697   5.659   4.092   7.495
 8819WAT      O26698   2.195   4.528   5.413
 8819WAT     H126699   2.280   4.569   5.447
 8819WAT     H226700   2.216   4.472   5.333
 8820WAT      O26701   2.458   9.242   2.867
 8820WAT     H126702   2.503   9.158   2.898
 8820WAT     H226703   2.469   9.313   2.937
 8821WAT      O26704   3.361   7.469   5.452
 8821WAT     H126705   3.327   7.549   5.403
 8821WAT     H226706   3.284   7.409   5.476
 8822WAT      O26707   6.029   2.877   0.893
 8822WAT     H126708   6.023   2.801   0.958
 8822WAT     H226709   5.942   2.925   0.891
 8823WAT      O26710   2.120   8.970   6.612
 8823WAT     H126711   2.038   8.979   6.669
 8823WAT     H226712   2.182   9.047   6.630
 8824WAT      O26713   1.019   5.700   3.924
 8824WAT     H126714   1.008   5.663   3.832
 8824WAT     H226715   1.011   5.625   3.990
 8825WAT      O26716   3.045   5.414   6.590
 8825WAT     H126717   3.105   5.358   6.647
 8825WAT     H226718   2.951   5.381   6.599
 8826WAT      O26719   3.884   5.466   5.455
 8826WAT     H126720   3.931   5.381   5.476
 8826WAT     H226721   3.792   5.464   5.496
 8827WAT      O26722   2.151   3.044   4.939
 8827WAT     H126723   2.208   2.989   4.878
 8827WAT     H226724   2.102   2.984   5.002
 8828WAT      O26725   4.815   5.080   8.069
 8828WAT     H126726   4.851   5.047   7.983
 8828WAT     H226727   4.761   5.009   8.113
 8829WAT      O26728   9.370   5.085   7.313
 8829WAT     H126729   9.341   5.175   7.346
 8829WAT     H226730   9.467   5.073   7.332
 8830WAT      O26731   5.254   6.438   8.261
 8830WAT     H126732   5.221   6.345   8.278
 8830WAT     H226733   5.183   6.503   8.288
 8831WAT      O26734   2.780   8.986   2.131
 8831WAT     H126735   2.846   9.025   2.066
 8831WAT     H226736   2.697   8.961   2.082
 8832WAT      O26737   4.678   0.292   1.211
 8832WAT     H126738   4.597   0.299   1.152
 8832WAT     H226739   4.688   0.198   1.242
 8833WAT      O26740   5.833   3.939   7.926
 8833WAT     H126741   5.811   3.847   7.959
 8833WAT     H226742   5.914   3.973   7.974
 8834WAT      O26743   8.190   1.482   5.134
 8834WAT     H126744   8.181   1.512   5.229
 8834WAT     H226745   8.149   1.550   5.074
 8835WAT      O26746   3.159   1.143   7.929
 8835WAT     H126747   3.149   1.224   7.870
 8835WAT     H226748   3.249   1.143   7.971
 8836WAT      O26749   3.358   8.085   3.306
 8836WAT     H126750   3.351   8.171   3.256
 8836WAT     H226751   3.286   8.023   3.277
 8837WAT      O26752   8.553   6.406   3.221
 8837WAT     H126753   8.519   6.398   3.127
 8837WAT     H226754   8.554   6.316   3.264
 8838WAT      O26755   9.750   1.360   6.326
 8838WAT     H126756   9.781   1.367   6.421
 8838WAT     H226757   9.755   1.450   6.283
 8839WAT      O26758   5.609   0.477   3.082
 8839WAT     H126759   5.637   0.559   3.132
 8839WAT     H226760   5.562   0.414   3.144
 8840WAT      O26761   2.511   7.806   8.040
 8840WAT     H126762   2.463   7.868   8.102
 8840WAT     H226763   2.447   7.739   8.004
 8841WAT      O26764   4.566   7.346   2.739
 8841WAT     H126765   4.602   7.308   2.654
 8841WAT     H226766   4.614   7.305   2.817
 8842WAT      O26767   3.294   7.776   5.869
 8842WAT     H126768   3.342   7.846   5.922
 8842WAT     H226769   3.360   7.710   5.833
 8843WAT      O26770   6.783   8.469   5.900
 8843WAT     H126771   6.792   8.499   5.805
 8843WAT     H226772   6.763   8.548   5.958
 8844WAT      O26773   0.910   2.986   7.614
 8844WAT     H126774   0.811   3.000   7.615
 8844WAT     H226775   0.931   2.897   7.575
 8845WAT      O26776   0.591   6.347   8.934
 8845WAT     H126777   0.652   6.381   9.006
 8845WAT     H226778   0.628   6.373   8.844
 8846WAT      O26779   4.866   2.345   4.211
 8846WAT     H126780   4.868   2.429   4.264
 8846WAT     H226781   4.948   2.339   4.154
 8847WAT      O26782   8.525   6.755   5.758
 8847WAT     H126783   8.555   6.730   5.850
 8847WAT     H226784   8.605   6.768   5.699
 8848WAT      O26785   9.661   2.255   9.056
 8848WAT     H126786   9.754   2.289   9.061
 8848WAT     H226787   9.637   2.238   8.960
 8849WAT      O26788   2.739   5.729   0.877
 8849WAT     H126789   2.695   5.760   0.792
 8849WAT     H226790   2.786   5.806   0.920
 8850WAT      O26791   3.982   5.704   1.549
 8850WAT     H126792   3.987   5.617   1.499
 8850WAT     H226793   3.982   5.780   1.484
 8851WAT      O26794   8.732   0.168   0.248
 8851WAT     H126795   8.774   0.190   0.336
 8851WAT     H226796   8.675   0.086   0.258
 8852WAT      O26797   7.325   3.691   0.098
 8852WAT     H126798   7.325   3.780   0.144
 8852WAT     H226799   7.402   3.687   0.035
 8853WAT      O26800   9.058   5.371   2.064
 8853WAT     H126801   9.048   5.365   1.964
 8853WAT     H226802   9.019   5.289   2.106
 8854WAT      O26803   1.398   7.380   7.716
 8854WAT     H126804   1.481   7.434   7.708
 8854WAT     H226805   1.420   7.287   7.742
 8855WAT      O26806   6.960   1.750   8.204
 8855WAT     H126807   7.031   1.769   8.135
 8855WAT     H226808   6.893   1.687   8.165
 8856WAT      O26809   6.905   1.399   9.514
 8856WAT     H126810   6.912   1.396   9.614
 8856WAT     H226811   6.868   1.312   9.480
 8857WAT      O26812   4.596   2.334   5.533
 8857WAT     H126813   4.628   2.393   5.458
 8857WAT     H226814   4.629   2.369   5.620
 8858WAT      O26815   8.411   3.120   5.728
 8858WAT     H126816   8.401   3.220   5.737
 8858WAT     H226817   8.394   3.094   5.633
 8859WAT      O26818   4.245   4.052   0.347
 8859WAT     H126819   4.339   4.027   0.323
 8859WAT     H226820   4.234   4.151   0.341
 8860WAT      O26821   9.567   6.774   4.755
 8860WAT     H126822   9.476   6.742   4.732
 8860WAT     H226823   9.562   6.869   4.788
 8861WAT      O26824   8.187   4.235   4.225
 8861WAT     H126825   8.216   4.304   4.159
 8861WAT     H226826   8.230   4.147   4.203
 8862WAT      O26827   8.119   4.234   9.294
 8862WAT     H126828   8.033   4.187   9.313
 8862WAT     H226829   8.189   4.202   9.358
 8863WAT      O26830   9.871   5.247   1.655
 8863WAT     H126831   9.876   5.152   1.683
 8863WAT     H226832   9.880   5.306   1.735
 8864WAT      O26833   2.317   3.768   2.168
 8864WAT     H126834   2.366   3.684   2.146
 8864WAT     H226835   2.312   3.778   2.268
 8865WAT      O26836   3.255   3.337   9.786
 8865WAT     H126837   3.171   3.286   9.766
 8865WAT     H226838   3.297   3.366   9.700
 8866WAT      O26839   4.825   1.094   0.150
 8866WAT     H126840   4.884   1.139   0.217
 8866WAT     H226841   4.882   1.046   0.083
 8867WAT      O26842   9.537   5.925   1.323
 8867WAT     H126843   9.577   6.014   1.301
 8867WAT     H226844   9.476   5.897   1.250
 8868WAT      O26845   8.754   5.835   8.582
 8868WAT     H126846   8.688   5.834   8.506
 8868WAT     H226847   8.829   5.897   8.560
 8869WAT      O26848   9.781   9.615   5.791
 8869WAT     H126849   9.856   9.680   5.780
 8869WAT     H226850   9.700   9.664   5.823
 8870WAT      O26851   7.115   7.092   0.760
 8870WAT     H126852   7.066   7.152   0.822
 8870WAT     H226853   7.205   7.130   0.740
 8871WAT      O26854   5.520   3.236   4.970
 8871WAT     H126855   5.577   3.296   5.026
 8871WAT     H226856   5.443   3.289   4.932
 8872WAT      O26857   4.308   8.123   1.382
 8872WAT     H126858   4.212   8.125   1.357
 8872WAT     H226859   4.320   8.071   1.467
 8873WAT      O26860   7.982   2.125   2.677
 8873WAT     H126861   7.999   2.207   2.624
 8873WAT     H226862   8.034   2.128   2.762
 8874WAT      O26863   6.254   5.416   6.590
 8874WAT     H126864   6.259   5.330   6.538
 8874WAT     H226865   6.331   5.421   6.653
 8875WAT      O26866   7.032   2.586   2.491
 8875WAT     H126867   7.099   2.585   2.417
 8875WAT     H226868   7.017   2.493   2.524
 8876WAT      O26869   2.420   6.554   3.392
 8876WAT     H126870   2.394   6.650   3.383
 8876WAT     H226871   2.493   6.546   3.460
 8877WAT      O26872   8.113   7.028   4.929
 8877WAT     H126873   8.067   6.940   4.933
 8877WAT     H226874   8.205   7.020   4.967
 8878WAT      O26875   9.570   6.425   3.524
 8878WAT     H126876   9.647   6.395   3.468
 8878WAT     H226877   9.491   6.444   3.465
 8879WAT      O26878   7.305   5.493   0.310
 8879WAT     H126879   7.324   5.443   0.395
 8879WAT     H226880   7.368   5.462   0.238
 8880WAT      O26881   7.047   5.869   5.634
 8880WAT     H126882   7.112   5.942   5.654
 8880WAT     H226883   7.092   5.781   5.645
 8881WAT      O26884   8.812   8.803   4.296
 8881WAT     H126885   8.877   8.845   4.233
 8881WAT     H226886   8.736   8.763   4.245
 8882WAT      O26887   0.954   0.814   3.680
 8882WAT     H126888   0.916   0.906   3.691
 8882WAT     H226889   1.054   0.820   3.678
 8883WAT      O26890   7.918   8.477   7.198
 8883WAT     H126891   7.974   8.469   7.280
 8883WAT     H226892   7.823   8.456   7.219
 8884WAT      O26893   5.056   6.147   9.366
 8884WAT     H126894   4.972   6.185   9.405
 8884WAT     H226895   5.135   6.197   9.403
 8885WAT      O26896   8.887   1.720   1.837
 8885WAT     H126897   8.798   1.685   1.865
 8885WAT     H226898   8.956   1.649   1.849
 8886WAT      O26899   5.423   1.141   1.387
 8886WAT     H126900   5.418   1.138   1.487
 8886WAT     H226901   5.418   1.047   1.351
 8887WAT      O26902   6.079   7.052   9.806
 8887WAT     H126903   6.116   7.104   9.729
 8887WAT     H226904   6.069   7.113   9.885
 8888WAT      O26905   7.493   8.224   5.884
 8888WAT     H126906   7.438   8.179   5.953
 8888WAT     H226907   7.519   8.315   5.916
 8889WAT      O26908   1.326   8.368   6.684
 8889WAT     H126909   1.301   8.355   6.780
 8889WAT     H226910   1.405   8.428   6.678
 8890WAT      O26911   2.795   7.554   2.499
 8890WAT     H126912   2.864   7.612   2.456
 8890WAT     H226913   2.791   7.466   2.452
 8891WAT      O26914   7.062   4.010   0.793
 8891WAT     H126915   7.035   4.065   0.714
 8891WAT     H226916   6.984   3.957   0.825
 8892WAT      O26917   6.856   8.039   8.642
 8892WAT     H126918   6.825   7.961   8.589
 8892WAT     H226919   6.838   8.022   8.739
 8893WAT      O26920   0.463   2.305   7.873
 8893WAT     H126921   0.516   2.385   7.846
 8893WAT     H226922   0.466   2.295   7.973
 8894WAT      O26923   8.177   7.330   9.863
 8894WAT     H126924   8.185   7.428   9.849
 8894WAT     H226925   8.245   7.282   9.808
 8895WAT      O26926   4.750   5.860   9.529
 8895WAT     H126927   4.693   5.852   9.447
 8895WAT     H226928   4.783   5.770   9.556
 8896WAT      O26929   7.116   9.076   4.756
 8896WAT     H126930   7.187   9.021   4.712
 8896WAT     H226931   7.129   9.172   4.733
 8897WAT      O26932   1.371   2.161   0.597
 8897WAT     H126933   1.359   2.223   0.674
 8897WAT     H226934   1.425   2.082   0.626
 8898WAT      O26935   5.742   1.620   1.230
 8898WAT     H126936   5.797   1.702   1.246
 8898WAT     H226937   5.671   1.614   1.301
 8899WAT      O26938   4.009   5.753   2.441
 8899WAT     H126939   4.039   5.769   2.347
 8899WAT     H226940   4.025   5.835   2.496
 8900WAT      O26941   8.524   4.150   7.439
 8900WAT     H126942   8.522   4.167   7.537
 8900WAT     H226943   8.552   4.233   7.391
 8901WAT      O26944   7.608   9.356   2.570
 8901WAT     H126945   7.642   9.449   2.580
 8901WAT     H226946   7.521   9.357   2.520
 8902WAT      O26947   6.687   2.144   9.014
 8902WAT     H126948   6.622   2.138   9.089
 8902WAT     H226949   6.745   2.225   9.027
 8903WAT      O26950   4.478   8.527   3.296
 8903WAT     H126951   4.495   8.595   3.367
 8903WAT     H226952   4.398   8.472   3.320
 8904WAT      O26953   3.518   5.645   8.286
 8904WAT     H126954   3.533   5.699   8.369
 8904WAT     H226955   3.604   5.634   8.237
 8905WAT      O26956   6.830   8.142   3.010
 8905WAT     H126957   6.871   8.076   3.073
 8905WAT     H226958   6.777   8.209   3.063
 8906WAT      O26959   8.447   7.265   5.364
 8906WAT     H126960   8.498   7.323   5.428
 8906WAT     H226961   8.447   7.171   5.397
 8907WAT      O26962   3.141   7.749   2.186
 8907WAT     H126963   3.087   7.751   2.270
 8907WAT     H226964   3.118   7.829   2.130
 8908WAT      O26965   9.699   0.383   2.948
 8908WAT     H126966   9.743   0.416   2.864
 8908WAT     H226967   9.611   0.341   2.925
 8909WAT      O26968   3.448   2.731   4.105
 8909WAT     H126969   3.509   2.759   4.030
 8909WAT     H226970   3.420   2.636   4.090
 8910WAT      O26971   4.422   8.531   1.973
 8910WAT     H126972   4.454   8.554   1.881
 8910WAT     H226973   4.354   8.598   2.002
 8911WAT      O26974   9.629   9.509   6.911
 8911WAT     H126975   9.689   9.532   6.987
 8911WAT     H226976   9.676   9.529   6.825
 8912WAT      O26977   4.476   5.461   1.028
 8912WAT     H126978   4.568   5.437   0.998
 8912WAT     H226979   4.466   5.444   1.126
 8913WAT      O26980   6.356   8.506   4.802
 8913WAT     H126981   6.317   8.544   4.886
 8913WAT     H226982   6.406   8.423   4.823
 8914WAT      O26983   9.665   7.056   3.326
 8914WAT     H126984   9.566   7.062   3.316
 8914WAT     H226985   9.689   6.972   3.375
 8915WAT      O26986   7.366   6.205   7.870
 8915WAT     H126987   7.329   6.127   7.820
 8915WAT     H226988   7.463   6.191   7.887
 8916WAT      O26989   4.891   9.301   7.819
 8916WAT     H126990   4.914   9.269   7.911
 8916WAT     H226991   4.970   9.348   7.780
 8917WAT      O26992   4.336   1.660   7.366
 8917WAT     H126993   4.319   1.688   7.461
 8917WAT     H226994   4.260   1.692   7.309
 8918WAT      O26995   8.288   7.707   4.504
 8918WAT     H126996   8.193   7.677   4.494
 8918WAT     H226997   8.316   7.758   4.422
 8919WAT      O26998   1.091   1.441   8.339
 8919WAT     H126999   1.151   1.361   8.335
 8919WAT     H227000   0.999   1.415   8.308
 8920WAT      O27001   6.495   3.062   0.678
 8920WAT     H127002   6.594   3.064   0.671
 8920WAT     H227003   6.457   3.147   0.642
 8921WAT      O27004   3.583   1.250   1.214
 8921WAT     H127005   3.605   1.344   1.187
 8921WAT     H227006   3.495   1.223   1.175
 8922WAT      O27007   0.183   9.083   6.659
 8922WAT     H127008   0.259   9.144   6.639
 8922WAT     H227009   0.177   9.012   6.588
 8923WAT      O27010   9.044   9.007   1.331
 8923WAT     H127011   9.038   9.086   1.393
 8923WAT     H227012   9.037   8.923   1.385
 8924WAT      O27013   5.128   9.117   2.647
 8924WAT     H127014   5.136   9.117   2.746
 8924WAT     H227015   5.140   9.024   2.612
 8925WAT      O27016   5.487   4.333   3.517
 8925WAT     H127017   5.537   4.291   3.593
 8925WAT     H227018   5.392   4.347   3.544
 8926WAT      O27019   7.914   0.184   3.192
 8926WAT     H127020   7.918   0.221   3.099
 8926WAT     H227021   7.867   0.096   3.191
 8927WAT      O27022   6.388   8.704   8.982
 8927WAT     H127023   6.366   8.701   8.885
 8927WAT     H227024   6.432   8.619   9.009
 8928WAT      O27025   9.037   7.130   1.672
 8928WAT     H127026   9.128   7.161   1.700
 8928WAT     H227027   8.999   7.070   1.743
 8929WAT      O27028   0.145   6.148   7.542
 8929WAT     H127029   0.178   6.161   7.635
 8929WAT     H227030   0.053   6.107   7.544
 8930WAT      O27031   0.380   3.401   3.466
 8930WAT     H127032   0.406   3.395   3.369
 8930WAT     H227033   0.304   3.338   3.484
 8931WAT      O27034   4.214   2.650   0.423
 8931WAT     H127035   4.303   2.654   0.378
 8931WAT     H227036   4.194   2.556   0.450
 8932WAT      O27037   9.039   7.646   1.818
 8932WAT     H127038   8.962   7.684   1.868
 8932WAT     H227039   9.014   7.558   1.779
 8933WAT      O27040   9.778   5.826   3.076
 8933WAT     H127041   9.728   5.748   3.113
 8933WAT     H227042   9.866   5.836   3.123
 8934WAT      O27043   4.320   7.630   5.323
 8934WAT     H127044   4.383   7.698   5.360
 8934WAT     H227045   4.355   7.538   5.340
 8935WAT      O27046   0.150   5.277   0.715
 8935WAT     H127047   0.221   5.247   0.652
 8935WAT     H227048   0.153   5.223   0.799
 8936WAT      O27049   8.897   0.583   7.005
 8936WAT     H127050   8.808   0.552   6.972
 8936WAT     H227051   8.924   0.666   6.956
 8937WAT      O27052   3.131   4.500   1.973
 8937WAT     H127053   3.174   4.451   1.897
 8937WAT     H227054   3.192   4.499   2.052
 8938WAT      O27055   8.844   7.013   5.389
 8938WAT     H127056   8.790   6.993   5.471
 8938WAT     H227057   8.804   7.092   5.341
 8939WAT      O27058   3.605   7.293   6.058
 8939WAT     H127059   3.537   7.257   6.122
 8939WAT     H227060   3.562   7.307   5.969
 8940WAT      O27061   0.260   2.572   7.874
 8940WAT     H127062   0.165   2.541   7.860
 8940WAT     H227063   0.303   2.515   7.944
 8941WAT      O27064   5.649   0.817   7.593
 8941WAT     H127065   5.593   0.796   7.674
 8941WAT     H227066   5.733   0.763   7.596
 8942WAT      O27067   4.344   9.083   8.873
 8942WAT     H127068   4.418   9.100   8.809
 8942WAT     H227069   4.256   9.092   8.826
 8943WAT      O27070   5.798   5.341   6.202
 8943WAT     H127071   5.875   5.330   6.140
 8943WAT     H227072   5.820   5.300   6.290
 8944WAT      O27073   3.739   3.664   4.846
 8944WAT     H127074   3.750   3.577   4.800
 8944WAT     H227075   3.672   3.655   4.920
 8945WAT      O27076   8.114   3.182   7.027
 8945WAT     H127077   8.016   3.187   7.045
 8945WAT     H227078   8.138   3.249   6.956
 8946WAT      O27079   3.045   6.388   9.857
 8946WAT     H127080   3.062   6.436   9.771
 8946WAT     H227081   2.957   6.416   9.894
 8947WAT      O27082   8.427   8.400   1.580
 8947WAT     H127083   8.513   8.382   1.628
 8947WAT     H227084   8.350   8.370   1.637
 8948WAT      O27085   2.650   4.744   4.698
 8948WAT     H127086   2.584   4.814   4.671
 8948WAT     H227087   2.726   4.743   4.632
 8949WAT      O27088   2.648   6.306   3.135
 8949WAT     H127089   2.591   6.223   3.141
 8949WAT     H227090   2.737   6.281   3.097
 8950WAT      O27091   0.370   7.473   3.263
 8950WAT     H127092   0.298   7.454   3.330
 8950WAT     H227093   0.376   7.396   3.199
 8951WAT      O27094   3.064   7.183   3.812
 8951WAT     H127095   3.043   7.087   3.831
 8951WAT     H227096   3.029   7.240   3.886
 8952WAT      O27097   6.847   1.842   5.346
 8952WAT     H127098   6.916   1.782   5.307
 8952WAT     H227099   6.884   1.886   5.428
 8953WAT      O27100   7.260   1.077   1.805
 8953WAT     H127101   7.287   0.983   1.824
 8953WAT     H227102   7.223   1.083   1.712
 8954WAT      O27103   3.712   8.953   0.254
 8954WAT     H127104   3.690   8.857   0.241
 8954WAT     H227105   3.657   9.009   0.193
 8955WAT      O27106   9.311   8.313   1.853
 8955WAT     H127107   9.387   8.363   1.894
 8955WAT     H227108   9.263   8.261   1.925
 8956WAT      O27109   0.972   6.556   9.463
 8956WAT     H127110   1.001   6.628   9.526
 8956WAT     H227111   1.052   6.520   9.415
 8957WAT      O27112   3.926   8.301   4.539
 8957WAT     H127113   3.903   8.234   4.469
 8957WAT     H227114   4.025   8.299   4.555
 8958WAT      O27115   5.338   7.981   9.755
 8958WAT     H127116   5.424   7.941   9.788
 8958WAT     H227117   5.331   7.970   9.656
 8959WAT      O27118   9.617   7.923   9.260
 8959WAT     H127119   9.641   7.845   9.317
 8959WAT     H227120   9.595   8.002   9.318
 8960WAT      O27121   8.712   4.495   1.459
 8960WAT     H127122   8.619   4.516   1.488
 8960WAT     H227123   8.762   4.451   1.534
 8961WAT      O27124   8.479   2.590   6.382
 8961WAT     H127125   8.556   2.628   6.330
 8961WAT     H227126   8.510   2.511   6.435
 8962WAT      O27127   2.290   1.204   2.407
 8962WAT     H127128   2.233   1.249   2.476
 8962WAT     H227129   2.314   1.112   2.439
 8963WAT      O27130   0.034   0.366   5.407
 8963WAT     H127131   0.037   0.466   5.403
 8963WAT     H227132   0.076   0.329   5.324
 8964WAT      O27133   2.548   8.412   8.532
 8964WAT     H127134   2.457   8.373   8.547
 8964WAT     H227135   2.591   8.431   8.621
 8965WAT      O27136   3.045   3.746   1.742
 8965WAT     H127137   3.065   3.789   1.654
 8965WAT     H227138   3.086   3.800   1.816
 8966WAT      O27139   0.013   8.966   8.806
 8966WAT     H127140   0.031   9.052   8.855
 8966WAT     H227141  -0.085   8.958   8.790
 8967WAT      O27142   9.381   8.123   5.159
 8967WAT     H127143   9.410   8.163   5.072
 8967WAT     H227144   9.452   8.061   5.193
 8968WAT      O27145   2.177   3.955   0.163
 8968WAT     H127146   2.234   3.937   0.244
 8968WAT     H227147   2.174   3.873   0.106
 8969WAT      O27148   2.431   4.878   4.609
 8969WAT     H127149   2.351   4.822   4.592
 8969WAT     H227150   2.437   4.950   4.540
 8970WAT      O27151   1.147   3.270   7.033
 8970WAT     H127152   1.209   3.211   7.085
 8970WAT     H227153   1.083   3.315   7.096
 8971WAT      O27154   9.564   9.326   5.402
 8971WAT     H127155   9.571   9.354   5.498
 8971WAT     H227156   9.494   9.381   5.356
 8972WAT      O27157   8.571   4.186   6.406
 8972WAT     H127158   8.570   4.232   6.495
 8972WAT     H227159   8.481   4.191   6.365
 8973WAT      O27160   1.442   7.401   3.656
 8973WAT     H127161   1.360   7.450   3.626
 8973WAT     H227162   1.519   7.427   3.599
 8974WAT      O27163   6.004   1.213   9.159
 8974WAT     H127164   5.993   1.280   9.086
 8974WAT     H227165   6.065   1.140   9.128
 8975WAT      O27166   4.118   1.740   2.857
 8975WAT     H127167   4.190   1.752   2.789
 8975WAT     H227168   4.157   1.749   2.949
 8976WAT      O27169   9.503   1.062   3.001
 8976WAT     H127170   9.531   1.076   3.096
 8976WAT     H227171   9.583   1.071   2.941
 8977WAT      O27172   9.766   4.686   0.214
 8977WAT     H127173   9.824   4.766   0.198
 8977WAT     H227174   9.714   4.700   0.299
 8978WAT      O27175   7.213   1.315   6.896
 8978WAT     H127176   7.133   1.328   6.954
 8978WAT     H227177   7.185   1.311   6.800
 8979WAT      O27178   4.957   5.605   4.646
 8979WAT     H127179   5.044   5.559   4.664
 8979WAT     H227180   4.889   5.538   4.615
 8980WAT      O27181   8.892   8.377   3.365
 8980WAT     H127182   8.973   8.321   3.377
 8980WAT     H227183   8.840   8.380   3.450
 8981WAT      O27184   3.371   5.854   1.079
 8981WAT     H127185   3.314   5.928   1.043
 8981WAT     H227186   3.378   5.864   1.178
 8982WAT      O27187   2.085   1.972   6.997
 8982WAT     H127188   2.033   2.057   6.993
 8982WAT     H227189   2.139   1.970   7.081
 8983WAT      O27190   1.037   8.450   4.850
 8983WAT     H127191   1.090   8.444   4.766
 8983WAT     H227192   0.961   8.385   4.846
 8984WAT      O27193   7.047   6.222   4.018
 8984WAT     H127194   7.049   6.301   3.958
 8984WAT     H227195   7.136   6.210   4.061
 8985WAT      O27196   2.062   8.717   3.128
 8985WAT     H127197   2.161   8.720   3.110
 8985WAT     H227198   2.025   8.630   3.097
 8986WAT      O27199   8.759   7.300   7.451
 8986WAT     H127200   8.847   7.321   7.494
 8986WAT     H227201   8.765   7.213   7.403
 8987WAT      O27202   4.079   1.020   1.132
 8987WAT     H127203   4.003   1.085   1.137
 8987WAT     H227204   4.081   0.978   1.041
 8988WAT      O27205   9.867   7.279   1.196
 8988WAT     H127206   9.946   7.245   1.247
 8988WAT     H227207   9.836   7.208   1.132
 8989WAT      O27208   7.309   9.099   9.334
 8989WAT     H127209   7.285   9.096   9.237
 8989WAT     H227210   7.362   9.017   9.357
 8990WAT      O27211   5.169   8.861   2.945
 8990WAT     H127212   5.075   8.829   2.956
 8990WAT     H227213   5.198   8.907   3.029
 8991WAT      O27214   5.094   3.875   5.341
 8991WAT     H127215   5.122   3.811   5.413
 8991WAT     H227216   5.066   3.824   5.260
 8992WAT      O27217   4.290   0.790   8.852
 8992WAT     H127218   4.200   0.802   8.810
 8992WAT     H227219   4.330   0.880   8.869
 8993WAT      O27220   7.121   6.411   0.905
 8993WAT     H127221   7.033   6.375   0.937
 8993WAT     H227222   7.181   6.428   0.983
 8994WAT      O27223   6.134   9.084   3.844
 8994WAT     H127224   6.160   9.072   3.940
 8994WAT     H227225   6.144   8.998   3.795
 8995WAT      O27226   0.513   7.915   2.121
 8995WAT     H127227   0.541   7.822   2.096
 8995WAT     H227228   0.552   7.980   2.055
 8996WAT      O27229   4.498   0.898   5.479
 8996WAT     H127230   4.532   0.806   5.456
 8996WAT     H227231   4.494   0.953   5.396
 8997WAT      O27232   8.757   7.048   7.325
 8997WAT     H127233   8.797   6.983   7.389
 8997WAT     H227234   8.736   7.002   7.238
 8998WAT      O27235   0.107   8.821   4.357
 8998WAT     H127236   0.147   8.809   4.266
 8998WAT     H227237   0.052   8.741   4.380
 8999WAT      O27238   2.948   4.825   5.559
 8999WAT     H127239   2.935   4.760   5.484
 8999WAT     H227240   2.923   4.781   5.645
 9000WAT      O27241   6.980   8.529   8.775
 9000WAT     H127242   6.999   8.578   8.860
 9000WAT     H227243   6.919   8.584   8.718
 9001WAT      O27244   6.155   8.992   9.089
 9001WAT     H127245   6.061   9.013   9.115
 9001WAT     H227246   6.158   8.967   8.992
 9002WAT      O27247   0.039   3.241   3.912
 9002WAT     H127248  -0.031   3.289   3.859
 9002WAT     H227249   0.114   3.215   3.851
 9003WAT      O27250   7.721   2.229   2.527
 9003WAT     H127251   7.644   2.223   2.590
 9003WAT     H227252   7.804   2.197   2.573
 9004WAT      O27253   5.762   3.713   1.009
 9004WAT     H127254   5.756   3.797   1.064
 9004WAT     H227255   5.784   3.738   0.915
 9005WAT      O27256   1.753   0.673   8.119
 9005WAT     H127257   1.747   0.582   8.078
 9005WAT     H227258   1.670   0.692   8.172
 9006WAT      O27259   9.246   0.198   3.476
 9006WAT     H127260   9.344   0.181   3.480
 9006WAT     H227261   9.229   0.296   3.486
 9007WAT      O27262   8.641   3.019   9.008
 9007WAT     H127263   8.667   3.055   9.098
 9007WAT     H227264   8.675   3.082   8.937
 9008WAT      O27265   0.798   9.060   6.115
 9008WAT     H127266   0.838   9.012   6.193
 9008WAT     H227267   0.758   8.993   6.052
 9009WAT      O27268   3.428   4.874   5.465
 9009WAT     H127269   3.495   4.941   5.436
 9009WAT     H227270   3.337   4.902   5.434
 9010WAT      O27271   4.208   7.529   3.621
 9010WAT     H127272   4.293   7.573   3.596
 9010WAT     H227273   4.214   7.431   3.603
 9011WAT      O27274   3.338   4.651   1.285
 9011WAT     H127275   3.280   4.732   1.284
 9011WAT     H227276   3.290   4.575   1.329
 9012WAT      O27277   3.074   3.537   2.106
 9012WAT     H127278   3.159   3.514   2.153
 9012WAT     H227279   3.076   3.501   2.013
 9013WAT      O27280   5.745   1.405   2.081
 9013WAT     H127281   5.709   1.495   2.104
 9013WAT     H227282   5.785   1.408   1.989
 9014WAT      O27283   7.398   0.961   2.506
 9014WAT     H127284   7.446   0.974   2.419
 9014WAT     H227285   7.304   0.992   2.496
 9015WAT      O27286   5.215   4.012   1.721
 9015WAT     H127287   5.180   4.084   1.781
 9015WAT     H227288   5.267   3.946   1.775
 9016WAT      O27289   7.624   2.487   2.435
 9016WAT     H127290   7.668   2.490   2.525
 9016WAT     H227291   7.674   2.545   2.371
 9017WAT      O27292   8.297   0.841   2.776
 9017WAT     H127293   8.241   0.884   2.706
 9017WAT     H227294   8.357   0.774   2.734
 9018WAT      O27295   7.777   7.611   0.156
 9018WAT     H127296   7.722   7.661   0.224
 9018WAT     H227297   7.843   7.553   0.204
 9019WAT      O27298   8.046   5.990   6.213
 9019WAT     H127299   8.048   5.906   6.159
 9019WAT     H227300   7.963   5.992   6.269
 9020WAT      O27301   5.051   7.283   9.231
 9020WAT     H127302   4.998   7.367   9.224
 9020WAT     H227303   5.009   7.212   9.174
 9021WAT      O27304   0.732   8.938   3.371
 9021WAT     H127305   0.642   8.964   3.404
 9021WAT     H227306   0.802   8.980   3.428
 9022WAT      O27307   8.831   9.078   3.983
 9022WAT     H127308   8.790   8.987   3.971
 9022WAT     H227309   8.763   9.140   4.021
 9023WAT      O27310   9.321   8.770   9.593
 9023WAT     H127311   9.336   8.704   9.520
 9023WAT     H227312   9.224   8.794   9.598
 9024WAT      O27313   2.048   6.411   5.403
 9024WAT     H127314   2.035   6.490   5.343
 9024WAT     H227315   2.081   6.442   5.492
 9025WAT      O27316   9.102   7.996   7.854
 9025WAT     H127317   9.008   8.029   7.863
 9025WAT     H227318   9.155   8.026   7.934
 9026WAT      O27319   6.440   6.416   4.114
 9026WAT     H127320   6.530   6.372   4.115
 9026WAT     H227321   6.374   6.356   4.070
 9027WAT      O27322   9.715   2.613   6.685
 9027WAT     H127323   9.642   2.645   6.745
 9027WAT     H227324   9.764   2.538   6.729
 9028WAT      O27325   7.730   9.495   6.182
 9028WAT     H127326   7.737   9.421   6.116
 9028WAT     H227327   7.777   9.576   6.146
 9029WAT      O27328   2.353   5.397   2.243
 9029WAT     H127329   2.268   5.444   2.219
 9029WAT     H227330   2.339   5.298   2.238
 9030WAT      O27331   5.630   9.820   7.805
 9030WAT     H127332   5.542   9.800   7.846
 9030WAT     H227333   5.629   9.794   7.708
 9031WAT      O27334   6.692   2.756   6.530
 9031WAT     H127335   6.652   2.720   6.446
 9031WAT     H227336   6.724   2.850   6.514
 9032WAT      O27337   0.907   9.707   9.019
 9032WAT     H127338   0.898   9.733   9.115
 9032WAT     H227339   0.819   9.719   8.973
 9033WAT      O27340   3.015   3.008   2.813
 9033WAT     H127341   2.975   2.996   2.722
 9033WAT     H227342   3.045   3.103   2.824
 9034WAT      O27343   7.778   4.862   7.231
 9034WAT     H127344   7.877   4.879   7.229
 9034WAT     H227345   7.760   4.772   7.191
 9035WAT      O27346   3.897   7.904   7.241
 9035WAT     H127347   3.833   7.964   7.289
 9035WAT     H227348   3.990   7.924   7.271
 9036WAT      O27349   9.499   4.064   8.096
 9036WAT     H127350   9.494   3.970   8.131
 9036WAT     H227351   9.580   4.109   8.134
 9037WAT      O27352   2.771   2.978   9.784
 9037WAT     H127353   2.714   2.897   9.769
 9037WAT     H227354   2.784   3.026   9.697
 9038WAT      O27355   0.389   9.152   7.718
 9038WAT     H127356   0.344   9.186   7.801
 9038WAT     H227357   0.453   9.080   7.744
 9039WAT      O27358   0.120   4.937   6.563
 9039WAT     H127359   0.114   4.980   6.653
 9039WAT     H227360   0.178   4.856   6.569
 9040WAT      O27361   6.132   1.318   2.945
 9040WAT     H127362   6.053   1.335   3.004
 9040WAT     H227363   6.216   1.321   3.000
 9041WAT      O27364   8.708   7.431   6.770
 9041WAT     H127365   8.709   7.333   6.751
 9041WAT     H227366   8.802   7.465   6.777
 9042WAT      O27367   6.071   4.701   3.023
 9042WAT     H127368   6.035   4.647   3.099
 9042WAT     H227369   6.092   4.641   2.947
 9043WAT      O27370   0.229   6.144   7.791
 9043WAT     H127371   0.265   6.051   7.802
 9043WAT     H227372   0.180   6.170   7.874
 9044WAT      O27373   8.771   5.936   4.842
 9044WAT     H127374   8.804   6.012   4.786
 9044WAT     H227375   8.823   5.853   4.819
 9045WAT      O27376   3.239   6.723   4.289
 9045WAT     H127377   3.159   6.710   4.230
 9045WAT     H227378   3.312   6.768   4.237
 9046WAT      O27379   3.166   3.374   1.853
 9046WAT     H127380   3.076   3.399   1.818
 9046WAT     H227381   3.189   3.281   1.825
 9047WAT      O27382   4.257   5.327   8.825
 9047WAT     H127383   4.194   5.254   8.797
 9047WAT     H227384   4.252   5.402   8.760
 9048WAT      O27385   7.699   1.719   8.779
 9048WAT     H127386   7.779   1.660   8.786
 9048WAT     H227387   7.631   1.692   8.847
 9049WAT      O27388   9.481   6.725   0.493
 9049WAT     H127389   9.574   6.757   0.511
 9049WAT     H227390   9.479   6.625   0.494
 9050WAT      O27391   7.822   5.265   9.540
 9050WAT     H127392   7.874   5.256   9.455
 9050WAT     H227393   7.786   5.175   9.567
 9051WAT      O27394   2.463   0.160   6.219
 9051WAT     H127395   2.474   0.189   6.123
 9051WAT     H227396   2.516   0.221   6.278
 9052WAT      O27397   1.206   4.560   7.361
 9052WAT     H127398   1.139   4.487   7.375
 9052WAT     H227399   1.250   4.549   7.272
 9053WAT      O27400   0.126   4.657   7.707
 9053WAT     H127401   0.116   4.717   7.786
 9053WAT     H227402   0.219   4.662   7.672
 9054WAT      O27403   9.185   5.541   2.424
 9054WAT     H127404   9.277   5.507   2.407
 9054WAT     H227405   9.118   5.471   2.398
 9055WAT      O27406   8.506   9.557   9.224
 9055WAT     H127407   8.499   9.647   9.181
 9055WAT     H227408   8.422   9.505   9.209
 9056WAT      O27409   5.475   9.412   6.218
 9056WAT     H127410   5.453   9.323   6.258
 9056WAT     H227411   5.390   9.458   6.191
 9057WAT      O27412   0.296   2.412   7.528
 9057WAT     H127413   0.262   2.348   7.597
 9057WAT     H227414   0.363   2.366   7.470
 9058WAT      O27415   6.230   7.825   0.484
 9058WAT     H127416   6.181   7.741   0.462
 9058WAT     H227417   6.309   7.803   0.542
 9059WAT      O27418   7.047   7.891   3.422
 9059WAT     H127419   7.140   7.854   3.430
 9059WAT     H227420   6.998   7.875   3.508
 9060WAT      O27421   0.605   8.660   7.941
 9060WAT     H127422   0.676   8.648   7.872
 9060WAT     H227423   0.557   8.746   7.927
 9061WAT      O27424   0.722   9.240   1.300
 9061WAT     H127425   0.801   9.183   1.320
 9061WAT     H227426   0.638   9.192   1.328
 9062WAT      O27427   3.851   2.220   9.476
 9062WAT     H127428   3.839   2.297   9.538
 9062WAT     H227429   3.936   2.231   9.425
 9063WAT      O27430   2.934   3.978   2.468
 9063WAT     H127431   2.927   3.939   2.560
 9063WAT     H227432   2.908   3.909   2.401
 9064WAT      O27433   6.457   7.484   4.399
 9064WAT     H127434   6.397   7.425   4.453
 9064WAT     H227435   6.541   7.502   4.450
 9065WAT      O27436   8.373   4.425   5.728
 9065WAT     H127437   8.316   4.351   5.691
 9065WAT     H227438   8.417   4.394   5.813
 9066WAT      O27439   0.735   5.581   1.859
 9066WAT     H127440   0.661   5.595   1.793
 9066WAT     H227441   0.698   5.534   1.939
 9067WAT      O27442   3.988   3.053   3.084
 9067WAT     H127443   3.951   3.028   2.994
 9067WAT     H227444   4.047   2.979   3.118
 9068WAT      O27445   6.789   1.964   3.623
 9068WAT     H127446   6.855   1.917   3.681
 9068WAT     H227447   6.703   1.975   3.672
 9069WAT      O27448   2.041   9.246   6.301
 9069WAT     H127449   1.991   9.169   6.263
 9069WAT     H227450   2.001   9.332   6.267
 9070WAT      O27451   6.255   0.063   2.162
 9070WAT     H127452   6.213   0.051   2.072
 9070WAT     H227453   6.206   0.007   2.229
 9071WAT      O27454   5.847   0.258   8.813
 9071WAT     H127455   5.896   0.338   8.847
 9071WAT     H227456   5.877   0.177   8.864
 9072WAT      O27457   0.707   1.122   5.477
 9072WAT     H127458   0.676   1.130   5.572
 9072WAT     H227459   0.701   1.027   5.448
 9073WAT      O27460   3.698   9.305   0.254
 9073WAT     H127461   3.658   9.248   0.182
 9073WAT     H227462   3.745   9.247   0.320
 9074WAT      O27463   0.574   8.162   5.386
 9074WAT     H127464   0.636   8.203   5.453
 9074WAT     H227465   0.610   8.073   5.357
 9075WAT      O27466   8.055   6.033   0.497
 9075WAT     H127467   8.094   6.038   0.589
 9075WAT     H227468   8.104   5.964   0.444
 9076WAT      O27469   2.145   6.779   7.839
 9076WAT     H127470   2.100   6.833   7.911
 9076WAT     H227471   2.077   6.744   7.776
 9077WAT      O27472   8.585   7.109   0.433
 9077WAT     H127473   8.543   7.162   0.506
 9077WAT     H227474   8.681   7.136   0.422
 9078WAT      O27475   8.149   9.049   0.809
 9078WAT     H127476   8.215   9.087   0.874
 9078WAT     H227477   8.192   9.041   0.719
 9079WAT      O27478   9.408   5.969   1.550
 9079WAT     H127479   9.443   5.953   1.458
 9079WAT     H227480   9.358   5.889   1.582
 9080WAT      O27481   7.170   6.955   0.370
 9080WAT     H127482   7.231   6.892   0.322
 9080WAT     H227483   7.108   6.998   0.305
 9081WAT      O27484   5.380   6.662   1.616
 9081WAT     H127485   5.324   6.645   1.535
 9081WAT     H227486   5.368   6.756   1.646
 9082WAT      O27487   4.291   5.515   6.000
 9082WAT     H127488   4.201   5.530   5.961
 9082WAT     H227489   4.302   5.418   6.024
 9083WAT      O27490   1.673   8.653   1.027
 9083WAT     H127491   1.752   8.595   1.006
 9083WAT     H227492   1.658   8.717   0.952
 9084WAT      O27493   5.919   7.914   5.896
 9084WAT     H127494   5.979   7.944   5.822
 9084WAT     H227495   5.893   7.992   5.952
 9085WAT      O27496   0.833   5.957   5.131
 9085WAT     H127497   0.889   5.952   5.048
 9085WAT     H227498   0.839   5.870   5.180
 9086WAT      O27499   9.294   4.019   3.744
 9086WAT     H127500   9.326   3.964   3.821
 9086WAT     H227501   9.230   3.966   3.689
 9087WAT      O27502   1.585   6.648   1.661
 9087WAT     H127503   1.516   6.577   1.643
 9087WAT     H227504   1.642   6.620   1.738
 9088WAT      O27505   2.027   2.589   4.034
 9088WAT     H127506   2.033   2.649   3.954
 9088WAT     H227507   1.959   2.517   4.017
 9089WAT      O27508   6.635   7.111   1.554
 9089WAT     H127509   6.635   7.016   1.523
 9089WAT     H227510   6.554   7.158   1.517
 9090WAT      O27511   2.426   9.197   7.195
 9090WAT     H127512   2.441   9.219   7.291
 9090WAT     H227513   2.472   9.111   7.173
 9091WAT      O27514   6.249   9.084   6.039
 9091WAT     H127515   6.320   9.049   5.978
 9091WAT     H227516   6.166   9.102   5.987
 9092WAT      O27517   8.337   6.174   7.429
 9092WAT     H127518   8.278   6.159   7.349
 9092WAT     H227519   8.307   6.257   7.476
 9093WAT      O27520   7.050   1.528   3.900
 9093WAT     H127521   7.149   1.540   3.906
 9093WAT     H227522   7.024   1.521   3.804
 9094WAT      O27523   5.701   2.246   6.682
 9094WAT     H127524   5.684   2.264   6.585
 9094WAT     H227525   5.620   2.207   6.724
 9095WAT      O27526   6.182   1.768   7.390
 9095WAT     H127527   6.199   1.701   7.317
 9095WAT     H227528   6.097   1.747   7.437
 9096WAT      O27529   5.440   4.026   4.122
 9096WAT     H127530   5.497   3.990   4.196
 9096WAT     H227531   5.428   3.956   4.052
 9097WAT      O27532   7.154   2.206   7.101
 9097WAT     H127533   7.110   2.153   7.174
 9097WAT     H227534   7.097   2.202   7.019
 9098WAT      O27535   4.807   9.742   6.417
 9098WAT     H127536   4.848   9.781   6.336
 9098WAT     H227537   4.737   9.804   6.453
 9099WAT      O27538   9.298   1.392   2.225
 9099WAT     H127539   9.263   1.363   2.314
 9099WAT     H227540   9.289   1.491   2.217
 9100WAT      O27541   5.867   2.696   9.106
 9100WAT     H127542   5.857   2.789   9.139
 9100WAT     H227543   5.964   2.678   9.085
 9101WAT      O27544   8.068   0.132   0.438
 9101WAT     H127545   8.078   0.223   0.477
 9101WAT     H227546   8.154   0.104   0.396
 9102WAT      O27547   9.818   5.058   2.465
 9102WAT     H127548   9.818   4.958   2.467
 9102WAT     H227549   9.905   5.091   2.501
 9103WAT      O27550   7.528   2.460   3.921
 9103WAT     H127551   7.557   2.540   3.868
 9103WAT     H227552   7.438   2.430   3.890
 9104WAT      O27553   5.081   0.709   5.701
 9104WAT     H127554   5.111   0.777   5.769
 9104WAT     H227555   5.124   0.621   5.722
 9105WAT      O27556   6.828   3.736   9.052
 9105WAT     H127557   6.818   3.688   9.139
 9105WAT     H227558   6.837   3.834   9.068
 9106WAT      O27559   4.584   5.909   7.076
 9106WAT     H127560   4.646   5.958   7.015
 9106WAT     H227561   4.602   5.811   7.069
 9107WAT      O27562   9.705   3.909   5.973
 9107WAT     H127563   9.759   3.983   6.013
 9107WAT     H227564   9.649   3.945   5.898
 9108WAT      O27565   4.793   2.549   2.057
 9108WAT     H127566   4.704   2.576   2.093
 9108WAT     H227567   4.809   2.452   2.076
 9109WAT      O27568   1.560   6.496   4.302
 9109WAT     H127569   1.623   6.435   4.351
 9109WAT     H227570   1.491   6.441   4.255
 9110WAT      O27571   7.316   7.297   7.599
 9110WAT     H127572   7.333   7.227   7.668
 9110WAT     H227573   7.221   7.295   7.571
 9111WAT      O27574   5.048   2.840   4.976
 9111WAT     H127575   5.010   2.890   5.054
 9111WAT     H227576   5.105   2.901   4.921
 9112WAT      O27577   0.961   4.793   8.718
 9112WAT     H127578   0.899   4.771   8.793
 9112WAT     H227579   0.999   4.709   8.679
 9113WAT      O27580   3.291   4.588   7.329
 9113WAT     H127581   3.255   4.604   7.237
 9113WAT     H227582   3.311   4.676   7.372
 9114WAT      O27583   1.049   0.254   7.592
 9114WAT     H127584   1.017   0.160   7.576
 9114WAT     H227585   1.088   0.291   7.508
 9115WAT      O27586   9.551   5.350   3.966
 9115WAT     H127587   9.575   5.383   4.057
 9115WAT     H227588   9.591   5.259   3.952
 9116WAT      O27589   9.708   5.084   1.120
 9116WAT     H127590   9.806   5.096   1.133
 9116WAT     H227591   9.692   5.024   1.042
 9117WAT      O27592   2.054   6.926   2.923
 9117WAT     H127593   2.045   7.020   2.956
 9117WAT     H227594   2.129   6.921   2.857
 9118WAT      O27595   2.885   2.683   4.565
 9118WAT     H127596   2.950   2.646   4.632
 9118WAT     H227597   2.928   2.760   4.516
 9119WAT      O27598   6.781   8.123   4.201
 9119WAT     H127599   6.756   8.202   4.145
 9119WAT     H227600   6.700   8.066   4.215
 9120WAT      O27601   5.041   1.679   0.127
 9120WAT     H127602   5.138   1.671   0.150
 9120WAT     H227603   5.016   1.607   0.063
 9121WAT      O27604   7.610   9.339   9.314
 9121WAT     H127605   7.593   9.324   9.217
 9121WAT     H227606   7.665   9.264   9.351
 9122WAT      O27607   4.547   0.981   6.761
 9122WAT     H127608   4.541   0.888   6.797
 9122WAT     H227609   4.597   0.981   6.675
 9123WAT      O27610   9.169   6.833   8.622
 9123WAT     H127611   9.257   6.826   8.668
 9123WAT     H227612   9.182   6.872   8.531
 9124WAT      O27613   4.113   0.144   4.760
 9124WAT     H127614   4.080   0.228   4.718
 9124WAT     H227615   4.046   0.070   4.745
 9125WAT      O27616   7.299   3.935   8.870
 9125WAT     H127617   7.332   3.864   8.808
 9125WAT     H227618   7.271   3.892   8.957
 9126WAT      O27619   4.134   4.828   0.437
 9126WAT     H127620   4.129   4.917   0.391
 9126WAT     H227621   4.043   4.804   0.472
 9127WAT      O27622   1.380   0.770   0.036
 9127WAT     H127623   1.369   0.788  -0.062
 9127WAT     H227624   1.298   0.723   0.071
 9128WAT      O27625   2.967   0.185   2.334
 9128WAT     H127626   3.053   0.231   2.356
 9128WAT     H227627   2.964   0.166   2.236
 9129WAT      O27628   9.803   4.823   8.124
 9129WAT     H127629   9.833   4.903   8.072
 9129WAT     H227630   9.708   4.801   8.100
 9130WAT      O27631   0.402   1.140   3.443
 9130WAT     H127632   0.427   1.175   3.534
 9130WAT     H227633   0.407   1.040   3.444
 9131WAT      O27634   9.858   1.783   5.574
 9131WAT     H127635   9.822   1.739   5.492
 9131WAT     H227636   9.938   1.732   5.607
 9132WAT      O27637   3.973   6.906   2.819
 9132WAT     H127638   4.023   6.966   2.881
 9132WAT     H227639   3.887   6.878   2.862
 9133WAT      O27640   6.099   1.947   8.355
 9133WAT     H127641   6.132   1.891   8.432
 9133WAT     H227642   6.006   1.977   8.374
 9134WAT      O27643   8.661   9.642   4.100
 9134WAT     H127644   8.573   9.629   4.055
 9134WAT     H227645   8.653   9.619   4.197
 9135WAT      O27646   3.637   3.497   5.918
 9135WAT     H127647   3.628   3.556   5.998
 9135WAT     H227648   3.705   3.425   5.937
 9136WAT      O27649   8.706   9.125   6.243
 9136WAT     H127650   8.664   9.074   6.319
 9136WAT     H227651   8.635   9.157   6.181
 9137WAT      O27652   7.563   5.588   9.396
 9137WAT     H127653   7.600   5.652   9.463
 9137WAT     H227654   7.520   5.638   9.321
 9138WAT      O27655   1.138   8.000   7.649
 9138WAT     H127656   1.100   7.908   7.653
 9138WAT     H227657   1.081   8.056   7.589
 9139WAT      O27658   1.945   4.455   1.369
 9139WAT     H127659   1.857   4.432   1.410
 9139WAT     H227660   2.018   4.402   1.412
 9140WAT      O27661   1.095   9.793   7.602
 9140WAT     H127662   1.026   9.724   7.580
 9140WAT     H227663   1.156   9.805   7.523
 9141WAT      O27664   2.595   1.348   7.165
 9141WAT     H127665   2.541   1.336   7.248
 9141WAT     H227666   2.534   1.354   7.086
 9142WAT      O27667   2.563   1.208   8.454
 9142WAT     H127668   2.604   1.151   8.526
 9142WAT     H227669   2.465   1.193   8.451
 9143WAT      O27670   4.213   7.917   4.464
 9143WAT     H127671   4.227   8.015   4.478
 9143WAT     H227672   4.158   7.902   4.382
 9144WAT      O27673   4.863   0.475   4.221
 9144WAT     H127674   4.918   0.481   4.138
 9144WAT     H227675   4.898   0.541   4.288
 9145WAT      O27676   3.520   9.085   4.470
 9145WAT     H127677   3.525   9.101   4.568
 9145WAT     H227678   3.427   9.059   4.445
 9146WAT      O27679   4.444   7.125   6.194
 9146WAT     H127680   4.443   7.215   6.238
 9146WAT     H227681   4.415   7.134   6.099
 9147WAT      O27682   7.386   1.743   7.636
 9147WAT     H127683   7.426   1.816   7.580
 9147WAT     H227684   7.355   1.669   7.576
 9148WAT      O27685   2.631   3.872   8.250
 9148WAT     H127686   2.622   3.795   8.313
 9148WAT     H227687   2.543   3.919   8.242
 9149WAT      O27688   7.707   4.620   6.214
 9149WAT     H127689   7.745   4.711   6.200
 9149WAT     H227690   7.779   4.551   6.202
 9150WAT      O27691   5.954   0.035   9.698
 9150WAT     H127692   5.911  -0.048   9.733
 9150WAT     H227693   6.019   0.070   9.766
 9151WAT      O27694   0.762   5.209   9.882
 9151WAT     H127695   0.824   5.132   9.867
 9151WAT     H227696   0.678   5.195   9.828
 9152WAT      O27697   1.602   7.311   5.292
 9152WAT     H127698   1.539   7.234   5.304
 9152WAT     H227699   1.665   7.291   5.218
 9153WAT      O27700   0.483   6.444   1.267
 9153WAT     H127701   0.495   6.383   1.346
 9153WAT     H227702   0.572   6.476   1.236
 9154WAT      O27703   5.622   0.508   3.818
 9154WAT     H127704   5.606   0.526   3.721
 9154WAT     H227705   5.536   0.485   3.862
 9155WAT      O27706   5.122   3.289   3.778
 9155WAT     H127707   5.034   3.315   3.740
 9155WAT     H227708   5.195   3.319   3.717
 9156WAT      O27709   9.084   5.901   5.477
 9156WAT     H127710   9.073   5.994   5.441
 9156WAT     H227711   9.146   5.903   5.555
 9157WAT      O27712   3.402   4.713   8.034
 9157WAT     H127713   3.494   4.701   8.072
 9157WAT     H227714   3.405   4.783   7.962
 9158WAT      O27715   8.963   0.998   4.556
 9158WAT     H127716   8.951   1.010   4.457
 9158WAT     H227717   9.028   0.924   4.573
 9159WAT      O27718   1.759   0.396   7.982
 9159WAT     H127719   1.748   0.372   7.885
 9159WAT     H227720   1.845   0.357   8.016
 9160WAT      O27721   3.649   6.369   9.206
 9160WAT     H127722   3.744   6.340   9.191
 9160WAT     H227723   3.595   6.353   9.124
 9161WAT      O27724   7.442   2.019   5.769
 9161WAT     H127725   7.497   1.936   5.758
 9161WAT     H227726   7.473   2.089   5.705
 9162WAT      O27727   5.765   6.001   2.244
 9162WAT     H127728   5.693   5.966   2.304
 9162WAT     H227729   5.743   5.979   2.149
 9163WAT      O27730   0.833   5.229   8.149
 9163WAT     H127731   0.862   5.134   8.139
 9163WAT     H227732   0.739   5.232   8.184
 9164WAT      O27733   6.893   7.723   3.920
 9164WAT     H127734   6.951   7.643   3.933
 9164WAT     H227735   6.878   7.768   4.008
 9165WAT      O27736   9.332   0.726   8.430
 9165WAT     H127737   9.296   0.674   8.353
 9165WAT     H227738   9.294   0.690   8.516
 9166WAT      O27739   4.847   9.462   4.260
 9166WAT     H127740   4.932   9.488   4.214
 9166WAT     H227741   4.786   9.417   4.195
 9167WAT      O27742   0.693   7.187   1.343
 9167WAT     H127743   0.782   7.206   1.302
 9167WAT     H227744   0.705   7.153   1.436
 9168WAT      O27745   1.613   8.028   7.117
 9168WAT     H127746   1.706   8.001   7.092
 9168WAT     H227747   1.568   7.954   7.165
 9169WAT      O27748   9.559   0.580   8.411
 9169WAT     H127749   9.514   0.492   8.425
 9169WAT     H227750   9.490   0.652   8.406
 9170WAT      O27751   0.058   3.639   4.397
 9170WAT     H127752   0.129   3.642   4.468
 9170WAT     H227753   0.023   3.731   4.382
 9171WAT      O27754   3.814   4.851   3.031
 9171WAT     H127755   3.784   4.889   2.943
 9171WAT     H227756   3.911   4.871   3.045
 9172WAT      O27757   3.931   6.462   2.299
 9172WAT     H127758   3.890   6.471   2.208
 9172WAT     H227759   3.859   6.453   2.367
 9173WAT      O27760   9.292   2.955   1.533
 9173WAT     H127761   9.220   2.914   1.589
 9173WAT     H227762   9.339   3.026   1.585
 9174WAT      O27763   4.949   4.001   7.083
 9174WAT     H127764   4.956   3.918   7.139
 9174WAT     H227765   5.024   4.063   7.106
 9175WAT      O27766   6.843   6.456   2.766
 9175WAT     H127767   6.881   6.388   2.829
 9175WAT     H227768   6.746   6.438   2.752
 9176WAT      O27769   3.609   4.384   5.320
 9176WAT     H127770   3.577   4.463   5.266
 9176WAT     H227771   3.643   4.416   5.408
 9177WAT      O27772   9.479   0.185   3.838
 9177WAT     H127773   9.555   0.191   3.774
 9177WAT     H227774   9.507   0.132   3.918
 9178WAT      O27775   0.000   9.232   4.815
 9178WAT     H127776   0.015   9.142   4.856
 9178WAT     H227777   0.055   9.240   4.731
 9179WAT      O27778   2.784   5.453   5.071
 9179WAT     H127779   2.760   5.372   5.124
 9179WAT     H227780   2.826   5.521   5.131
 9180WAT      O27781   2.327   8.103   5.974
 9180WAT     H127782   2.351   8.031   6.038
 9180WAT     H227783   2.284   8.179   6.022
 9181WAT      O27784   4.223   6.621   8.924
 9181WAT     H127785   4.173   6.566   8.991
 9181WAT     H227786   4.204   6.718   8.939
 9182WAT      O27787   4.242   2.569   0.075
 9182WAT     H127788   4.152   2.525   0.075
 9182WAT     H227789   4.304   2.517   0.134
 9183WAT      O27790   3.545   3.004   9.712
 9183WAT     H127791   3.642   3.007   9.687
 9183WAT     H227792   3.489   3.023   9.632
 9184WAT      O27793   9.831   7.329   6.887
 9184WAT     H127794   9.776   7.277   6.822
 9184WAT     H227795   9.900   7.382   6.837
 9185WAT      O27796   9.379   6.415   6.113
 9185WAT     H127797   9.330   6.480   6.054
 9185WAT     H227798   9.417   6.342   6.057
 9186WAT      O27799   2.224   1.770   2.592
 9186WAT     H127800   2.266   1.685   2.622
 9186WAT     H227801   2.267   1.847   2.639
 9187WAT      O27802   0.261   1.123   0.738
 9187WAT     H127803   0.292   1.104   0.831
 9187WAT     H227804   0.161   1.125   0.736
 9188WAT      O27805   4.951   1.954   9.601
 9188WAT     H127806   4.949   1.912   9.692
 9188WAT     H227807   4.864   2.001   9.584
 9189WAT      O27808   7.462   1.645   3.584
 9189WAT     H127809   7.532   1.573   3.588
 9189WAT     H227810   7.378   1.613   3.627
 9190WAT      O27811   6.243   1.768   0.177
 9190WAT     H127812   6.290   1.799   0.094
 9190WAT     H227813   6.273   1.676   0.200
 9191WAT      O27814   1.089   8.496   8.379
 9191WAT     H127815   0.995   8.528   8.372
 9191WAT     H227816   1.127   8.522   8.467
 9192WAT      O27817   2.114   7.440   3.330
 9192WAT     H127818   2.158   7.465   3.416
 9192WAT     H227819   2.113   7.341   3.320
 9193WAT      O27820   0.964   3.375   0.412
 9193WAT     H127821   0.964   3.310   0.488
 9193WAT     H227822   0.888   3.439   0.423
 9194WAT      O27823   8.389   3.337   2.165
 9194WAT     H127824   8.486   3.352   2.147
 9194WAT     H227825   8.353   3.272   2.099
 9195WAT      O27826   6.894   1.180   5.019
 9195WAT     H127827   6.840   1.220   4.945
 9195WAT     H227828   6.987   1.215   5.015
 9196WAT      O27829   8.367   2.889   3.812
 9196WAT     H127830   8.437   2.890   3.883
 9196WAT     H227831   8.277   2.906   3.854
 9197WAT      O27832   2.807   6.532   9.275
 9197WAT     H127833   2.813   6.606   9.209
 9197WAT     H227834   2.755   6.456   9.235
 9198WAT      O27835   7.922   2.840   8.005
 9198WAT     H127836   7.913   2.929   7.961
 9198WAT     H227837   7.920   2.852   8.104
 9199WAT      O27838   4.325   9.564   6.874
 9199WAT     H127839   4.363   9.588   6.963
 9199WAT     H227840   4.231   9.530   6.886
 9200WAT      O27841   0.580   8.769   2.446
 9200WAT     H127842   0.584   8.848   2.507
 9200WAT     H227843   0.633   8.789   2.363
 9201WAT      O27844   0.437   2.529   9.356
 9201WAT     H127845   0.455   2.445   9.407
 9201WAT     H227846   0.402   2.506   9.265
 9202WAT      O27847   0.937   5.583   8.497
 9202WAT     H127848   0.869   5.511   8.485
 9202WAT     H227849   0.963   5.620   8.408
 9203WAT      O27850   1.007   3.841   3.292
 9203WAT     H127851   1.088   3.840   3.351
 9203WAT     H227852   1.004   3.756   3.239
 9204WAT      O27853   3.235   2.019   0.565
 9204WAT     H127854   3.247   1.941   0.504
 9204WAT     H227855   3.245   1.989   0.660
 9205WAT      O27856   1.109   5.009   1.383
 9205WAT     H127857   1.117   5.107   1.363
 9205WAT     H227858   1.020   4.990   1.424
 9206WAT      O27859   7.952   2.137   4.922
 9206WAT     H127860   8.032   2.156   4.866
 9206WAT     H227861   7.979   2.130   5.018
 9207WAT      O27862   2.560   6.853   2.556
 9207WAT     H127863   2.465   6.885   2.559
 9207WAT     H227864   2.617   6.922   2.511
 9208WAT      O27865   8.836   5.131   2.429
 9208WAT     H127866   8.777   5.201   2.470
 9208WAT     H227867   8.835   5.050   2.487
 9209WAT      O27868   4.670   6.475   7.864
 9209WAT     H127869   4.735   6.428   7.924
 9209WAT     H227870   4.670   6.573   7.885
 9210WAT      O27871   9.838   0.041   3.968
 9210WAT     H127872   9.918   0.080   3.922
 9210WAT     H227873   9.811  -0.043   3.921
 9211WAT      O27874   3.309   1.022   7.406
 9211WAT     H127875   3.281   1.088   7.337
 9211WAT     H227876   3.270   0.933   7.385
 9212WAT      O27877   1.099   5.050   0.175
 9212WAT     H127878   1.087   5.149   0.184
 9212WAT     H227879   1.014   5.004   0.200
 9213WAT      O27880   9.396   2.814   7.108
 9213WAT     H127881   9.478   2.845   7.060
 9213WAT     H227882   9.418   2.794   7.203
 9214WAT      O27883   9.688   5.070   9.110
 9214WAT     H127884   9.667   5.154   9.058
 9214WAT     H227885   9.767   5.024   9.069
 9215WAT      O27886   4.429   2.519   9.570
 9215WAT     H127887   4.478   2.432   9.578
 9215WAT     H227888   4.478   2.589   9.622
 9216WAT      O27889   5.109   1.026   8.513
 9216WAT     H127890   5.157   0.982   8.437
 9216WAT     H227891   5.136   1.122   8.518
 9217WAT      O27892   9.604   2.436   0.160
 9217WAT     H127893   9.527   2.447   0.097
 9217WAT     H227894   9.684   2.404   0.110
 9218WAT      O27895   6.498   5.580   3.130
 9218WAT     H127896   6.582   5.602   3.080
 9218WAT     H227897   6.467   5.488   3.104
 9219WAT      O27898   5.188   3.965   3.477
 9219WAT     H127899   5.118   4.028   3.511
 9219WAT     H227900   5.258   3.953   3.547
 9220WAT      O27901   0.812   2.905   6.633
 9220WAT     H127902   0.729   2.863   6.596
 9220WAT     H227903   0.811   3.003   6.614
 9221WAT      O27904   8.618   0.178   4.074
 9221WAT     H127905   8.653   0.086   4.058
 9221WAT     H227906   8.584   0.216   3.987
 9222WAT      O27907   6.782   0.903   6.154
 9222WAT     H127908   6.707   0.838   6.154
 9222WAT     H227909   6.851   0.875   6.087
 9223WAT      O27910   2.459   5.623   2.981
 9223WAT     H127911   2.479   5.666   3.068
 9223WAT     H227912   2.513   5.540   2.971
 9224WAT      O27913   8.229   0.130   0.728
 9224WAT     H127914   8.272   0.061   0.669
 9224WAT     H227915   8.260   0.221   0.699
 9225WAT      O27916   0.231   6.450   0.723
 9225WAT     H127917   0.192   6.366   0.685
 9225WAT     H227918   0.328   6.454   0.700
 9226WAT      O27919   3.075   6.260   2.159
 9226WAT     H127920   3.084   6.320   2.238
 9226WAT     H227921   2.991   6.282   2.109
 9227WAT      O27922   8.206   1.426   9.413
 9227WAT     H127923   8.231   1.492   9.342
 9227WAT     H227924   8.133   1.463   9.469
 9228WAT      O27925   0.709   0.702   6.510
 9228WAT     H127926   0.757   0.774   6.560
 9228WAT     H227927   0.744   0.613   6.539
 9229WAT      O27928   5.516   7.880   7.943
 9229WAT     H127929   5.576   7.893   7.864
 9229WAT     H227930   5.562   7.820   8.009
 9230WAT      O27931   1.824   6.303   0.979
 9230WAT     H127932   1.882   6.281   0.900
 9230WAT     H227933   1.796   6.219   1.024
 9231WAT      O27934   2.266   1.213   5.104
 9231WAT     H127935   2.324   1.172   5.174
 9231WAT     H227936   2.249   1.145   5.032
 9232WAT      O27937   5.763   0.896   8.524
 9232WAT     H127938   5.776   0.845   8.609
 9232WAT     H227939   5.817   0.980   8.527
 9233WAT      O27940   0.596   2.253   1.223
 9233WAT     H127941   0.575   2.158   1.245
 9233WAT     H227942   0.516   2.310   1.244
 9234WAT      O27943   5.254   0.531   1.642
 9234WAT     H127944   5.235   0.610   1.583
 9234WAT     H227945   5.218   0.448   1.599
 9235WAT      O27946   7.429   4.940   9.653
 9235WAT     H127947   7.413   4.888   9.570
 9235WAT     H227948   7.360   5.012   9.662
 9236WAT      O27949   5.291   6.466   5.223
 9236WAT     H127950   5.242   6.429   5.145
 9236WAT     H227951   5.388   6.444   5.215
 9237WAT      O27952   1.879   2.404   9.787
 9237WAT     H127953   1.890   2.496   9.749
 9237WAT     H227954   1.969   2.360   9.795
 9238WAT      O27955   3.158   4.364   5.159
 9238WAT     H127956   3.236   4.376   5.098
 9238WAT     H227957   3.101   4.446   5.157
 9239WAT      O27958   4.679   2.034   9.750
 9239WAT     H127959   4.587   2.013   9.783
 9239WAT     H227960   4.743   1.962   9.779
 9240WAT      O27961   4.807   5.008   3.702
 9240WAT     H127962   4.773   5.099   3.675
 9240WAT     H227963   4.864   4.971   3.629
 9241WAT      O27964   7.572   9.118   6.683
 9241WAT     H127965   7.627   9.170   6.749
 9241WAT     H227966   7.562   9.172   6.599
 9242WAT      O27967   8.530   6.587   4.718
 9242WAT     H127968   8.462   6.656   4.695
 9242WAT     H227969   8.608   6.594   4.656
 9243WAT      O27970   3.205   9.472   1.708
 9243WAT     H127971   3.158   9.385   1.692
 9243WAT     H227972   3.299   9.455   1.736
 9244WAT      O27973   4.799   2.478   1.283
 9244WAT     H127974   4.771   2.442   1.372
 9244WAT     H227975   4.827   2.402   1.224
 9245WAT      O27976   1.478   9.188   3.180
 9245WAT     H127977   1.551   9.217   3.243
 9245WAT     H227978   1.462   9.261   3.113
 9246WAT      O27979   3.075   5.565   0.949
 9246WAT     H127980   3.061   5.659   0.981
 9246WAT     H227981   2.987   5.519   0.940
 9247WAT      O27982   6.056   0.422   9.449
 9247WAT     H127983   5.998   0.399   9.527
 9247WAT     H227984   6.020   0.379   9.366
 9248WAT      O27985   4.934   7.248   1.298
 9248WAT     H127986   4.935   7.172   1.362
 9248WAT     H227987   5.000   7.317   1.327
 9249WAT      O27988   2.545   4.618   1.236
 9249WAT     H127989   2.560   4.578   1.326
 9249WAT     H227990   2.521   4.715   1.245
 9250WAT      O27991   0.677   4.326   8.913
 9250WAT     H127992   0.614   4.255   8.881
 9250WAT     H227993   0.681   4.400   8.846
 9251WAT      O27994   3.452   0.629   1.628
 9251WAT     H127995   3.397   0.713   1.633
 9251WAT     H227996   3.396   0.553   1.596
 9252WAT      O27997   8.838   4.646   7.158
 9252WAT     H127998   8.860   4.686   7.247
 9252WAT     H227999   8.896   4.688   7.087
 9253WAT      O28000   4.736   0.326   8.255
 9253WAT     H128001   4.687   0.360   8.175
 9253WAT     H228002   4.779   0.238   8.234
 9254WAT      O28003   3.780   1.608   2.141
 9254WAT     H128004   3.724   1.594   2.059
 9254WAT     H228005   3.831   1.524   2.160
 9255WAT      O28006   5.679   6.339   7.359
 9255WAT     H128007   5.757   6.296   7.314
 9255WAT     H228008   5.600   6.278   7.354
 9256WAT      O28009   7.536   8.959   8.482
 9256WAT     H128010   7.462   8.954   8.415
 9256WAT     H228011   7.498   8.977   8.573
 9257WAT      O28012   3.824   1.804   3.466
 9257WAT     H128013   3.872   1.787   3.552
 9257WAT     H228014   3.885   1.853   3.403
 9258WAT      O28015   6.884   1.044   1.778
 9258WAT     H128016   6.824   0.987   1.723
 9258WAT     H228017   6.979   1.017   1.762
 9259WAT      O28018   8.609   2.025   3.439
 9259WAT     H128019   8.662   1.940   3.443
 9259WAT     H228020   8.529   2.017   3.497
 9260WAT      O28021   9.544   7.398   7.240
 9260WAT     H128022   9.623   7.352   7.199
 9260WAT     H228023   9.576   7.466   7.306
 9261WAT      O28024   2.944   6.973   9.677
 9261WAT     H128025   3.007   6.994   9.752
 9261WAT     H228026   2.854   6.951   9.714
 9262WAT      O28027   5.857   8.412   2.605
 9262WAT     H128028   5.774   8.410   2.550
 9262WAT     H228029   5.931   8.453   2.552
 9263WAT      O28030   9.515   7.714   5.483
 9263WAT     H128031   9.450   7.640   5.505
 9263WAT     H228032   9.607   7.687   5.511
 9264WAT      O28033   2.407   6.113   8.975
 9264WAT     H128034   2.409   6.135   8.878
 9264WAT     H228035   2.425   6.195   9.029
 9265WAT      O28036   7.854   7.739   8.909
 9265WAT     H128037   7.863   7.671   8.836
 9265WAT     H228038   7.832   7.693   8.995
 9266WAT      O28039   4.905   4.463   1.614
 9266WAT     H128040   4.903   4.408   1.697
 9266WAT     H228041   4.962   4.419   1.545
 9267WAT      O28042   0.851   5.894   4.185
 9267WAT     H128043   0.861   5.991   4.209
 9267WAT     H228044   0.808   5.845   4.262
 9268WAT      O28045   1.459   9.683   6.103
 9268WAT     H128046   1.412   9.697   6.016
 9268WAT     H228047   1.530   9.612   6.092
 9269WAT      O28048   9.772   9.395   9.292
 9269WAT     H128049   9.786   9.353   9.203
 9269WAT     H228050   9.855   9.443   9.320
 9270WAT      O28051   2.284   9.842   9.882
 9270WAT     H128052   2.257   9.772   9.948
 9270WAT     H228053   2.260   9.812   9.790
 9271WAT      O28054   1.903   0.324   2.641
 9271WAT     H128055   1.946   0.283   2.560
 9271WAT     H228056   1.914   0.424   2.638
 9272WAT      O28057   9.096   5.208   7.056
 9272WAT     H128058   9.107   5.306   7.069
 9272WAT     H228059   9.030   5.173   7.123
 9273WAT      O28060   5.811   0.966   4.519
 9273WAT     H128061   5.861   0.882   4.538
 9273WAT     H228062   5.849   1.041   4.572
 9274WAT      O28063   6.184   0.336   3.884
 9274WAT     H128064   6.091   0.323   3.918
 9274WAT     H228065   6.188   0.419   3.828
 9275WAT      O28066   6.197   9.247   9.359
 9275WAT     H128067   6.200   9.147   9.350
 9275WAT     H228068   6.104   9.275   9.384
 9276WAT      O28069   1.053   6.827   1.964
 9276WAT     H128070   1.126   6.890   1.935
 9276WAT     H228071   1.028   6.769   1.887
 9277WAT      O28072   4.650   2.368   5.782
 9277WAT     H128073   4.613   2.276   5.796
 9277WAT     H228074   4.714   2.389   5.855
 9278WAT      O28075   7.242   0.974   5.891
 9278WAT     H128076   7.311   0.930   5.833
 9278WAT     H228077   7.156   0.982   5.840
 9279WAT      O28078   0.662   3.235   2.004
 9279WAT     H128079   0.694   3.261   1.913
 9279WAT     H228080   0.697   3.300   2.072
 9280WAT      O28081   3.718   5.545   9.465
 9280WAT     H128082   3.703   5.471   9.400
 9280WAT     H228083   3.733   5.631   9.416
 9281WAT      O28084   8.741   9.642   8.016
 9281WAT     H128085   8.761   9.732   7.978
 9281WAT     H228086   8.649   9.614   7.990
 9282WAT      O28087   2.084   9.774   3.505
 9282WAT     H128088   2.068   9.735   3.414
 9282WAT     H228089   2.082   9.874   3.499
 9283WAT      O28090   3.944   1.029   0.660
 9283WAT     H128091   3.879   0.977   0.604
 9283WAT     H228092   3.981   0.969   0.732
 9284WAT      O28093   9.549   6.854   2.874
 9284WAT     H128094   9.492   6.810   2.804
 9284WAT     H228095   9.598   6.931   2.833
 9285WAT      O28096   8.705   7.041   2.156
 9285WAT     H128097   8.771   7.048   2.081
 9285WAT     H228098   8.753   7.050   2.243
 9286WAT      O28099   3.811   3.999   5.518
 9286WAT     H128100   3.755   4.081   5.508
 9286WAT     H228101   3.908   4.025   5.512
 9287WAT      O28102   5.776   4.054   4.096
 9287WAT     H128103   5.682   4.026   4.076
 9287WAT     H228104   5.796   4.141   4.051
 9288WAT      O28105   6.469   7.520   9.784
 9288WAT     H128106   6.539   7.464   9.829
 9288WAT     H228107   6.427   7.581   9.851
 9289WAT      O28108   5.513   0.995   0.503
 9289WAT     H128109   5.457   0.912   0.507
 9289WAT     H228110   5.610   0.970   0.498
 9290WAT      O28111   9.362   7.925   4.031
 9290WAT     H128112   9.366   7.869   4.114
 9290WAT     H228113   9.417   8.007   4.044
 9291WAT      O28114   6.096   5.088   2.807
 9291WAT     H128115   6.032   5.083   2.731
 9291WAT     H228116   6.049   5.066   2.893
 9292WAT      O28117   1.540   0.312   3.439
 9292WAT     H128118   1.587   0.313   3.527
 9292WAT     H228119   1.485   0.396   3.430
 9293WAT      O28120   0.574   7.356   5.576
 9293WAT     H128121   0.608   7.450   5.575
 9293WAT     H228122   0.608   7.309   5.657
 9294WAT      O28123   3.239   1.052   2.801
 9294WAT     H128124   3.233   1.108   2.718
 9294WAT     H228125   3.183   1.094   2.873
 9295WAT      O28126   1.664   8.162   6.749
 9295WAT     H128127   1.611   8.225   6.806
 9295WAT     H228128   1.662   8.071   6.790
 9296WAT      O28129   5.267   5.446   3.714
 9296WAT     H128130   5.349   5.418   3.764
 9296WAT     H228131   5.292   5.510   3.642
 9297WAT      O28132   7.476   4.823   8.219
 9297WAT     H128133   7.417   4.879   8.160
 9297WAT     H228134   7.423   4.746   8.255
 9298WAT      O28135   0.245   3.668   0.854
 9298WAT     H128136   0.169   3.655   0.917
 9298WAT     H228137   0.297   3.749   0.881
 9299WAT      O28138   4.927   3.701   1.636
 9299WAT     H128139   4.981   3.679   1.718
 9299WAT     H228140   4.959   3.788   1.598
 9300WAT      O28141   0.438   2.077   7.442
 9300WAT     H128142   0.340   2.086   7.457
 9300WAT     H228143   0.484   2.062   7.529
 9301WAT      O28144   1.187   2.798   9.840
 9301WAT     H128145   1.112   2.835   9.785
 9301WAT     H228146   1.183   2.698   9.838
 9302WAT      O28147   1.851   9.116   9.078
 9302WAT     H128148   1.754   9.132   9.064
 9302WAT     H228149   1.876   9.140   9.172
 9303WAT      O28150   7.222   7.376   1.916
 9303WAT     H128151   7.173   7.461   1.938
 9303WAT     H228152   7.318   7.386   1.944
 9304WAT      O28153   8.929   3.648   5.493
 9304WAT     H128154   9.022   3.618   5.513
 9304WAT     H228155   8.871   3.631   5.573
 9305WAT      O28156   8.774   5.028   9.354
 9305WAT     H128157   8.857   5.012   9.409
 9305WAT     H228158   8.702   4.966   9.384
 9306WAT      O28159   5.729   5.387   6.926
 9306WAT     H128160   5.716   5.443   7.008
 9306WAT     H228161   5.818   5.408   6.885
 9307WAT      O28162   7.572   7.023   0.748
 9307WAT     H128163   7.616   7.056   0.832
 9307WAT     H228164   7.641   7.008   0.678
 9308WAT      O28165   1.565   1.675   1.416
 9308WAT     H128166   1.595   1.579   1.423
 9308WAT     H228167   1.496   1.682   1.344
 9309WAT      O28168   5.080   5.096   6.767
 9309WAT     H128169   5.082   5.014   6.709
 9309WAT     H228170   5.024   5.166   6.724
 9310WAT      O28171   2.857   4.781   4.534
 9310WAT     H128172   2.903   4.860   4.574
 9310WAT     H228173   2.864   4.785   4.434
 9311WAT      O28174   3.909   6.227   7.112
 9311WAT     H128175   3.823   6.271   7.135
 9311WAT     H228176   3.892   6.152   7.048
 9312WAT      O28177   2.432   7.400   6.979
 9312WAT     H128178   2.507   7.465   6.989
 9312WAT     H228179   2.359   7.422   7.043
 9313WAT      O28180   2.014   5.398   6.037
 9313WAT     H128181   2.081   5.462   6.072
 9313WAT     H228182   1.992   5.331   6.108
 9314WAT      O28183   4.988   1.421   4.033
 9314WAT     H128184   5.015   1.443   3.939
 9314WAT     H228185   4.960   1.325   4.038
 9315WAT      O28186   4.393   4.171   4.346
 9315WAT     H128187   4.307   4.224   4.343
 9315WAT     H228188   4.396   4.109   4.268
 9316WAT      O28189   6.845   3.051   1.610
 9316WAT     H128190   6.784   3.112   1.560
 9316WAT     H228191   6.840   3.069   1.708
 9317WAT      O28192   3.268   0.829   1.959
 9317WAT     H128193   3.208   0.847   2.037
 9317WAT     H228194   3.309   0.738   1.970
 9318WAT      O28195   6.272   2.411   1.831
 9318WAT     H128196   6.371   2.419   1.842
 9318WAT     H228197   6.226   2.469   1.898
 9319WAT      O28198   1.450   4.160   7.194
 9319WAT     H128199   1.491   4.246   7.164
 9319WAT     H228200   1.350   4.165   7.184
 9320WAT      O28201   2.082   0.162   1.971
 9320WAT     H128202   2.019   0.121   1.905
 9320WAT     H228203   2.115   0.092   2.033
 9321WAT      O28204   8.754   7.912   7.347
 9321WAT     H128205   8.784   7.817   7.360
 9321WAT     H228206   8.755   7.935   7.250
 9322WAT      O28207   0.903   0.723   3.015
 9322WAT     H128208   0.924   0.820   3.000
 9322WAT     H228209   0.985   0.668   3.001
 9323WAT      O28210   9.294   8.624   6.435
 9323WAT     H128211   9.274   8.641   6.338
 9323WAT     H228212   9.363   8.690   6.466
 9324WAT      O28213   6.227   6.830   2.506
 9324WAT     H128214   6.304   6.871   2.457
 9324WAT     H228215   6.143   6.844   2.454
 9325WAT      O28216   5.095   1.212   8.159
 9325WAT     H128217   5.013   1.259   8.191
 9325WAT     H228218   5.085   1.114   8.175
 9326WAT      O28219   0.813   2.310   0.262
 9326WAT     H128220   0.728   2.270   0.297
 9326WAT     H228221   0.888   2.246   0.276
 9327WAT      O28222   6.915   0.715   2.771
 9327WAT     H128223   6.889   0.811   2.786
 9327WAT     H228224   7.015   0.707   2.775
 9328WAT      O28225   1.543   0.166   7.443
 9328WAT     H128226   1.468   0.149   7.507
 9328WAT     H228227   1.611   0.093   7.451
 9329WAT      O28228   5.069   4.536   8.139
 9329WAT     H128229   5.168   4.520   8.130
 9329WAT     H228230   5.052   4.634   8.142
 9330WAT      O28231   2.365   3.302   9.551
 9330WAT     H128232   2.372   3.397   9.518
 9330WAT     H228233   2.367   3.301   9.651
 9331WAT      O28234   8.753   3.129   3.921
 9331WAT     H128235   8.794   3.126   4.012
 9331WAT     H228236   8.683   3.200   3.918
 9332WAT      O28237   7.569   3.404   1.552
 9332WAT     H128238   7.482   3.364   1.578
 9332WAT     H228239   7.612   3.348   1.481
 9333WAT      O28240   7.185   1.728   4.364
 9333WAT     H128241   7.137   1.689   4.285
 9333WAT     H228242   7.117   1.758   4.432
 9334WAT      O28243   0.260   5.188   8.300
 9334WAT     H128244   0.317   5.106   8.304
 9334WAT     H228245   0.316   5.266   8.271
 9335WAT      O28246   1.943   6.015   4.231
 9335WAT     H128247   1.965   5.928   4.185
 9335WAT     H228248   1.893   6.074   4.167
 9336WAT      O28249   6.714   8.859   4.114
 9336WAT     H128250   6.807   8.838   4.145
 9336WAT     H228251   6.709   8.848   4.015
 9337WAT      O28252   5.324   7.357   9.142
 9337WAT     H128253   5.229   7.327   9.130
 9337WAT     H228254   5.325   7.443   9.193
 9338WAT      O28255   1.334   0.545   0.403
 9338WAT     H128256   1.304   0.532   0.308
 9338WAT     H228257   1.366   0.639   0.416
 9339WAT      O28258   6.762   2.965   2.651
 9339WAT     H128259   6.741   2.884   2.596
 9339WAT     H228260   6.859   2.989   2.639
 9340WAT      O28261   3.887   5.063   6.853
 9340WAT     H128262   3.937   4.986   6.892
 9340WAT     H228263   3.927   5.149   6.884
 9341WAT      O28264   5.064   1.735   9.441
 9341WAT     H128265   5.060   1.747   9.342
 9341WAT     H228266   5.062   1.824   9.485
 9342WAT      O28267   4.016   0.810   8.790
 9342WAT     H128268   4.016   0.909   8.805
 9342WAT     H228269   3.929   0.772   8.821
 9343WAT      O28270   8.508   2.380   0.912
 9343WAT     H128271   8.420   2.391   0.958
 9343WAT     H228272   8.557   2.303   0.954
 9344WAT      O28273   0.504   3.372   5.816
 9344WAT     H128274   0.575   3.409   5.756
 9344WAT     H228275   0.451   3.448   5.855
 9345WAT      O28276   4.527   4.256   2.889
 9345WAT     H128277   4.488   4.213   2.970
 9345WAT     H228278   4.617   4.292   2.910
 9346WAT      O28279   1.337   4.513   4.138
 9346WAT     H128280   1.317   4.416   4.124
 9346WAT     H228281   1.316   4.564   4.055
 9347WAT      O28282   1.342   4.374   0.632
 9347WAT     H128283   1.424   4.363   0.576
 9347WAT     H228284   1.317   4.286   0.672
 9348WAT      O28285   2.778   3.132   9.547
 9348WAT     H128286   2.759   3.229   9.533
 9348WAT     H228287   2.840   3.099   9.476
 9349WAT      O28288   2.048   8.820   8.826
 9349WAT     H128289   2.084   8.889   8.889
 9349WAT     H228290   1.965   8.854   8.782
 9350WAT      O28291   7.092   2.195   2.085
 9350WAT     H128292   7.034   2.202   2.166
 9350WAT     H228293   7.068   2.267   2.020
 9351WAT      O28294   5.037   5.437   5.176
 9351WAT     H128295   5.035   5.420   5.078
 9351WAT     H228296   5.123   5.480   5.201
 9352WAT      O28297   7.258   7.842   5.410
 9352WAT     H128298   7.168   7.877   5.384
 9352WAT     H228299   7.322   7.856   5.335
 9353WAT      O28300   7.694   1.577   5.701
 9353WAT     H128301   7.659   1.568   5.608
 9353WAT     H228302   7.688   1.489   5.747
 9354WAT      O28303   5.042   3.651   1.883
 9354WAT     H128304   5.074   3.572   1.936
 9354WAT     H228305   4.979   3.705   1.939
 9355WAT      O28306   9.008   5.352   1.790
 9355WAT     H128307   8.984   5.350   1.693
 9355WAT     H228308   9.059   5.269   1.813
 9356WAT      O28309   5.763   0.482   0.197
 9356WAT     H128310   5.665   0.497   0.211
 9356WAT     H228311   5.790   0.523   0.110
 9357WAT      O28312   1.108   8.341   3.109
 9357WAT     H128313   1.113   8.306   3.015
 9357WAT     H228314   1.019   8.384   3.123
 9358WAT      O28315   2.982   8.254   3.097
 9358WAT     H128316   3.043   8.333   3.095
 9358WAT     H228317   2.978   8.218   3.190
 9359WAT      O28318   3.578   3.263   5.013
 9359WAT     H128319   3.556   3.191   4.947
 9359WAT     H228320   3.677   3.275   5.018
 9360WAT      O28321   5.440   3.018   0.499
 9360WAT     H128322   5.488   3.099   0.533
 9360WAT     H228323   5.507   2.954   0.460
 9361WAT      O28324   1.516   3.447   2.058
 9361WAT     H128325   1.517   3.412   1.964
 9361WAT     H228326   1.512   3.547   2.057
 9362WAT      O28327   1.419   7.954   1.366
 9362WAT     H128328   1.409   8.051   1.342
 9362WAT     H228329   1.390   7.898   1.289
 9363WAT      O28330   0.183   8.021   6.415
 9363WAT     H128331   0.143   8.052   6.501
 9363WAT     H228332   0.282   8.032   6.419
 9364WAT      O28333   7.257   0.302   8.598
 9364WAT     H128334   7.300   0.239   8.534
 9364WAT     H228335   7.328   0.360   8.640
 9365WAT      O28336   0.090   4.747   3.193
 9365WAT     H128337   0.155   4.681   3.231
 9365WAT     H228338   0.140   4.826   3.158
 9366WAT      O28339   8.627   5.442   3.177
 9366WAT     H128340   8.538   5.477   3.150
 9366WAT     H228341   8.688   5.442   3.098
 9367WAT      O28342   0.528   0.205   6.923
 9367WAT     H128343   0.481   0.202   6.835
 9367WAT     H228344   0.621   0.241   6.910
 9368WAT      O28345   2.887   7.694   5.043
 9368WAT     H128346   2.915   7.783   5.008
 9368WAT     H228347   2.814   7.705   5.110
 9369WAT      O28348   0.723   7.101   1.602
 9369WAT     H128349   0.745   7.178   1.661
 9369WAT     H228350   0.640   7.056   1.635
 9370WAT      O28351   3.463   6.071   9.643
 9370WAT     H128352   3.503   6.073   9.735
 9370WAT     H228353   3.490   6.153   9.593
 9371WAT      O28354   7.708   6.599   0.555
 9371WAT     H128355   7.700   6.508   0.596
 9371WAT     H228356   7.659   6.666   0.612
 9372WAT      O28357   6.245   4.151   9.113
 9372WAT     H128358   6.181   4.209   9.163
 9372WAT     H228359   6.195   4.077   9.068
 9373WAT      O28360   5.176   0.941   4.171
 9373WAT     H128361   5.227   1.002   4.111
 9373WAT     H228362   5.117   0.882   4.116
 9374WAT      O28363   1.982   4.955   5.853
 9374WAT     H128364   1.983   4.911   5.763
 9374WAT     H228365   2.010   5.051   5.844
 9375WAT      O28366   2.534   8.430   2.989
 9375WAT     H128367   2.517   8.357   3.055
 9375WAT     H228368   2.629   8.427   2.959
 9376WAT      O28369   9.210   6.614   9.049
 9376WAT     H128370   9.119   6.652   9.069
 9376WAT     H228371   9.274   6.688   9.030
 9377WAT      O28372   0.128   4.295   2.213
 9377WAT     H128373   0.214   4.275   2.259
 9377WAT     H228374   0.069   4.214   2.215
 9378WAT      O28375   9.818   4.415   4.227
 9378WAT     H128376   9.787   4.510   4.216
 9378WAT     H228377   9.839   4.398   4.323
 9379WAT      O28378   8.863   6.254   0.805
 9379WAT     H128379   8.907   6.316   0.740
 9379WAT     H228380   8.932   6.218   0.868
 9380WAT      O28381   4.557   0.638   8.731
 9380WAT     H128382   4.476   0.632   8.790
 9380WAT     H228383   4.545   0.578   8.653
 9381WAT      O28384   1.702   1.672   8.404
 9381WAT     H128385   1.750   1.686   8.490
 9381WAT     H228386   1.610   1.712   8.410
 9382WAT      O28387   9.142   5.145   8.908
 9382WAT     H128388   9.110   5.206   8.980
 9382WAT     H228389   9.065   5.115   8.852
 9383WAT      O28390   2.553   0.015   3.999
 9383WAT     H128391   2.481   0.019   3.930
 9383WAT     H228392   2.514   0.034   4.089
 9384WAT      O28393   8.219   4.065   2.056
 9384WAT     H128394   8.132   4.094   2.097
 9384WAT     H228395   8.276   4.022   2.126
 9385WAT      O28396   7.271   2.413   4.970
 9385WAT     H128397   7.286   2.446   5.063
 9385WAT     H228398   7.173   2.410   4.952
 9386WAT      O28399   4.687   4.034   3.965
 9386WAT     H128400   4.635   3.996   3.888
 9386WAT     H228401   4.661   4.129   3.979
 9387WAT      O28402   4.434   6.606   8.452
 9387WAT     H128403   4.470   6.541   8.385
 9387WAT     H228404   4.510   6.646   8.504
 9388WAT      O28405   9.067   4.032   1.080
 9388WAT     H128406   9.148   4.028   1.021
 9388WAT     H228407   8.989   3.991   1.034
 9389WAT      O28408   8.155   0.070   1.309
 9389WAT     H128409   8.100   0.040   1.232
 9389WAT     H228410   8.235   0.010   1.319
 9390WAT      O28411   1.902   0.535   5.014
 9390WAT     H128412   1.822   0.493   5.057
 9390WAT     H228413   1.884   0.549   4.917
 9391WAT      O28414   4.827   1.537   1.166
 9391WAT     H128415   4.727   1.546   1.172
 9391WAT     H228416   4.868   1.627   1.153
 9392WAT      O28417   5.963   0.464   4.889
 9392WAT     H128418   5.933   0.407   4.812
 9392WAT     H228419   5.908   0.443   4.969
 9393WAT      O28420   5.711   6.388   4.092
 9393WAT     H128421   5.621   6.424   4.114
 9393WAT     H228422   5.780   6.431   4.151
 9394WAT      O28423   9.064   0.817   8.067
 9394WAT     H128424   9.051   0.865   8.153
 9394WAT     H228425   8.979   0.819   8.014
 9395WAT      O28426   1.633   1.070   9.004
 9395WAT     H128427   1.628   1.015   9.087
 9395WAT     H228428   1.612   1.014   8.924
 9396WAT      O28429   7.001   6.225   1.445
 9396WAT     H128430   6.936   6.188   1.512
 9396WAT     H228431   6.976   6.192   1.354
 9397WAT      O28432   3.190   5.047   2.389
 9397WAT     H128433   3.148   5.138   2.389
 9397WAT     H228434   3.125   4.980   2.424
 9398WAT      O28435   9.678   5.462   2.946
 9398WAT     H128436   9.621   5.470   2.864
 9398WAT     H228437   9.774   5.457   2.919
 9399WAT      O28438   8.587   6.116   1.334
 9399WAT     H128439   8.569   6.067   1.420
 9399WAT     H228440   8.506   6.112   1.276
 9400WAT      O28441   5.085   2.084   4.024
 9400WAT     H128442   5.151   2.033   3.969
 9400WAT     H228443   5.102   2.182   4.014
 9401WAT      O28444   4.846   9.387   6.554
 9401WAT     H128445   4.913   9.318   6.527
 9401WAT     H228446   4.893   9.474   6.570
 9402WAT      O28447   8.783   3.857   0.894
 9402WAT     H128448   8.716   3.874   0.966
 9402WAT     H228449   8.747   3.789   0.830
 9403WAT      O28450   3.406   5.354   8.999
 9403WAT     H128451   3.352   5.409   8.935
 9403WAT     H228452   3.385   5.257   8.985
 9404WAT      O28453   9.207   6.416   0.848
 9404WAT     H128454   9.306   6.404   0.847
 9404WAT     H228455   9.167   6.361   0.920
 9405WAT      O28456   4.805   3.973   7.494
 9405WAT     H128457   4.902   3.997   7.492
 9405WAT     H228458   4.793   3.889   7.546
 9406WAT      O28459   3.582   7.159   0.782
 9406WAT     H128460   3.607   7.229   0.849
 9406WAT     H228461   3.656   7.148   0.716
 9407WAT      O28462   3.195   1.347   9.069
 9407WAT     H128463   3.238   1.256   9.068
 9407WAT     H228464   3.250   1.410   9.014
 9408WAT      O28465   1.187   9.709   5.046
 9408WAT     H128466   1.278   9.751   5.049
 9408WAT     H228467   1.165   9.670   5.136
 9409WAT      O28468   2.297   8.328   2.827
 9409WAT     H128469   2.210   8.337   2.877
 9409WAT     H228470   2.355   8.261   2.873
 9410WAT      O28471   2.584   0.491   1.583
 9410WAT     H128472   2.630   0.570   1.623
 9410WAT     H228473   2.652   0.422   1.556
 9411WAT      O28474   3.914   4.427   8.263
 9411WAT     H128475   3.907   4.467   8.172
 9411WAT     H228476   3.861   4.482   8.328
 9412WAT      O28477   7.433   7.171   2.682
 9412WAT     H128478   7.496   7.096   2.660
 9412WAT     H228479   7.345   7.133   2.710
 9413WAT      O28480   3.938   4.891   8.223
 9413WAT     H128481   3.861   4.922   8.166
 9413WAT     H228482   4.022   4.894   8.170
 9414WAT      O28483   3.022   6.241   8.267
 9414WAT     H128484   3.114   6.257   8.232
 9414WAT     H228485   2.969   6.325   8.262
 9415WAT      O28486   3.434   1.974   8.406
 9415WAT     H128487   3.517   1.939   8.449
 9415WAT     H228488   3.428   1.940   8.312
 9416WAT      O28489   8.257   3.062   9.197
 9416WAT     H128490   8.178   3.043   9.255
 9416WAT     H228491   8.341   3.039   9.246
 9417WAT      O28492   1.485   3.231   0.766
 9417WAT     H128493   1.482   3.228   0.666
 9417WAT     H228494   1.461   3.322   0.798
 9418WAT      O28495   3.673   0.821   0.927
 9418WAT     H128496   3.753   0.772   0.962
 9418WAT     H228497   3.700   0.913   0.900
 9419WAT      O28498   9.456   1.432   4.241
 9419WAT     H128499   9.498   1.390   4.321
 9419WAT     H228500   9.519   1.428   4.164
 9420WAT      O28501   3.034   5.874   1.429
 9420WAT     H128502   3.120   5.876   1.480
 9420WAT     H228503   3.032   5.948   1.362
 9421WAT      O28504   6.371   4.751   2.259
 9421WAT     H128505   6.441   4.688   2.294
 9421WAT     H228506   6.395   4.779   2.166
 9422WAT      O28507   4.767   8.835   8.758
 9422WAT     H128508   4.737   8.907   8.696
 9422WAT     H228509   4.755   8.865   8.852
 9423WAT      O28510   1.154   1.972   2.329
 9423WAT     H128511   1.111   2.021   2.253
 9423WAT     H228512   1.083   1.921   2.379
 9424WAT      O28513   6.501   1.250   4.171
 9424WAT     H128514   6.592   1.217   4.146
 9424WAT     H228515   6.432   1.189   4.132
 9425WAT      O28516   1.191   4.994   4.801
 9425WAT     H128517   1.180   5.024   4.895
 9425WAT     H228518   1.263   4.924   4.797
 9426WAT      O28519   3.808   3.200   0.115
 9426WAT     H128520   3.787   3.288   0.071
 9426WAT     H228521   3.731   3.137   0.101
 9427WAT      O28522   7.033   0.792   1.544
 9427WAT     H128523   6.972   0.726   1.588
 9427WAT     H228524   6.980   0.869   1.510
 9428WAT      O28525   3.597   9.790   9.171
 9428WAT     H128526   3.598   9.801   9.271
 9428WAT     H228527   3.689   9.766   9.140
 9429WAT      O28528   6.918   3.258   9.238
 9429WAT     H128529   6.894   3.242   9.334
 9429WAT     H228530   6.981   3.335   9.231
 9430WAT      O28531   5.524   2.886   4.467
 9430WAT     H128532   5.522   2.786   4.469
 9430WAT     H228533   5.607   2.918   4.512
 9431WAT      O28534   7.616   9.298   9.048
 9431WAT     H128535   7.667   9.357   8.986
 9431WAT     H228536   7.520   9.295   9.019
 9432WAT      O28537   4.659   4.491   5.667
 9432WAT     H128538   4.712   4.452   5.743
 9432WAT     H228539   4.566   4.512   5.698
 9433WAT      O28540   0.169   6.219   5.182
 9433WAT     H128541   0.112   6.300   5.200
 9433WAT     H228542   0.238   6.241   5.114
 9434WAT      O28543   2.661   5.662   9.573
 9434WAT     H128544   2.741   5.700   9.527
 9434WAT     H228545   2.603   5.614   9.506
 9435WAT      O28546   5.286   5.750   8.696
 9435WAT     H128547   5.227   5.754   8.777
 9435WAT     H228548   5.375   5.711   8.721
 9436WAT      O28549   1.890   4.352   3.940
 9436WAT     H128550   1.895   4.422   3.868
 9436WAT     H228551   1.929   4.389   4.025
 9437WAT      O28552   4.523   5.673   8.212
 9437WAT     H128553   4.447   5.668   8.148
 9437WAT     H228554   4.504   5.615   8.291
 9438WAT      O28555   7.829   1.859   3.926
 9438WAT     H128556   7.833   1.936   3.862
 9438WAT     H228557   7.754   1.798   3.901
 9439WAT      O28558   8.345   6.038   1.602
 9439WAT     H128559   8.290   6.087   1.535
 9439WAT     H228560   8.286   5.989   1.666
 9440WAT      O28561   5.841   9.743   1.307
 9440WAT     H128562   5.818   9.646   1.317
 9440WAT     H228563   5.878   9.778   1.393
 9441WAT      O28564   0.657   8.491   9.220
 9441WAT     H128565   0.562   8.507   9.248
 9441WAT     H228566   0.659   8.460   9.125
 9442WAT      O28567   9.144   3.386   7.338
 9442WAT     H128568   9.177   3.317   7.402
 9442WAT     H228569   9.203   3.467   7.342
 9443WAT      O28570   8.539   5.316   5.814
 9443WAT     H128571   8.506   5.235   5.862
 9443WAT     H228572   8.502   5.398   5.858
 9444WAT      O28573   6.637   6.708   2.489
 9444WAT     H128574   6.724   6.665   2.512
 9444WAT     H228575   6.594   6.742   2.573
 9445WAT      O28576   9.520   7.096   6.114
 9445WAT     H128577   9.616   7.124   6.109
 9445WAT     H228578   9.487   7.108   6.208
 9446WAT      O28579   1.998   9.364   3.854
 9446WAT     H128580   1.999   9.264   3.848
 9446WAT     H228581   2.026   9.402   3.766
 9447WAT      O28582   1.418   8.239   3.909
 9447WAT     H128583   1.321   8.258   3.922
 9447WAT     H228584   1.456   8.201   3.993
 9448WAT      O28585   3.752   1.680   6.733
 9448WAT     H128586   3.818   1.682   6.658
 9448WAT     H228587   3.798   1.701   6.819
 9449WAT      O28588   5.751   5.943   3.698
 9449WAT     H128589   5.706   5.925   3.785
 9449WAT     H228590   5.850   5.946   3.712
 9450WAT      O28591   9.132   2.337   9.591
 9450WAT     H128592   9.042   2.330   9.548
 9450WAT     H228593   9.188   2.259   9.564
 9451WAT      O28594   9.427   3.197   9.371
 9451WAT     H128595   9.496   3.265   9.397
 9451WAT     H228596   9.442   3.169   9.276
 9452WAT      O28597   2.323   8.125   4.505
 9452WAT     H128598   2.280   8.109   4.594
 9452WAT     H228599   2.319   8.041   4.450
 9453WAT      O28600   1.089   2.712   5.032
 9453WAT     H128601   1.117   2.677   5.121
 9453WAT     H228602   1.033   2.794   5.044
 9454WAT      O28603   7.659   2.917   4.991
 9454WAT     H128604   7.678   2.982   5.065
 9454WAT     H228605   7.632   2.967   4.909
 9455WAT      O28606   3.256   1.647   7.273
 9455WAT     H128607   3.236   1.570   7.212
 9455WAT     H228608   3.282   1.611   7.363
 9456WAT      O28609   7.100   2.716   4.341
 9456WAT     H128610   7.075   2.741   4.248
 9456WAT     H228611   7.182   2.658   4.340
 9457WAT      O28612   3.743   3.347   2.566
 9457WAT     H128613   3.819   3.303   2.615
 9457WAT     H228614   3.765   3.351   2.469
 9458WAT      O28615   1.889   2.430   1.561
 9458WAT     H128616   1.932   2.378   1.636
 9458WAT     H228617   1.945   2.421   1.479
 9459WAT      O28618   4.651   1.376   7.271
 9459WAT     H128619   4.666   1.441   7.196
 9459WAT     H228620   4.598   1.298   7.237
 9460WAT      O28621   4.261   4.931   3.575
 9460WAT     H128622   4.191   4.966   3.637
 9460WAT     H228623   4.223   4.927   3.482
 9461WAT      O28624   8.797   0.541   8.811
 9461WAT     H128625   8.814   0.537   8.712
 9461WAT     H228626   8.779   0.635   8.838
 9462WAT      O28627   7.541   4.122   7.417
 9462WAT     H128628   7.567   4.027   7.436
 9462WAT     H228629   7.456   4.124   7.364
 9463WAT      O28630   5.209   1.252   9.890
 9463WAT     H128631   5.258   1.281   9.808
 9463WAT     H228632   5.237   1.309   9.967
 9464WAT      O28633   7.294   9.761   8.589
 9464WAT     H128634   7.366   9.705   8.629
 9464WAT     H228635   7.263   9.829   8.656
 9465WAT      O28636   8.737   3.810   9.241
 9465WAT     H128637   8.806   3.799   9.169
 9465WAT     H228638   8.780   3.797   9.330
 9466WAT      O28639   4.613   2.274   4.747
 9466WAT     H128640   4.620   2.237   4.655
 9466WAT     H228641   4.527   2.246   4.789
 9467WAT      O28642   4.962   7.978   0.299
 9467WAT     H128643   4.867   7.948   0.288
 9467WAT     H228644   5.004   7.990   0.209
 9468WAT      O28645   1.356   9.769   8.521
 9468WAT     H128646   1.341   9.853   8.469
 9468WAT     H228647   1.268   9.731   8.550
 9469WAT      O28648   0.561   2.793   6.012
 9469WAT     H128649   0.471   2.755   6.035
 9469WAT     H228650   0.555   2.846   5.928
 9470WAT      O28651   6.732   3.919   0.215
 9470WAT     H128652   6.776   3.991   0.269
 9470WAT     H228653   6.679   3.860   0.276
 9471WAT      O28654   1.438   8.105   1.859
 9471WAT     H128655   1.347   8.134   1.891
 9471WAT     H228656   1.508   8.144   1.919
 9472WAT      O28657   7.474   1.343   4.225
 9472WAT     H128658   7.521   1.333   4.313
 9472WAT     H228659   7.376   1.324   4.237
 9473WAT      O28660   2.044   2.043   6.204
 9473WAT     H128661   1.967   2.035   6.141
 9473WAT     H228662   2.057   1.957   6.252
 9474WAT      O28663   6.220   3.584   6.702
 9474WAT     H128664   6.221   3.563   6.799
 9474WAT     H228665   6.308   3.621   6.674
 9475WAT      O28666   3.298   7.836   4.743
 9475WAT     H128667   3.266   7.930   4.732
 9475WAT     H228668   3.236   7.787   4.803
 9476WAT      O28669   2.789   5.321   0.673
 9476WAT     H128670   2.771   5.411   0.634
 9476WAT     H228671   2.707   5.264   0.666
 9477WAT      O28672   4.054   1.426   7.585
 9477WAT     H128673   4.124   1.493   7.610
 9477WAT     H228674   4.094   1.355   7.527
 9478WAT      O28675   4.348   4.021   8.480
 9478WAT     H128676   4.296   3.942   8.512
 9478WAT     H228677   4.418   3.991   8.416
 9479WAT      O28678   3.585   8.199   8.398
 9479WAT     H128679   3.514   8.131   8.378
 9479WAT     H228680   3.633   8.222   8.313
 9480WAT      O28681   6.063   8.917   8.791
 9480WAT     H128682   6.151   8.900   8.745
 9480WAT     H228683   6.040   9.014   8.783
 9481WAT      O28684   7.627   6.325   8.253
 9481WAT     H128685   7.660   6.241   8.210
 9481WAT     H228686   7.574   6.377   8.186
 9482WAT      O28687   0.401   5.375   5.558
 9482WAT     H128688   0.423   5.470   5.577
 9482WAT     H228689   0.302   5.361   5.563
 9483WAT      O28690   9.320   9.815   5.539
 9483WAT     H128691   9.220   9.815   5.532
 9483WAT     H228692   9.359   9.787   5.451
 9484WAT      O28693   3.122   6.938   4.432
 9484WAT     H128694   3.173   6.853   4.420
 9484WAT     H228695   3.186   7.015   4.434
 9485WAT      O28696   4.907   0.581   9.586
 9485WAT     H128697   4.987   0.640   9.575
 9485WAT     H228698   4.828   0.637   9.608
 9486WAT      O28699   1.055   7.452   5.055
 9486WAT     H128700   1.017   7.445   4.963
 9486WAT     H228701   1.151   7.427   5.054
 9487WAT      O28702   5.949   7.110   2.988
 9487WAT     H128703   5.863   7.101   2.939
 9487WAT     H228704   6.008   7.175   2.942
 9488WAT      O28705   5.437   6.096   8.650
 9488WAT     H128706   5.412   6.140   8.736
 9488WAT     H228707   5.532   6.064   8.655
 9489WAT      O28708   1.427   0.754   5.866
 9489WAT     H128709   1.359   0.684   5.889
 9489WAT     H228710   1.511   0.736   5.917
 9490WAT      O28711   0.790   7.597   9.338
 9490WAT     H128712   0.794   7.598   9.238
 9490WAT     H228713   0.860   7.535   9.372
 9491WAT      O28714   1.973   4.072   6.505
 9491WAT     H128715   2.011   3.985   6.474
 9491WAT     H228716   1.972   4.075   6.605
 9492WAT      O28717   3.892   4.953   1.799
 9492WAT     H128718   3.925   4.867   1.839
 9492WAT     H228719   3.826   4.995   1.861
 9493WAT      O28720   6.498   8.048   8.948
 9493WAT     H128721   6.594   8.022   8.946
 9493WAT     H228722   6.489   8.136   8.995
 9494WAT      O28723   0.596   6.807   3.799
 9494WAT     H128724   0.613   6.816   3.897
 9494WAT     H228725   0.505   6.844   3.777
 9495WAT      O28726   2.169   6.801   9.281
 9495WAT     H128727   2.225   6.854   9.345
 9495WAT     H228728   2.074   6.829   9.288
 9496WAT      O28729   5.110   8.555   5.885
 9496WAT     H128730   5.032   8.493   5.883
 9496WAT     H228731   5.195   8.501   5.878
 9497WAT      O28732   4.700   4.093   0.112
 9497WAT     H128733   4.716   4.110   0.015
 9497WAT     H228734   4.780   4.048   0.151
 9498WAT      O28735   8.852   2.529   4.528
 9498WAT     H128736   8.943   2.491   4.517
 9498WAT     H228737   8.795   2.504   4.449
 9499WAT      O28738   5.799   8.172   0.188
 9499WAT     H128739   5.863   8.117   0.241
 9499WAT     H228740   5.780   8.125   0.101
 9500WAT      O28741   1.433   1.065   4.335
 9500WAT     H128742   1.421   1.146   4.392
 9500WAT     H228743   1.352   1.052   4.277
 9501WAT      O28744   1.238   1.571   4.349
 9501WAT     H128745   1.310   1.640   4.345
 9501WAT     H228746   1.163   1.603   4.407
 9502WAT      O28747   9.136   5.925   2.798
 9502WAT     H128748   9.225   5.965   2.821
 9502WAT     H228749   9.146   5.861   2.723
 9503WAT      O28750   0.400   3.363   6.779
 9503WAT     H128751   0.386   3.341   6.682
 9503WAT     H228752   0.464   3.439   6.787
 9504WAT      O28753   4.988   9.607   6.588
 9504WAT     H128754   4.911   9.665   6.561
 9504WAT     H228755   5.051   9.659   6.646
 9505WAT      O28756   4.596   2.687   9.718
 9505WAT     H128757   4.601   2.724   9.810
 9505WAT     H228758   4.631   2.755   9.653
 9506WAT      O28759   5.587   9.164   3.155
 9506WAT     H128760   5.557   9.229   3.085
 9506WAT     H228761   5.680   9.187   3.183
 9507WAT      O28762   3.014   5.033   5.216
 9507WAT     H128763   3.078   5.093   5.169
 9507WAT     H228764   2.947   4.997   5.151
 9508WAT      O28765   6.620   6.327   6.674
 9508WAT     H128766   6.523   6.347   6.687
 9508WAT     H228767   6.675   6.392   6.727
 9509WAT      O28768   2.853   1.230   8.752
 9509WAT     H128769   2.930   1.250   8.690
 9509WAT     H228770   2.887   1.226   8.846
 9510WAT      O28771   3.633   6.423   1.527
 9510WAT     H128772   3.665   6.448   1.436
 9510WAT     H228773   3.616   6.325   1.531
 9511WAT      O28774   7.747   5.062   7.612
 9511WAT     H128775   7.843   5.089   7.608
 9511WAT     H228776   7.723   5.037   7.705
 9512WAT      O28777   4.798   4.960   0.568
 9512WAT     H128778   4.806   4.864   0.594
 9512WAT     H228779   4.742   5.008   0.636
 9513WAT      O28780   8.099   7.043   0.237
 9513WAT     H128781   8.076   7.006   0.146
 9513WAT     H228782   8.041   6.999   0.306
 9514WAT      O28783   7.408   5.427   6.613
 9514WAT     H128784   7.463   5.501   6.651
 9514WAT     H228785   7.341   5.464   6.549
 9515WAT      O28786   0.869   6.024   4.691
 9515WAT     H128787   0.929   6.004   4.614
 9515WAT     H228788   0.778   6.048   4.657
 9516WAT      O28789   3.501   8.812   2.661
 9516WAT     H128790   3.464   8.770   2.579
 9516WAT     H228791   3.596   8.781   2.674
 9517WAT      O28792   0.915   9.169   4.788
 9517WAT     H128793   0.944   9.133   4.877
 9517WAT     H228794   0.919   9.269   4.789
 9518WAT      O28795   2.908   8.737   7.046
 9518WAT     H128796   2.893   8.670   6.973
 9518WAT     H228797   3.002   8.731   7.077
 9519WAT      O28798   2.687   9.184   8.082
 9519WAT     H128799   2.702   9.187   8.180
 9519WAT     H228800   2.658   9.091   8.056
 9520WAT      O28801   7.372   2.115   4.000
 9520WAT     H128802   7.340   2.176   4.072
 9520WAT     H228803   7.463   2.081   4.023
 9521WAT      O28804   5.212   0.137   1.821
 9521WAT     H128805   5.146   0.143   1.896
 9521WAT     H228806   5.164   0.112   1.737
 9522WAT      O28807   5.061   6.659   3.830
 9522WAT     H128808   5.016   6.611   3.755
 9522WAT     H228809   5.035   6.616   3.917
 9523WAT      O28810   1.542   6.485   7.434
 9523WAT     H128811   1.496   6.574   7.435
 9523WAT     H228812   1.626   6.490   7.488
 9524WAT      O28813   0.762   4.739   1.922
 9524WAT     H128814   0.721   4.681   1.852
 9524WAT     H228815   0.691   4.775   1.982
 9525WAT      O28816   2.526   8.419   3.916
 9525WAT     H128817   2.620   8.425   3.882
 9525WAT     H228818   2.462   8.427   3.839
 9526WAT      O28819   8.529   5.825   8.408
 9526WAT     H128820   8.561   5.872   8.326
 9526WAT     H228821   8.461   5.882   8.455
 9527WAT      O28822   9.726   4.396   9.812
 9527WAT     H128823   9.685   4.356   9.894
 9527WAT     H228824   9.777   4.326   9.762
 9528WAT      O28825   3.537   0.407   7.600
 9528WAT     H128826   3.454   0.426   7.548
 9528WAT     H228827   3.537   0.460   7.684
 9529WAT      O28828   4.818   6.054   6.285
 9529WAT     H128829   4.725   6.090   6.274
 9529WAT     H228830   4.827   6.010   6.374
 9530WAT      O28831   7.465   5.231   1.029
 9530WAT     H128832   7.406   5.283   1.091
 9530WAT     H228833   7.559   5.231   1.064
 9531WAT      O28834   2.042   6.436   0.706
 9531WAT     H128835   2.031   6.431   0.606
 9531WAT     H228836   2.137   6.457   0.727
 9532WAT      O28837   2.799   9.599   1.462
 9532WAT     H128838   2.784   9.516   1.516
 9532WAT     H228839   2.722   9.661   1.473
 9533WAT      O28840   5.202   2.262   7.077
 9533WAT     H128841   5.172   2.303   7.163
 9533WAT     H228842   5.156   2.308   7.000
 9534WAT      O28843   5.219   8.142   5.200
 9534WAT     H128844   5.196   8.133   5.297
 9534WAT     H228845   5.183   8.229   5.165
 9535WAT      O28846   1.448   9.745   9.311
 9535WAT     H128847   1.543   9.734   9.284
 9535WAT     H228848   1.403   9.656   9.311
 9536WAT      O28849   0.211   7.967   0.603
 9536WAT     H128850   0.177   7.910   0.677
 9536WAT     H228851   0.301   7.933   0.574
 9537WAT      O28852   0.998   1.463   2.939
 9537WAT     H128853   1.047   1.386   2.898
 9537WAT     H228854   0.900   1.443   2.941
 9538WAT      O28855   0.620   6.994   2.365
 9538WAT     H128856   0.524   7.022   2.366
 9538WAT     H228857   0.668   7.044   2.293
 9539WAT      O28858   4.726   3.740   5.731
 9539WAT     H128859   4.716   3.702   5.639
 9539WAT     H228860   4.823   3.757   5.749
 9540WAT      O28861   9.716   6.046  -0.000
 9540WAT     H128862   9.765   6.044   0.087
 9540WAT     H228863   9.769   6.099  -0.067
 9541WAT      O28864   3.759   6.671   7.045
 9541WAT     H128865   3.686   6.687   7.111
 9541WAT     H228866   3.742   6.726   6.963
 9542WAT      O28867   3.660   4.167   4.077
 9542WAT     H128868   3.620   4.083   4.114
 9542WAT     H228869   3.587   4.230   4.052
 9543WAT      O28870   2.734   6.947   7.183
 9543WAT     H128871   2.672   6.928   7.107
 9543WAT     H228872   2.727   6.873   7.250
 9544WAT      O28873   5.623   3.344   8.387
 9544WAT     H128874   5.589   3.250   8.392
 9544WAT     H228875   5.590   3.387   8.303
 9545WAT      O28876   0.795   4.263   5.652
 9545WAT     H128877   0.696   4.263   5.665
 9545WAT     H228878   0.816   4.226   5.561
 9546WAT      O28879   7.575   9.185   7.987
 9546WAT     H128880   7.566   9.111   8.052
 9546WAT     H228881   7.581   9.148   7.894
 9547WAT      O28882   1.877   9.626   9.385
 9547WAT     H128883   1.836   9.563   9.451
 9547WAT     H228884   1.946   9.577   9.332
 9548WAT      O28885   3.235   2.473   5.430
 9548WAT     H128886   3.248   2.374   5.438
 9548WAT     H228887   3.324   2.518   5.432
 9549WAT      O28888   6.445   3.527   1.720
 9549WAT     H128889   6.481   3.620   1.728
 9549WAT     H228890   6.444   3.500   1.623
 9550WAT      O28891   0.256   1.761   5.987
 9550WAT     H128892   0.209   1.685   6.031
 9550WAT     H228893   0.349   1.769   6.023
 9551WAT      O28894   8.828   4.553   3.439
 9551WAT     H128895   8.869   4.638   3.407
 9551WAT     H228896   8.775   4.511   3.366
 9552WAT      O28897   1.455   2.054   4.386
 9552WAT     H128898   1.430   2.101   4.470
 9552WAT     H228899   1.554   2.063   4.371
 9553WAT      O28900   3.786   3.805   1.293
 9553WAT     H128901   3.780   3.706   1.282
 9553WAT     H228902   3.852   3.842   1.227
 9554WAT      O28903   1.537   7.702   0.311
 9554WAT     H128904   1.526   7.670   0.217
 9554WAT     H228905   1.581   7.631   0.366
 9555WAT      O28906   1.415   5.347   3.882
 9555WAT     H128907   1.439   5.316   3.974
 9555WAT     H228908   1.349   5.284   3.842
 9556WAT      O28909   2.794   8.060   1.101
 9556WAT     H128910   2.727   8.124   1.063
 9556WAT     H228911   2.759   7.967   1.096
 9557WAT      O28912   8.728   5.432   2.566
 9557WAT     H128913   8.629   5.424   2.576
 9557WAT     H228914   8.774   5.364   2.623
 9558WAT      O28915   6.437   4.009   9.298
 9558WAT     H128916   6.366   4.070   9.262
 9558WAT     H228917   6.510   4.064   9.338
 9559WAT      O28918   6.906   5.236   2.374
 9559WAT     H128919   6.856   5.311   2.332
 9559WAT     H228920   6.968   5.272   2.443
 9560WAT      O28921   7.495   2.772   2.217
 9560WAT     H128922   7.445   2.789   2.302
 9560WAT     H228923   7.591   2.752   2.239
 9561WAT      O28924   3.934   1.964   8.501
 9561WAT     H128925   3.944   1.882   8.556
 9561WAT     H228926   3.836   1.981   8.485
 9562WAT      O28927   7.645   7.596   2.024
 9562WAT     H128928   7.703   7.672   1.994
 9562WAT     H228929   7.566   7.632   2.074
 9563WAT      O28930   1.806   8.358   8.138
 9563WAT     H128931   1.863   8.436   8.114
 9563WAT     H228932   1.787   8.359   8.236
 9564WAT      O28933   4.345   6.727   3.406
 9564WAT     H128934   4.285   6.786   3.460
 9564WAT     H228935   4.365   6.643   3.457
 9565WAT      O28936   5.608   1.207   8.359
 9565WAT     H128937   5.642   1.257   8.279
 9565WAT     H228938   5.516   1.173   8.340
 9566WAT      O28939   4.046   1.989   5.645
 9566WAT     H128940   4.080   1.918   5.706
 9566WAT     H228941   4.121   2.047   5.615
 9567WAT      O28942   8.926   6.462   8.193
 9567WAT     H128943   8.836   6.441   8.155
 9567WAT     H228944   8.991   6.475   8.119
 9568WAT      O28945   1.405   6.720   7.461
 9568WAT     H128946   1.430   6.789   7.394
 9568WAT     H228947   1.306   6.724   7.477
 9569WAT      O28948   4.301   5.965   6.224
 9569WAT     H128949   4.254   6.051   6.244
 9569WAT     H228950   4.234   5.896   6.194
 9570WAT      O28951   0.919   7.697   0.314
 9570WAT     H128952   0.959   7.782   0.280
 9570WAT     H228953   0.872   7.650   0.240
 9571WAT      O28954   0.466   1.744   5.381
 9571WAT     H128955   0.456   1.647   5.399
 9571WAT     H228956   0.444   1.796   5.463
 9572WAT      O28957   4.708   0.480   2.558
 9572WAT     H128958   4.736   0.384   2.560
 9572WAT     H228959   4.786   0.538   2.580
 9573WAT      O28960   2.443   5.576   5.453
 9573WAT     H128961   2.375   5.643   5.424
 9573WAT     H228962   2.434   5.560   5.551
 9574WAT      O28963   4.926   4.057   7.881
 9574WAT     H128964   4.994   4.012   7.823
 9574WAT     H228965   4.962   4.146   7.911
 9575WAT      O28966   2.835   9.417   4.879
 9575WAT     H128967   2.930   9.394   4.861
 9575WAT     H228968   2.806   9.490   4.817
 9576WAT      O28969   4.411   6.752   7.844
 9576WAT     H128970   4.402   6.705   7.756
 9576WAT     H228971   4.508   6.762   7.866
 9577WAT      O28972   4.213   2.366   3.947
 9577WAT     H128973   4.184   2.271   3.938
 9577WAT     H228974   4.219   2.390   4.044
 9578WAT      O28975   6.672   7.321   9.882
 9578WAT     H128976   6.663   7.253   9.808
 9578WAT     H228977   6.757   7.371   9.871
 9579WAT      O28978   8.481   7.462   0.248
 9579WAT     H128979   8.579   7.445   0.252
 9579WAT     H228980   8.435   7.381   0.212
 9580WAT      O28981   4.501   3.408   5.622
 9580WAT     H128982   4.510   3.381   5.527
 9580WAT     H228983   4.553   3.345   5.680
 9581WAT      O28984   6.319   9.807   6.746
 9581WAT     H128985   6.257   9.765   6.813
 9581WAT     H228986   6.275   9.807   6.656
 9582WAT      O28987   9.553   0.555   5.471
 9582WAT     H128988   9.632   0.616   5.471
 9582WAT     H228989   9.518   0.545   5.565
 9583WAT      O28990   0.490   5.823   0.627
 9583WAT     H128991   0.423   5.878   0.576
 9583WAT     H228992   0.469   5.726   0.616
 9584WAT      O28993   3.261   2.530   4.553
 9584WAT     H128994   3.301   2.499   4.639
 9584WAT     H228995   3.325   2.590   4.506
 9585WAT      O28996   3.509   5.208   9.694
 9585WAT     H128997   3.414   5.218   9.725
 9585WAT     H228998   3.567   5.271   9.745
 9586WAT      O28999   6.259   2.920   6.698
 9586WAT     H129000   6.190   2.940   6.628
 9586WAT     H229001   6.314   2.841   6.671
 9587WAT      O29002   4.050   4.474   9.265
 9587WAT     H129003   3.992   4.436   9.192
 9587WAT     H229004   4.075   4.568   9.243
 9588WAT      O29005   8.761   0.777   7.959
 9588WAT     H129006   8.708   0.694   7.943
 9588WAT     H229007   8.715   0.833   8.028
 9589WAT      O29008   7.258   3.059   2.718
 9589WAT     H129009   7.333   3.107   2.672
 9589WAT     H229010   7.295   2.979   2.766
 9590WAT      O29011   0.381   5.511   3.752
 9590WAT     H129012   0.318   5.539   3.680
 9590WAT     H229013   0.444   5.442   3.716
 9591WAT      O29014   6.820   0.101   0.972
 9591WAT     H129015   6.776   0.128   1.058
 9591WAT     H229016   6.871   0.016   0.986
 9592WAT      O29017   0.606   3.856   8.508
 9592WAT     H129018   0.554   3.834   8.591
 9592WAT     H229019   0.552   3.918   8.451
 9593WAT      O29020   3.649   0.798   6.738
 9593WAT     H129021   3.605   0.887   6.747
 9593WAT     H229022   3.588   0.735   6.688
 9594WAT      O29023   2.634   1.042   3.473
 9594WAT     H129024   2.636   0.943   3.487
 9594WAT     H229025   2.716   1.071   3.424
 9595WAT      O29026   2.047   1.742   4.457
 9595WAT     H129027   2.072   1.706   4.367
 9595WAT     H229028   1.985   1.678   4.503
 9596WAT      O29029   8.440   4.301   3.861
 9596WAT     H129030   8.372   4.231   3.841
 9596WAT     H229031   8.532   4.260   3.861
 9597WAT      O29032   6.870   0.352   3.415
 9597WAT     H129033   6.870   0.403   3.501
 9597WAT     H229034   6.800   0.390   3.354
 9598WAT      O29035   8.927   8.721   1.944
 9598WAT     H129036   8.846   8.723   1.886
 9598WAT     H229037   8.998   8.778   1.903
 9599WAT      O29038   6.133   1.345   7.265
 9599WAT     H129039   6.051   1.374   7.216
 9599WAT     H229040   6.180   1.274   7.212
 9600WAT      O29041   7.369   6.393   2.140
 9600WAT     H129042   7.338   6.365   2.049
 9600WAT     H229043   7.434   6.469   2.132
 9601WAT      O29044   8.560   0.964   4.282
 9601WAT     H129045   8.591   0.869   4.278
 9601WAT     H229046   8.577   1.008   4.194
 9602WAT      O29047   6.757   6.388   7.104
 9602WAT     H129048   6.768   6.397   7.005
 9602WAT     H229049   6.665   6.417   7.130
 9603WAT      O29050   5.710   6.664   5.359
 9603WAT     H129051   5.638   6.734   5.357
 9603WAT     H229052   5.681   6.583   5.308
 9604WAT      O29053   1.665   3.952   1.277
 9604WAT     H129054   1.749   3.899   1.271
 9604WAT     H229055   1.668   4.009   1.360
 9605WAT      O29056   6.005   3.725   2.094
 9605WAT     H129057   6.038   3.686   2.180
 9605WAT     H229058   6.013   3.825   2.097
 9606WAT      O29059   9.769   0.811   9.503
 9606WAT     H129060   9.828   0.730   9.504
 9606WAT     H229061   9.740   0.829   9.409
 9607WAT      O29062   7.234   9.830   6.766
 9607WAT     H129063   7.198   9.757   6.824
 9607WAT     H229064   7.221   9.918   6.811
 9608WAT      O29065   5.204   0.786   1.525
 9608WAT     H129066   5.194   0.845   1.606
 9608WAT     H229067   5.263   0.831   1.459
 9609WAT      O29068   7.536   4.316   2.292
 9609WAT     H129069   7.451   4.356   2.326
 9609WAT     H229070   7.602   4.388   2.275
 9610WAT      O29071   1.693   1.403   1.771
 9610WAT     H129072   1.775   1.383   1.825
 9610WAT     H229073   1.650   1.486   1.805
 9611WAT      O29074   1.620   6.813   7.046
 9611WAT     H129075   1.596   6.838   7.139
 9611WAT     H229076   1.663   6.723   7.045
 9612WAT      O29077   2.645   2.460   1.092
 9612WAT     H129078   2.666   2.448   1.189
 9612WAT     H229079   2.587   2.540   1.080
 9613WAT      O29080   3.014   3.803   9.875
 9613WAT     H129081   2.954   3.731   9.910
 9613WAT     H229082   2.958   3.882   9.850
 9614WAT      O29083   4.340   8.903   6.594
 9614WAT     H129084   4.305   8.966   6.663
 9614WAT     H229085   4.432   8.873   6.621
 9615WAT      O29086   1.266   6.085   4.128
 9615WAT     H129087   1.211   6.135   4.062
 9615WAT     H229088   1.249   5.987   4.118
 9616WAT      O29089   7.834   3.933   5.135
 9616WAT     H129090   7.828   3.834   5.145
 9616WAT     H229091   7.793   3.977   5.215
 9617WAT      O29092   6.065   4.720   1.002
 9617WAT     H129093   6.137   4.772   0.956
 9617WAT     H229094   5.989   4.781   1.023
 9618WAT      O29095   6.861   8.567   3.799
 9618WAT     H129096   6.833   8.546   3.706
 9618WAT     H229097   6.959   8.585   3.801
 9619WAT      O29098   2.144   7.541   2.458
 9619WAT     H129099   2.151   7.638   2.434
 9619WAT     H229100   2.165   7.485   2.377
 9620WAT      O29101   3.007   0.260   3.444
 9620WAT     H129102   2.986   0.168   3.411
 9620WAT     H229103   2.929   0.297   3.493
 9621WAT      O29104   5.636   8.745   6.926
 9621WAT     H129105   5.555   8.744   6.867
 9621WAT     H229106   5.694   8.667   6.903
 9622WAT      O29107   3.035   2.883   6.157
 9622WAT     H129108   3.114   2.841   6.201
 9622WAT     H229109   3.040   2.982   6.168
 9623WAT      O29110   6.924   4.191   0.976
 9623WAT     H129111   6.879   4.149   1.055
 9623WAT     H229112   6.979   4.122   0.928
 9624WAT      O29113   1.590   6.975   5.697
 9624WAT     H129114   1.517   7.016   5.642
 9624WAT     H229115   1.571   6.877   5.710
 9625WAT      O29116   7.629   8.961   3.365
 9625WAT     H129117   7.647   8.873   3.321
 9625WAT     H229118   7.542   8.955   3.416
 9626WAT      O29119   4.977   1.380   0.977
 9626WAT     H129120   4.900   1.350   1.033
 9626WAT     H229121   5.034   1.444   1.029
 9627WAT      O29122   1.883   7.284   8.014
 9627WAT     H129123   1.927   7.241   8.093
 9627WAT     H229124   1.784   7.285   8.027
 9628WAT      O29125   6.997   2.357   7.840
 9628WAT     H129126   7.022   2.329   7.932
 9628WAT     H229127   7.007   2.279   7.778
 9629WAT      O29128   8.183   5.700   1.179
 9629WAT     H129129   8.185   5.691   1.080
 9629WAT     H229130   8.095   5.740   1.208
 9630WAT      O29131   1.639   7.815   7.566
 9630WAT     H129132   1.547   7.828   7.601
 9630WAT     H229133   1.682   7.905   7.552
 9631WAT      O29134   1.479   7.109   2.761
 9631WAT     H129135   1.537   7.046   2.812
 9631WAT     H229136   1.400   7.134   2.818
 9632WAT      O29137   1.003   3.871   7.808
 9632WAT     H129138   0.951   3.789   7.832
 9632WAT     H229139   1.042   3.911   7.891
 9633WAT      O29140   8.305   2.982   7.187
 9633WAT     H129141   8.227   3.010   7.243
 9633WAT     H229142   8.384   3.039   7.209
 9634WAT      O29143   0.507   6.201   6.086
 9634WAT     H129144   0.605   6.185   6.091
 9634WAT     H229145   0.465   6.138   6.022
 9635WAT      O29146   1.901   3.668   0.797
 9635WAT     H129147   1.899   3.765   0.821
 9635WAT     H229148   1.993   3.642   0.769
 9636WAT      O29149   3.608   0.454   9.225
 9636WAT     H129150   3.680   0.511   9.266
 9636WAT     H229151   3.519   0.481   9.261
 9637WAT      O29152   1.691   8.251   5.267
 9637WAT     H129153   1.622   8.184   5.239
 9637WAT     H229154   1.673   8.338   5.220
 9638WAT      O29155   6.033   7.811   2.460
 9638WAT     H129156   6.042   7.904   2.496
 9638WAT     H229157   6.111   7.756   2.490
 9639WAT      O29158   4.950   7.349   8.112
 9639WAT     H129159   4.887   7.350   8.189
 9639WAT     H229160   4.945   7.437   8.063
 9640WAT      O29161   7.791   9.524   7.908
 9640WAT     H129162   7.802   9.477   7.820
 9640WAT     H229163   7.833   9.469   7.980
 9641WAT      O29164   9.304   8.651   1.851
 9641WAT     H129165   9.337   8.721   1.787
 9641WAT     H229166   9.236   8.594   1.806
 9642WAT      O29167   0.932   7.420   4.837
 9642WAT     H129168   0.931   7.321   4.823
 9642WAT     H229169   1.005   7.461   4.782
 9643WAT      O29170   3.174   8.324   7.255
 9643WAT     H129171   3.174   8.259   7.178
 9643WAT     H229172   3.251   8.305   7.315
 9644WAT      O29173   9.715   0.761   3.865
 9644WAT     H129174   9.800   0.712   3.885
 9644WAT     H229175   9.656   0.760   3.946
 9645WAT      O29176   3.554   1.431   7.193
 9645WAT     H129177   3.607   1.496   7.248
 9645WAT     H229178   3.509   1.481   7.119
 9646WAT      O29179   8.301   7.357   1.533
 9646WAT     H129180   8.351   7.271   1.525
 9646WAT     H229181   8.204   7.341   1.519
 9647WAT      O29182   3.957   3.341   5.278
 9647WAT     H129183   3.935   3.310   5.371
 9647WAT     H229184   3.934   3.438   5.269
 9648WAT      O29185   8.792   9.150   9.355
 9648WAT     H129186   8.737   9.231   9.336
 9648WAT     H229187   8.757   9.105   9.437
 9649WAT      O29188   8.353   3.541   4.259
 9649WAT     H129189   8.376   3.470   4.192
 9649WAT     H229190   8.319   3.622   4.213
 9650WAT      O29191   8.509   9.216   5.413
 9650WAT     H129192   8.508   9.281   5.490
 9650WAT     H229193   8.491   9.265   5.328
 9651WAT      O29194   8.287   1.580   0.408
 9651WAT     H129195   8.244   1.585   0.498
 9651WAT     H229196   8.227   1.532   0.345
 9652WAT      O29197   2.078   5.248   6.515
 9652WAT     H129198   2.100   5.346   6.514
 9652WAT     H229199   2.013   5.229   6.588
 9653WAT      O29200   5.604   7.819   5.305
 9653WAT     H129201   5.574   7.881   5.233
 9653WAT     H229202   5.681   7.764   5.272
 9654WAT      O29203   0.345   8.639   8.343
 9654WAT     H129204   0.352   8.643   8.443
 9654WAT     H229205   0.292   8.718   8.311
 9655WAT      O29206   5.479   6.645   0.017
 9655WAT     H129207   5.572   6.669  -0.008
 9655WAT     H229208   5.447   6.707   0.089
 9656WAT      O29209   7.800   3.379   3.898
 9656WAT     H129210   7.800   3.478   3.901
 9656WAT     H229211   7.706   3.345   3.894
 9657WAT      O29212   0.342   8.425   2.338
 9657WAT     H129213   0.396   8.474   2.407
 9657WAT     H229214   0.262   8.479   2.312
 9658WAT      O29215   3.766   9.224   5.571
 9658WAT     H129216   3.799   9.264   5.657
 9658WAT     H229217   3.666   9.213   5.575
 9659WAT      O29218   4.502   4.336   1.788
 9659WAT     H129219   4.433   4.407   1.781
 9659WAT     H229220   4.507   4.285   1.702
 9660WAT      O29221   8.827   8.170   9.450
 9660WAT     H129222   8.847   8.084   9.497
 9660WAT     H229223   8.750   8.215   9.494
 9661WAT      O29224   3.794   6.129   7.455
 9661WAT     H129225   3.768   6.036   7.431
 9661WAT     H229226   3.773   6.147   7.551
 9662WAT      O29227   9.664   0.368   8.831
 9662WAT     H129228   9.690   0.365   8.927
 9662WAT     H229229   9.564   0.357   8.823
 9663WAT      O29230   3.471   0.456   2.702
 9663WAT     H129231   3.405   0.531   2.712
 9663WAT     H229232   3.563   0.493   2.689
 9664WAT      O29233   8.446   7.091   7.087
 9664WAT     H129234   8.528   7.037   7.108
 9664WAT     H229235   8.435   7.163   7.155
 9665WAT      O29236   3.410   3.805   4.694
 9665WAT     H129237   3.341   3.851   4.638
 9665WAT     H229238   3.375   3.789   4.786
 9666WAT      O29239   1.224   8.813   3.703
 9666WAT     H129240   1.244   8.843   3.609
 9666WAT     H229241   1.278   8.867   3.767
 9667WAT      O29242   4.507   4.978   1.292
 9667WAT     H129243   4.536   5.050   1.227
 9667WAT     H229244   4.524   5.009   1.385
 9668WAT      O29245   8.528   6.855   6.409
 9668WAT     H129246   8.556   6.787   6.341
 9668WAT     H229247   8.534   6.947   6.368
 9669WAT      O29248   2.044   0.876   9.877
 9669WAT     H129249   2.051   0.900   9.974
 9669WAT     H229250   2.057   0.958   9.822
 9670WAT      O29251   9.318   9.244   1.673
 9670WAT     H129252   9.308   9.186   1.592
 9670WAT     H229253   9.261   9.325   1.664
 9671WAT      O29254   1.717   3.586   5.244
 9671WAT     H129255   1.670   3.511   5.199
 9671WAT     H229256   1.706   3.577   5.343
 9672WAT      O29257   8.696   7.076   8.349
 9672WAT     H129258   8.657   7.042   8.435
 9672WAT     H229259   8.782   7.124   8.367
 9673WAT      O29260   9.608   3.668   9.367
 9673WAT     H129261   9.552   3.661   9.449
 9673WAT     H229262   9.658   3.754   9.367
 9674WAT      O29263   1.684   9.601   3.848
 9674WAT     H129264   1.723   9.646   3.768
 9674WAT     H229265   1.673   9.503   3.829
 9675WAT      O29266   9.274   3.549   3.438
 9675WAT     H129267   9.223   3.595   3.511
 9675WAT     H229268   9.336   3.481   3.478
 9676WAT      O29269   4.505   9.532   4.667
 9676WAT     H129270   4.601   9.512   4.688
 9676WAT     H229271   4.487   9.629   4.685
 9677WAT      O29272   2.153   6.308   6.334
 9677WAT     H129273   2.149   6.404   6.364
 9677WAT     H229274   2.174   6.250   6.412
 9678WAT      O29275   6.499   0.940   4.618
 9678WAT     H129276   6.417   0.968   4.568
 9678WAT     H229277   6.544   1.022   4.656
 9679WAT      O29278   7.689   8.370   3.437
 9679WAT     H129279   7.762   8.305   3.454
 9679WAT     H229280   7.617   8.358   3.505
 9680WAT      O29281   7.687   1.004   1.322
 9680WAT     H129282   7.751   0.971   1.391
 9680WAT     H229283   7.684   1.104   1.325
 9681WAT      O29284   1.860   0.516   1.117
 9681WAT     H129285   1.951   0.555   1.104
 9681WAT     H229286   1.822   0.548   1.204
 9682WAT      O29287   2.072   3.563   6.237
 9682WAT     H129288   1.993   3.523   6.190
 9682WAT     H229289   2.087   3.515   6.324
 9683WAT      O29290   2.949   1.899   7.900
 9683WAT     H129291   2.946   1.874   7.997
 9683WAT     H229292   2.871   1.858   7.853
 9684WAT      O29293   9.779   9.413   3.999
 9684WAT     H129294   9.744   9.349   3.931
 9684WAT     H229295   9.782   9.367   4.088
 9685WAT      O29296   7.071   9.312   0.256
 9685WAT     H129297   7.048   9.231   0.310
 9685WAT     H229298   7.141   9.288   0.189
 9686WAT      O29299   2.762   2.802   2.763
 9686WAT     H129300   2.829   2.802   2.837
 9686WAT     H229301   2.807   2.829   2.678
 9687WAT      O29302   0.708   8.488   1.161
 9687WAT     H129303   0.736   8.540   1.241
 9687WAT     H229304   0.680   8.397   1.188
 9688WAT      O29305   0.548   3.768   9.070
 9688WAT     H129306   0.559   3.691   9.132
 9688WAT     H229307   0.525   3.850   9.122
 9689WAT      O29308   6.623   5.123   1.523
 9689WAT     H129309   6.657   5.209   1.486
 9689WAT     H229310   6.701   5.063   1.544
 9690WAT      O29311   3.063   2.729   5.200
 9690WAT     H129312   3.089   2.636   5.177
 9690WAT     H229313   3.067   2.742   5.299
 9691WAT      O29314   3.952   7.131   4.743
 9691WAT     H129315   3.901   7.062   4.691
 9691WAT     H229316   3.888   7.184   4.799
 9692WAT      O29317   6.469   2.367   5.980
 9692WAT     H129318   6.561   2.345   5.948
 9692WAT     H229319   6.436   2.292   6.038
 9693WAT      O29320   3.372   0.515   4.312
 9693WAT     H129321   3.399   0.548   4.402
 9693WAT     H229322   3.304   0.577   4.273
 9694WAT      O29323   0.811   6.861   8.040
 9694WAT     H129324   0.824   6.825   7.948
 9694WAT     H229325   0.713   6.866   8.061
 9695WAT      O29326   0.305   1.453   2.241
 9695WAT     H129327   0.231   1.517   2.265
 9695WAT     H229328   0.388   1.505   2.219
 9696WAT      O29329   8.636  -0.002   2.117
 9696WAT     H129330   8.680   0.086   2.131
 9696WAT     H229331   8.551   0.010   2.067
 9697WAT      O29332   4.202   2.250   5.731
 9697WAT     H129333   4.135   2.234   5.804
 9697WAT     H229334   4.260   2.327   5.755
 9698WAT      O29335   1.585   7.465   9.262
 9698WAT     H129336   1.631   7.518   9.191
 9698WAT     H229337   1.488   7.490   9.264
 9699WAT      O29338   2.054   7.219   1.253
 9699WAT     H129339   1.992   7.293   1.278
 9699WAT     H229340   2.007   7.156   1.191
 9700WAT      O29341   6.150   7.518   6.704
 9700WAT     H129342   6.063   7.538   6.659
 9700WAT     H229343   6.153   7.422   6.730
 9701WAT      O29344   0.992   7.031   0.056
 9701WAT     H129345   0.908   6.976   0.065
 9701WAT     H229346   0.969   7.127   0.067
 9702WAT      O29347   8.507   4.563   4.586
 9702WAT     H129348   8.429   4.505   4.564
 9702WAT     H229349   8.573   4.511   4.640
 9703WAT      O29350   5.450   4.174   5.574
 9703WAT     H129351   5.451   4.247   5.643
 9703WAT     H229352   5.472   4.087   5.618
 9704WAT      O29353   7.599   4.151   3.062
 9704WAT     H129354   7.571   4.231   3.116
 9704WAT     H229355   7.519   4.105   3.026
 9705WAT      O29356   4.241   9.433   8.105
 9705WAT     H129357   4.286   9.522   8.104
 9705WAT     H229358   4.171   9.431   8.034
 9706WAT      O29359   5.605   5.472   2.790
 9706WAT     H129360   5.595   5.478   2.889
 9706WAT     H229361   5.700   5.455   2.767
 9707WAT      O29362   6.831   9.800   9.505
 9707WAT     H129363   6.744   9.782   9.459
 9707WAT     H229364   6.880   9.714   9.521
 9708WAT      O29365   2.818   7.745   3.754
 9708WAT     H129366   2.834   7.649   3.732
 9708WAT     H229367   2.850   7.802   3.678
 9709WAT      O29368   1.823   7.940   1.556
 9709WAT     H129369   1.727   7.965   1.566
 9709WAT     H229370   1.880   8.007   1.603
 9710WAT      O29371   8.977   3.293   4.814
 9710WAT     H129372   9.043   3.285   4.888
 9710WAT     H229373   8.910   3.363   4.838
 9711WAT      O29374   7.857   0.969   0.309
 9711WAT     H129375   7.936   0.983   0.369
 9711WAT     H229376   7.858   0.876   0.273
 9712WAT      O29377   3.178   7.110   8.161
 9712WAT     H129378   3.121   7.033   8.191
 9712WAT     H229379   3.242   7.135   8.234
 9713WAT      O29380   2.149   4.407   3.285
 9713WAT     H129381   2.195   4.487   3.245
 9713WAT     H229382   2.050   4.423   3.287
 9714WAT      O29383   0.848   5.152   9.445
 9714WAT     H129384   0.822   5.139   9.541
 9714WAT     H229385   0.902   5.235   9.436
 9715WAT      O29386   0.123   6.157   4.863
 9715WAT     H129387   0.142   6.252   4.839
 9715WAT     H229388   0.205   6.117   4.904
 9716WAT      O29389   9.305   6.561   1.804
 9716WAT     H129390   9.262   6.587   1.718
 9716WAT     H229391   9.250   6.490   1.849
 9717WAT      O29392   9.364   9.338   0.273
 9717WAT     H129393   9.427   9.261   0.280
 9717WAT     H229394   9.284   9.311   0.219
 9718WAT      O29395   0.960   6.753   5.290
 9718WAT     H129396   0.942   6.655   5.290
 9718WAT     H229397   1.034   6.774   5.354
 9719WAT      O29398   1.029   6.914   8.590
 9719WAT     H129399   1.070   6.898   8.500
 9719WAT     H229400   1.059   7.003   8.625
 9720WAT      O29401   0.715   1.674   8.330
 9720WAT     H129402   0.802   1.674   8.281
 9720WAT     H229403   0.670   1.585   8.318
 9721WAT      O29404   3.876   2.441   4.744
 9721WAT     H129405   3.831   2.394   4.668
 9721WAT     H229406   3.824   2.426   4.828
 9722WAT      O29407   8.030   8.459   9.508
 9722WAT     H129408   8.089   8.414   9.441
 9722WAT     H229409   7.999   8.547   9.472
 9723WAT      O29410   6.519   1.059   3.083
 9723WAT     H129411   6.583   1.078   3.157
 9723WAT     H229412   6.562   0.997   3.017
 9724WAT      O29413   4.454   8.765   7.713
 9724WAT     H129414   4.436   8.824   7.634
 9724WAT     H229415   4.474   8.673   7.683
 9725WAT      O29416   2.828   9.131   5.780
 9725WAT     H129417   2.902   9.106   5.844
 9725WAT     H229418   2.858   9.113   5.686
 9726WAT      O29419   5.820   8.767   3.779
 9726WAT     H129420   5.734   8.729   3.745
 9726WAT     H229421   5.807   8.797   3.873
 9727WAT      O29422   1.574   3.347   5.140
 9727WAT     H129423   1.553   3.334   5.043
 9727WAT     H229424   1.505   3.299   5.195
 9728WAT      O29425   0.540   6.000   3.306
 9728WAT     H129426   0.490   5.927   3.353
 9728WAT     H229427   0.474   6.064   3.266
 9729WAT      O29428   1.327   5.165   6.158
 9729WAT     H129429   1.263   5.094   6.127
 9729WAT     H229430   1.383   5.129   6.233
 9730WAT      O29431   0.278   2.287   4.863
 9730WAT     H129432   0.291   2.370   4.809
 9730WAT     H229433   0.349   2.220   4.841
 9731WAT      O29434   4.394   0.898   9.446
 9731WAT     H129435   4.466   0.918   9.512
 9731WAT     H229436   4.307   0.885   9.494
 9732WAT      O29437   3.316   8.791   6.209
 9732WAT     H129438   3.372   8.716   6.242
 9732WAT     H229439   3.311   8.863   6.278
 9733WAT      O29440   0.520   6.029   8.419
 9733WAT     H129441   0.491   6.042   8.513
 9733WAT     H229442   0.620   6.020   8.415
 9734WAT      O29443   4.889   8.418   8.621
 9734WAT     H129444   4.960   8.366   8.668
 9734WAT     H229445   4.922   8.511   8.602
 9735WAT      O29446   0.434   5.762   1.478
 9735WAT     H129447   0.527   5.775   1.443
 9735WAT     H229448   0.398   5.675   1.445
 9736WAT      O29449   2.528   0.359   8.044
 9736WAT     H129450   2.626   0.364   8.028
 9736WAT     H229451   2.493   0.450   8.069
 9737WAT      O29452   1.590   5.838   1.641
 9737WAT     H129453   1.606   5.936   1.654
 9737WAT     H229454   1.494   5.823   1.619
 9738WAT      O29455   1.745   6.032   9.567
 9738WAT     H129456   1.841   6.016   9.545
 9738WAT     H229457   1.734   6.125   9.602
 9739WAT      O29458   5.691   5.777   1.617
 9739WAT     H129459   5.645   5.866   1.614
 9739WAT     H229460   5.729   5.763   1.708
 9740WAT      O29461   2.521   4.860   3.027
 9740WAT     H129462   2.589   4.787   3.028
 9740WAT     H229463   2.546   4.928   2.958
 9741WAT      O29464   3.367   3.987   8.230
 9741WAT     H129465   3.396   4.045   8.306
 9741WAT     H229466   3.428   4.001   8.152
 9742WAT      O29467   4.068   2.050   6.004
 9742WAT     H129468   4.014   2.092   5.932
 9742WAT     H229469   4.011   1.987   6.057
 9743WAT      O29470   8.150   3.207   2.829
 9743WAT     H129471   8.150   3.290   2.773
 9743WAT     H229472   8.234   3.202   2.882
 9744WAT      O29473   7.720   9.091   9.432
 9744WAT     H129474   7.808   9.121   9.395
 9744WAT     H229475   7.734   9.053   9.523
 9745WAT      O29476   9.547   2.035   3.282
 9745WAT     H129477   9.513   2.124   3.253
 9745WAT     H229478   9.483   1.994   3.348
 9746WAT      O29479   2.752   5.067   6.489
 9746WAT     H129480   2.653   5.064   6.502
 9746WAT     H229481   2.782   4.989   6.434
 9747WAT      O29482   7.220   4.480   9.030
 9747WAT     H129483   7.211   4.392   8.983
 9747WAT     H229484   7.195   4.554   8.968
 9748WAT      O29485   2.339   5.174   0.453
 9748WAT     H129486   2.351   5.183   0.552
 9748WAT     H229487   2.311   5.080   0.432
 9749WAT      O29488   1.189   9.032   1.192
 9749WAT     H129489   1.177   9.012   1.094
 9749WAT     H229490   1.283   9.011   1.219
 9750WAT      O29491   7.280   1.518   7.524
 9750WAT     H129492   7.302   1.505   7.428
 9750WAT     H229493   7.195   1.470   7.546
 9751WAT      O29494   2.851   2.914   0.996
 9751WAT     H129495   2.942   2.952   1.006
 9751WAT     H229496   2.856   2.826   0.949
 9752WAT      O29497   4.039   3.348   1.162
 9752WAT     H129498   4.108   3.395   1.218
 9752WAT     H229499   3.960   3.325   1.220
 9753WAT      O29500   4.524   4.210   1.524
 9753WAT     H129501   4.586   4.132   1.526
 9753WAT     H229502   4.457   4.197   1.450
 9754WAT      O29503   3.705   9.217   7.417
 9754WAT     H129504   3.750   9.242   7.331
 9754WAT     H229505   3.626   9.159   7.397
 9755WAT      O29506   7.680   8.607   3.310
 9755WAT     H129507   7.665   8.586   3.214
 9755WAT     H229508   7.698   8.522   3.360
 9756WAT      O29509   6.273   2.914   7.526
 9756WAT     H129510   6.312   2.854   7.457
 9756WAT     H229511   6.304   3.008   7.509
 9757WAT      O29512   6.506   4.905   2.854
 9757WAT     H129513   6.429   4.880   2.913
 9757WAT     H229514   6.490   4.869   2.761
 9758WAT      O29515   4.015   7.348   4.549
 9758WAT     H129516   3.986   7.268   4.602
 9758WAT     H229517   4.053   7.417   4.611
 9759WAT      O29518   9.067   9.579   2.016
 9759WAT     H129519   8.969   9.591   2.002
 9759WAT     H229520   9.090   9.482   2.008
 9760WAT      O29521   1.720   3.433   7.465
 9760WAT     H129522   1.737   3.361   7.533
 9760WAT     H229523   1.740   3.397   7.374
 9761WAT      O29524   2.228   2.495   3.704
 9761WAT     H129525   2.129   2.489   3.690
 9761WAT     H229526   2.267   2.403   3.704
 9762WAT      O29527   1.539   2.937   7.494
 9762WAT     H129528   1.522   2.941   7.396
 9762WAT     H229529   1.611   2.871   7.513
 9763WAT      O29530   4.109   6.028   8.575
 9763WAT     H129531   4.105   6.128   8.571
 9763WAT     H229532   4.130   5.992   8.484
 9764WAT      O29533   1.738   2.775   6.897
 9764WAT     H129534   1.689   2.755   6.812
 9764WAT     H229535   1.734   2.696   6.958
 9765WAT      O29536   3.704   7.225   3.608
 9765WAT     H129537   3.728   7.322   3.613
 9765WAT     H229538   3.778   7.174   3.564
 9766WAT      O29539   8.359   4.724   1.868
 9766WAT     H129540   8.286   4.673   1.821
 9766WAT     H229541   8.318   4.788   1.932
 9767WAT      O29542   2.741   4.731   7.493
 9767WAT     H129543   2.799   4.801   7.535
 9767WAT     H229544   2.721   4.756   7.399
 9768WAT      O29545   3.004   8.356   1.965
 9768WAT     H129546   3.099   8.328   1.959
 9768WAT     H229547   2.988   8.433   1.903
 9769WAT      O29548   7.877   5.959   5.302
 9769WAT     H129549   7.932   5.968   5.385
 9769WAT     H229550   7.929   5.908   5.233
 9770WAT      O29551   3.765   8.245   9.160
 9770WAT     H129552   3.735   8.338   9.139
 9770WAT     H229553   3.775   8.193   9.075
 9771WAT      O29554   0.028   5.759   7.402
 9771WAT     H129555  -0.002   5.675   7.357
 9771WAT     H229556   0.108   5.740   7.459
 9772WAT      O29557   9.629   8.089   0.505
 9772WAT     H129558   9.543   8.040   0.522
 9772WAT     H229559   9.615   8.158   0.435
 9773WAT      O29560   5.368   0.880   9.771
 9773WAT     H129561   5.313   0.817   9.717
 9773WAT     H229562   5.318   0.908   9.852
 9774WAT      O29563   3.968   2.163   9.844
 9774WAT     H129564   4.051   2.208   9.810
 9774WAT     H229565   3.994   2.082   9.898
 9775WAT      O29566   0.565   6.301   8.434
 9775WAT     H129567   0.576   6.338   8.342
 9775WAT     H229568   0.542   6.204   8.428
 9776WAT      O29569   0.785   0.974   0.158
 9776WAT     H129570   0.748   0.885   0.185
 9776WAT     H229571   0.871   0.990   0.206
 9777WAT      O29572   6.604   2.167   5.495
 9777WAT     H129573   6.622   2.081   5.447
 9777WAT     H229574   6.656   2.169   5.580
 9778WAT      O29575   8.576   8.021   6.326
 9778WAT     H129576   8.509   7.947   6.330
 9778WAT     H229577   8.662   7.986   6.289
 9779WAT      O29578   8.775   6.811   1.460
 9779WAT     H129579   8.873   6.827   1.449
 9779WAT     H229580   8.760   6.717   1.491
 9780WAT      O29581   9.668   7.718   1.449
 9780WAT     H129582   9.733   7.646   1.425
 9780WAT     H229583   9.654   7.779   1.372
 9781WAT      O29584   4.836   2.814   6.653
 9781WAT     H129585   4.864   2.840   6.561
 9781WAT     H229586   4.738   2.792   6.653
 9782WAT      O29587   0.449   6.055   0.132
 9782WAT     H129588   0.545   6.025   0.129
 9782WAT     H229589   0.417   6.056   0.226
 9783WAT      O29590   0.489   9.048   4.458
 9783WAT     H129591   0.533   8.989   4.390
 9783WAT     H229592   0.558   9.081   4.523
 9784WAT      O29593   2.218   2.510   8.706
 9784WAT     H129594   2.179   2.425   8.742
 9784WAT     H229595   2.164   2.541   8.628
 9785WAT      O29596   7.922   1.347   8.892
 9785WAT     H129597   7.956   1.266   8.845
 9785WAT     H229598   7.823   1.354   8.880
 9786WAT      O29599   4.466   1.503   2.032
 9786WAT     H129600   4.401   1.436   2.066
 9786WAT     H229601   4.559   1.472   2.049
 9787WAT      O29602   1.536   4.460   1.141
 9787WAT     H129603   1.604   4.530   1.117
 9787WAT     H229604   1.459   4.466   1.077
 9788WAT      O29605   8.067   8.949   0.058
 9788WAT     H129606   8.039   9.033   0.105
 9788WAT     H229607   7.987   8.904   0.019
 9789WAT      O29608   7.840   6.092   8.463
 9789WAT     H129609   7.814   6.188   8.464
 9789WAT     H229610   7.787   6.042   8.531
 9790WAT      O29611   9.712   8.757   1.294
 9790WAT     H129612   9.733   8.852   1.270
 9790WAT     H229613   9.714   8.700   1.211
 9791WAT      O29614   2.039   9.507   9.201
 9791WAT     H129615   2.033   9.603   9.174
 9791WAT     H229616   2.087   9.456   9.130
 9792WAT      O29617   5.550   2.397   5.958
 9792WAT     H129618   5.537   2.378   6.055
 9792WAT     H229619   5.607   2.478   5.947
 9793WAT      O29620   9.555   1.675   5.879
 9793WAT     H129621   9.523   1.770   5.883
 9793WAT     H229622   9.534   1.636   5.789
 9794WAT      O29623   7.257   1.123   7.879
 9794WAT     H129624   7.183   1.178   7.919
 9794WAT     H229625   7.302   1.175   7.806
 9795WAT      O29626   9.119   7.397   1.306
 9795WAT     H129627   9.148   7.464   1.374
 9795WAT     H229628   9.051   7.335   1.346
 9796WAT      O29629   4.270   0.284   7.639
 9796WAT     H129630   4.200   0.214   7.644
 9796WAT     H229631   4.228   0.373   7.620
 9797WAT      O29632   1.092   4.465   4.863
 9797WAT     H129633   1.162   4.511   4.918
 9797WAT     H229634   1.099   4.497   4.768
 9798WAT      O29635   3.532   2.945   0.485
 9798WAT     H129636   3.499   3.018   0.425
 9798WAT     H229637   3.573   2.986   0.567
 9799WAT      O29638   6.570   5.691   8.963
 9799WAT     H129639   6.481   5.734   8.979
 9799WAT     H229640   6.624   5.692   9.047
 9800WAT      O29641   1.420   5.511   8.900
 9800WAT     H129642   1.355   5.586   8.883
 9800WAT     H229643   1.375   5.441   8.955
 9801WAT      O29644   3.445   0.773   9.389
 9801WAT     H129645   3.392   0.760   9.305
 9801WAT     H229646   3.391   0.741   9.468
 9802WAT      O29647   0.496   4.522   7.887
 9802WAT     H129648   0.568   4.453   7.900
 9802WAT     H229649   0.529   4.611   7.919
 9803WAT      O29650   7.894   0.378   8.424
 9803WAT     H129651   7.869   0.299   8.368
 9803WAT     H229652   7.840   0.457   8.395
 9804WAT      O29653   6.251   1.942   8.639
 9804WAT     H129654   6.278   1.861   8.691
 9804WAT     H229655   6.332   1.995   8.615
 9805WAT      O29656   4.019   4.097   5.230
 9805WAT     H129657   4.043   4.068   5.322
 9805WAT     H229658   3.935   4.051   5.201
 9806WAT      O29659   3.815   1.918   0.324
 9806WAT     H129660   3.739   1.973   0.287
 9806WAT     H229661   3.880   1.978   0.370
 9807WAT      O29662   7.484   6.140   8.941
 9807WAT     H129663   7.572   6.093   8.934
 9807WAT     H229664   7.475   6.181   9.032
 9808WAT      O29665   5.694   1.206   4.163
 9808WAT     H129666   5.667   1.302   4.164
 9808WAT     H229667   5.766   1.192   4.095
 9809WAT      O29668   9.857   9.010   1.912
 9809WAT     H129669   9.932   8.951   1.883
 9809WAT     H229670   9.770   8.972   1.881
 9810WAT      O29671   8.687   8.111   9.199
 9810WAT     H129672   8.707   8.133   9.295
 9810WAT     H229673   8.756   8.047   9.165
 9811WAT      O29674   3.175   1.143   5.738
 9811WAT     H129675   3.274   1.136   5.752
 9811WAT     H229676   3.136   1.051   5.735
 9812WAT      O29677   7.902   3.066   7.881
 9812WAT     H129678   7.883   3.152   7.929
 9812WAT     H229679   7.944   3.085   7.792
 9813WAT      O29680   3.261   5.808   7.622
 9813WAT     H129681   3.281   5.846   7.712
 9813WAT     H229682   3.192   5.864   7.576
 9814WAT      O29683   6.033   2.031   2.303
 9814WAT     H129684   6.084   2.091   2.240
 9814WAT     H229685   6.010   1.946   2.256
 9815WAT      O29686   0.340   3.040   7.654
 9815WAT     H129687   0.286   3.031   7.571
 9815WAT     H229688   0.304   2.978   7.724
 9816WAT      O29689   5.119   8.274   0.286
 9816WAT     H129690   5.191   8.305   0.349
 9816WAT     H229691   5.092   8.181   0.310
 9817WAT      O29692   8.845   2.474   9.199
 9817WAT     H129693   8.856   2.445   9.104
 9817WAT     H229694   8.750   2.457   9.228
 9818WAT      O29695   8.040   2.052   5.709
 9818WAT     H129696   7.952   2.019   5.744
 9818WAT     H229697   8.114   2.015   5.766
 9819WAT      O29698   0.318   0.415   9.470
 9819WAT     H129699   0.255   0.378   9.539
 9819WAT     H229700   0.270   0.424   9.383
 9820WAT      O29701   8.137   3.521   3.743
 9820WAT     H129702   8.178   3.430   3.736
 9820WAT     H229703   8.056   3.525   3.685
 9821WAT      O29704   3.897   1.148   6.761
 9821WAT     H129705   3.913   1.050   6.764
 9821WAT     H229706   3.929   1.184   6.673
 9822WAT      O29707   3.509   8.517   0.073
 9822WAT     H129708   3.580   8.509   0.002
 9822WAT     H229709   3.450   8.437   0.072
 9823WAT      O29710   2.729   1.535   6.575
 9823WAT     H129711   2.656   1.550   6.508
 9823WAT     H229712   2.763   1.623   6.608
 9824WAT      O29713   1.322   0.264   4.632
 9824WAT     H129714   1.299   0.214   4.548
 9824WAT     H229715   1.385   0.339   4.610
 9825WAT      O29716   9.864   3.988   3.597
 9825WAT     H129717   9.945   4.020   3.648
 9825WAT     H229718   9.800   3.944   3.659
 9826WAT      O29719   7.120   6.877   0.928
 9826WAT     H129720   7.110   6.946   0.857
 9826WAT     H229721   7.124   6.786   0.887
 9827WAT      O29722   7.174   5.936   4.927
 9827WAT     H129723   7.228   6.014   4.898
 9827WAT     H229724   7.185   5.922   5.025
 9828WAT      O29725   6.777   8.542   6.346
 9828WAT     H129726   6.769   8.587   6.434
 9828WAT     H229727   6.687   8.512   6.315
 9829WAT      O29728   2.925   7.847   0.969
 9829WAT     H129729   2.934   7.926   1.029
 9829WAT     H229730   2.843   7.795   0.993
 9830WAT      O29731   1.537   9.176   9.516
 9830WAT     H129732   1.509   9.086   9.484
 9830WAT     H229733   1.463   9.241   9.503
 9831WAT      O29734   6.564   2.952   6.753
 9831WAT     H129735   6.508   2.952   6.836
 9831WAT     H229736   6.539   2.873   6.696
 9832WAT      O29737   5.242   7.548   2.458
 9832WAT     H129738   5.321   7.551   2.397
 9832WAT     H229739   5.244   7.628   2.518
 9833WAT      O29740   1.150   1.097   0.847
 9833WAT     H129741   1.210   1.022   0.873
 9833WAT     H229742   1.195   1.153   0.777
 9834WAT      O29743   6.933   1.136   9.700
 9834WAT     H129744   6.923   1.057   9.639
 9834WAT     H229745   7.030   1.154   9.716
 9835WAT      O29746   5.937   4.386   6.873
 9835WAT     H129747   5.940   4.315   6.802
 9835WAT     H229748   5.843   4.396   6.907
 9836WAT      O29749   1.812   8.433   6.610
 9836WAT     H129750   1.874   8.510   6.624
 9836WAT     H229751   1.857   8.349   6.640
 9837WAT      O29752   0.398   0.689   5.416
 9837WAT     H129753   0.301   0.668   5.427
 9837WAT     H229754   0.407   0.777   5.369
 9838WAT      O29755   8.929   4.274   1.125
 9838WAT     H129756   8.960   4.317   1.209
 9838WAT     H229757   8.982   4.191   1.107
 9839WAT      O29758   8.226   8.781   7.703
 9839WAT     H129759   8.239   8.707   7.770
 9839WAT     H229760   8.244   8.745   7.611
 9840WAT      O29761   9.885   3.133   7.524
 9840WAT     H129762   9.883   3.221   7.476
 9840WAT     H229763   9.891   3.149   7.622
 9841WAT      O29764   2.090   3.460   6.495
 9841WAT     H129765   2.167   3.523   6.509
 9841WAT     H229766   2.030   3.464   6.575
 9842WAT      O29767   2.708   6.240   4.832
 9842WAT     H129768   2.710   6.149   4.790
 9842WAT     H229769   2.695   6.230   4.931
 9843WAT      O29770   0.572   8.117   3.551
 9843WAT     H129771   0.626   8.185   3.501
 9843WAT     H229772   0.560   8.148   3.645
 9844WAT      O29773   7.514   5.681   6.661
 9844WAT     H129774   7.554   5.749   6.723
 9844WAT     H229775   7.566   5.679   6.576
 9845WAT      O29776   6.619   9.087   8.529
 9845WAT     H129777   6.530   9.117   8.566
 9845WAT     H229778   6.640   8.995   8.563
 9846WAT      O29779   1.365   8.956   5.797
 9846WAT     H129780   1.438   8.995   5.853
 9846WAT     H229781   1.311   9.030   5.757
 9847WAT      O29782   2.402   2.789   5.193
 9847WAT     H129783   2.446   2.708   5.231
 9847WAT     H229784   2.356   2.766   5.107
 9848WAT      O29785   0.876   3.147   6.007
 9848WAT     H129786   0.886   3.229   6.064
 9848WAT     H229787   0.930   3.158   5.924
 9849WAT      O29788   6.556   7.448   2.875
 9849WAT     H129789   6.577   7.543   2.899
 9849WAT     H229790   6.581   7.388   2.951
 9850WAT      O29791   7.264   8.790   4.860
 9850WAT     H129792   7.176   8.779   4.907
 9850WAT     H229793   7.248   8.825   4.767
 9851WAT      O29794   5.542   3.900   1.852
 9851WAT     H129795   5.446   3.872   1.850
 9851WAT     H229796   5.580   3.893   1.760
 9852WAT      O29797   7.351   1.446   1.671
 9852WAT     H129798   7.366   1.424   1.768
 9852WAT     H229799   7.415   1.393   1.615
 9853WAT      O29800   3.364   8.691   1.565
 9853WAT     H129801   3.374   8.721   1.470
 9853WAT     H229802   3.286   8.738   1.607
 9854WAT      O29803   7.850   4.748   2.643
 9854WAT     H129804   7.842   4.705   2.733
 9854WAT     H229805   7.863   4.846   2.655
 9855WAT      O29806   0.249   2.070   8.900
 9855WAT     H129807   0.231   2.092   8.996
 9855WAT     H229808   0.234   2.152   8.843
 9856WAT      O29809   4.028   7.935   3.206
 9856WAT     H129810   4.118   7.921   3.164
 9856WAT     H229811   4.007   8.033   3.207
 9857WAT      O29812   1.868   5.840   0.017
 9857WAT     H129813   1.892   5.834   0.114
 9857WAT     H229814   1.768   5.833   0.008
 9858WAT      O29815   2.400   6.658   9.817
 9858WAT     H129816   2.393   6.562   9.790
 9858WAT     H229817   2.467   6.666   9.892
 9859WAT      O29818   9.423   0.298   0.176
 9859WAT     H129819   9.430   0.289   0.077
 9859WAT     H229820   9.354   0.235   0.211
 9860WAT      O29821   8.158   6.599   9.033
 9860WAT     H129822   8.130   6.645   8.949
 9860WAT     H229823   8.176   6.503   9.014
 9861WAT      O29824   8.716   7.812   7.811
 9861WAT     H129825   8.745   7.737   7.751
 9861WAT     H229826   8.619   7.830   7.798
 9862WAT      O29827   5.207   5.967   2.625
 9862WAT     H129828   5.176   5.989   2.718
 9862WAT     H229829   5.193   5.869   2.608
 9863WAT      O29830   2.983   6.986   8.486
 9863WAT     H129831   3.013   7.080   8.469
 9863WAT     H229832   3.018   6.956   8.575
 9864WAT      O29833   7.132   0.799   8.453
 9864WAT     H129834   7.105   0.817   8.547
 9864WAT     H229835   7.079   0.858   8.391
 9865WAT      O29836   3.744   1.866   2.557
 9865WAT     H129837   3.735   1.767   2.562
 9865WAT     H229838   3.809   1.897   2.627
 9866WAT      O29839   4.044   8.450   8.801
 9866WAT     H129840   3.962   8.393   8.804
 9866WAT     H229841   4.103   8.428   8.878
 9867WAT      O29842   8.517   2.637   7.698
 9867WAT     H129843   8.462   2.721   7.695
 9867WAT     H229844   8.576   2.633   7.617
 9868WAT      O29845   3.517   7.579   1.342
 9868WAT     H129846   3.511   7.609   1.437
 9868WAT     H229847   3.512   7.479   1.339
 9869WAT      O29848   1.013   9.230   9.768
 9869WAT     H129849   0.949   9.156   9.747
 9869WAT     H229850   1.104   9.191   9.784
 9870WAT      O29851   6.487   5.161   2.215
 9870WAT     H129852   6.561   5.099   2.242
 9870WAT     H229853   6.509   5.203   2.128
 9871WAT      O29854   7.620   7.599   6.804
 9871WAT     H129855   7.702   7.607   6.747
 9871WAT     H229856   7.573   7.514   6.783
 9872WAT      O29857   4.419   0.848   3.766
 9872WAT     H129858   4.478   0.767   3.761
 9872WAT     H229859   4.344   0.839   3.699
 9873WAT      O29860   2.292   5.446   9.256
 9873WAT     H129861   2.215   5.501   9.288
 9873WAT     H229862   2.269   5.349   9.263
 9874WAT      O29863   9.085   1.806   8.825
 9874WAT     H129864   9.114   1.786   8.918
 9874WAT     H229865   9.089   1.905   8.809
 9875WAT      O29866   5.404   3.754   5.408
 9875WAT     H129867   5.338   3.774   5.481
 9875WAT     H229868   5.473   3.690   5.443
 9876WAT      O29869   9.721   9.281   5.019
 9876WAT     H129870   9.737   9.205   5.082
 9876WAT     H229871   9.769   9.263   4.933
 9877WAT      O29872   4.700   9.627   3.901
 9877WAT     H129873   4.784   9.681   3.905
 9877WAT     H229874   4.621   9.687   3.910
 9878WAT      O29875   5.412   1.129   1.055
 9878WAT     H129876   5.410   1.043   1.105
 9878WAT     H229877   5.363   1.199   1.107
 9879WAT      O29878   8.298   2.229   5.910
 9879WAT     H129879   8.282   2.130   5.903
 9879WAT     H229880   8.213   2.277   5.888
 9880WAT      O29881   2.600   6.827   2.064
 9880WAT     H129882   2.597   6.927   2.066
 9880WAT     H229883   2.604   6.796   1.969
 9881WAT      O29884   1.774   5.150   4.039
 9881WAT     H129885   1.841   5.116   4.105
 9881WAT     H229886   1.732   5.072   3.991
 9882WAT      O29887   5.809   2.468   6.815
 9882WAT     H129888   5.885   2.498   6.757
 9882WAT     H229889   5.754   2.402   6.765
 9883WAT      O29890   6.611   9.748   6.580
 9883WAT     H129891   6.565   9.721   6.664
 9883WAT     H229892   6.605   9.673   6.513
 9884WAT      O29893   5.089   7.479   9.882
 9884WAT     H129894   5.079   7.383   9.855
 9884WAT     H229895   5.179   7.512   9.854
 9885WAT      O29896   2.930   4.906   9.232
 9885WAT     H129897   2.923   4.895   9.332
 9885WAT     H229898   2.840   4.923   9.194
 9886WAT      O29899   4.028   5.362   0.935
 9886WAT     H129900   4.083   5.377   1.017
 9886WAT     H229901   4.035   5.266   0.907
 9887WAT      O29902   5.095   8.292   8.835
 9887WAT     H129903   5.067   8.213   8.890
 9887WAT     H229904   5.168   8.265   8.773
 9888WAT      O29905   0.287   9.192   4.551
 9888WAT     H129906   0.291   9.289   4.528
 9888WAT     H229907   0.367   9.145   4.513
 9889WAT      O29908   8.513   5.427   8.929
 9889WAT     H129909   8.477   5.335   8.915
 9889WAT     H229910   8.439   5.494   8.922
 9890WAT      O29911   2.213   4.941   7.221
 9890WAT     H129912   2.231   4.994   7.304
 9890WAT     H229913   2.260   4.984   7.144
 9891WAT      O29914   8.711   4.519   9.696
 9891WAT     H129915   8.617   4.507   9.728
 9891WAT     H229916   8.772   4.463   9.752
 9892WAT      O29917   5.109   7.615   8.924
 9892WAT     H129918   5.111   7.703   8.877
 9892WAT     H229919   5.173   7.617   9.001
 9893WAT      O29920   8.159   4.666   0.751
 9893WAT     H129921   8.101   4.748   0.746
 9893WAT     H229922   8.116   4.600   0.812
 9894WAT      O29923   6.039   7.875   1.183
 9894WAT     H129924   5.968   7.899   1.250
 9894WAT     H229925   5.996   7.832   1.104
 9895WAT      O29926   3.668   6.036   3.538
 9895WAT     H129927   3.705   6.021   3.629
 9895WAT     H229928   3.612   6.118   3.537
 9896WAT      O29929   3.344   8.605   2.150
 9896WAT     H129930   3.360   8.507   2.160
 9896WAT     H229931   3.322   8.625   2.054
 9897WAT      O29932   8.617   2.835   1.105
 9897WAT     H129933   8.589   2.930   1.096
 9897WAT     H229934   8.543   2.782   1.145
 9898WAT      O29935   6.061   1.423   8.916
 9898WAT     H129936   6.006   1.502   8.942
 9898WAT     H229937   6.052   1.408   8.817
 9899WAT      O29938   4.508   5.131   8.825
 9899WAT     H129939   4.434   5.158   8.762
 9899WAT     H229940   4.572   5.071   8.777
 9900WAT      O29941   6.336   6.782   9.726
 9900WAT     H129942   6.339   6.795   9.627
 9900WAT     H229943   6.243   6.755   9.753
 9901WAT      O29944   0.804   2.764   9.497
 9901WAT     H129945   0.793   2.665   9.483
 9901WAT     H229946   0.755   2.813   9.426
 9902WAT      O29947   4.248   7.389   9.626
 9902WAT     H129948   4.157   7.425   9.602
 9902WAT     H229949   4.306   7.387   9.545
 9903WAT      O29950   3.695   5.437   7.428
 9903WAT     H129951   3.687   5.338   7.440
 9903WAT     H229952   3.606   5.474   7.399
 9904WAT      O29953   1.727   2.742   2.165
 9904WAT     H129954   1.787   2.666   2.191
 9904WAT     H229955   1.686   2.781   2.248
 9905WAT      O29956   9.208   2.143   2.671
 9905WAT     H129957   9.126   2.161   2.615
 9905WAT     H229958   9.273   2.218   2.660
 9906WAT      O29959   9.398   3.125   4.373
 9906WAT     H129960   9.330   3.115   4.300
 9906WAT     H229961   9.474   3.180   4.341
 9907WAT      O29962   3.076   7.484   4.406
 9907WAT     H129963   3.126   7.570   4.411
 9907WAT     H229964   2.999   7.493   4.343
 9908WAT      O29965   1.998   7.429   6.845
 9908WAT     H129966   2.028   7.524   6.850
 9908WAT     H229967   1.970   7.407   6.752
 9909WAT      O29968   3.044   4.630   5.171
 9909WAT     H129969   2.979   4.661   5.240
 9909WAT     H229970   3.011   4.654   5.080
 9910WAT      O29971   6.734   0.475   7.270
 9910WAT     H129972   6.775   0.418   7.199
 9910WAT     H229973   6.698   0.417   7.343
 9911WAT      O29974   0.433   0.946   5.330
 9911WAT     H129975   0.376   1.018   5.371
 9911WAT     H229976   0.417   0.942   5.232
 9912WAT      O29977   9.156   8.979   6.290
 9912WAT     H129978   9.139   8.920   6.369
 9912WAT     H229979   9.082   8.967   6.224
 9913WAT      O29980   1.695   2.370   2.775
 9913WAT     H129981   1.752   2.439   2.818
 9913WAT     H229982   1.641   2.322   2.844
 9914WAT      O29983   0.172   3.246   9.133
 9914WAT     H129984   0.105   3.286   9.070
 9914WAT     H229985   0.126   3.181   9.193
 9915WAT      O29986   3.514   7.774   8.921
 9915WAT     H129987   3.537   7.702   8.855
 9915WAT     H229988   3.492   7.858   8.872
 9916WAT      O29989   5.536   0.840   7.350
 9916WAT     H129990   5.585   0.849   7.437
 9916WAT     H229991   5.598   0.860   7.275
 9917WAT      O29992   6.289   6.242   2.731
 9917WAT     H129993   6.225   6.170   2.756
 9917WAT     H229994   6.354   6.256   2.807
 9918WAT      O29995   4.865   4.554   0.836
 9918WAT     H129996   4.833   4.461   0.856
 9918WAT     H229997   4.884   4.601   0.922
 9919WAT      O29998   3.942   2.277   1.320
 9919WAT     H129999   4.002   2.315   1.390
 9919WAT     H230000   3.955   2.325   1.234
 9920WAT      O30001   8.732   2.756   2.477
 9920WAT     H130002   8.737   2.841   2.424
 9920WAT     H230003   8.667   2.693   2.434
 9921WAT      O30004   6.575   7.883   4.589
 9921WAT     H130005   6.570   7.827   4.671
 9921WAT     H230006   6.533   7.835   4.512
 9922WAT      O30007   7.072   6.259   0.475
 9922WAT     H130008   7.114   6.175   0.442
 9922WAT     H230009   7.011   6.296   0.405
 9923WAT      O30010   1.601   8.619   0.586
 9923WAT     H130011   1.577   8.626   0.489
 9923WAT     H230012   1.520   8.634   0.642
 9924WAT      O30013   6.229   7.755   7.193
 9924WAT     H130014   6.170   7.679   7.222
 9924WAT     H230015   6.245   7.748   7.094
 9925WAT      O30016   4.129   8.002   7.295
 9925WAT     H130017   4.131   7.960   7.385
 9925WAT     H230018   4.217   7.991   7.250
 9926WAT      O30019   8.082   6.397   6.833
 9926WAT     H130020   8.023   6.451   6.773
 9926WAT     H230021   8.026   6.339   6.892
 9927WAT      O30022   4.907   1.440   4.604
 9927WAT     H130023   4.809   1.425   4.592
 9927WAT     H230024   4.927   1.538   4.608
 9928WAT      O30025   0.999   8.266   0.255
 9928WAT     H130026   1.072   8.333   0.239
 9928WAT     H230027   0.911   8.312   0.250
 9929WAT      O30028   2.381   4.249   7.438
 9929WAT     H130029   2.347   4.196   7.360
 9929WAT     H230030   2.473   4.282   7.419
 9930WAT      O30031   5.499   1.362   4.653
 9930WAT     H130032   5.435   1.332   4.724
 9930WAT     H230033   5.455   1.354   4.564
 9931WAT      O30034   6.137   1.059   0.230
 9931WAT     H130035   6.047   1.102   0.230
 9931WAT     H230036   6.159   1.029   0.137
 9932WAT      O30037   4.443   2.930   5.312
 9932WAT     H130038   4.385   2.979   5.377
 9932WAT     H230039   4.499   2.995   5.261
 9933WAT      O30040   6.047   0.545   6.461
 9933WAT     H130041   6.125   0.604   6.477
 9933WAT     H230042   5.978   0.593   6.408
 9934WAT      O30043   4.968   1.825   6.286
 9934WAT     H130044   5.057   1.870   6.285
 9934WAT     H230045   4.977   1.733   6.247
 9935WAT      O30046   9.266   9.103   1.917
 9935WAT     H130047   9.328   9.098   1.995
 9935WAT     H230048   9.319   9.110   1.833
 9936WAT      O30049   5.465   3.070   2.136
 9936WAT     H130050   5.365   3.064   2.139
 9936WAT     H230051   5.496   3.130   2.209
 9937WAT      O30052   8.158   4.181   8.775
 9937WAT     H130053   8.145   4.265   8.829
 9937WAT     H230054   8.253   4.174   8.745
 9938WAT      O30055   7.628   6.464   7.809
 9938WAT     H130056   7.713   6.469   7.861
 9938WAT     H230057   7.633   6.388   7.744
 9939WAT      O30058   6.913   2.179   9.397
 9939WAT     H130059   6.923   2.272   9.432
 9939WAT     H230060   6.819   2.165   9.367
 9940WAT      O30061   0.742   3.109   8.136
 9940WAT     H130062   0.786   3.026   8.101
 9940WAT     H230063   0.735   3.103   8.236
 9941WAT      O30064   7.177   9.194   8.712
 9941WAT     H130065   7.144   9.121   8.653
 9941WAT     H230066   7.170   9.282   8.665
 9942WAT      O30067   2.055   7.800   2.055
 9942WAT     H130068   1.956   7.806   2.046
 9942WAT     H230069   2.099   7.846   1.977
 9943WAT      O30070   4.860   1.375   6.675
 9943WAT     H130071   4.783   1.358   6.736
 9943WAT     H230072   4.943   1.389   6.728
 9944WAT      O30073   2.236   2.268   7.968
 9944WAT     H130074   2.210   2.174   7.945
 9944WAT     H230075   2.303   2.267   8.042
 9945WAT      O30076   1.911   6.265   0.496
 9945WAT     H130077   1.932   6.358   0.466
 9945WAT     H230078   1.844   6.224   0.433
 9946WAT      O30079   5.235   6.866   8.167
 9946WAT     H130080   5.136   6.881   8.158
 9946WAT     H230081   5.260   6.860   8.263
 9947WAT      O30082   7.264   8.969   0.609
 9947WAT     H130083   7.262   8.943   0.706
 9947WAT     H230084   7.182   8.934   0.563
 9948WAT      O30085   8.376   9.126   9.404
 9948WAT     H130086   8.422   9.169   9.481
 9948WAT     H230087   8.311   9.058   9.438
 9949WAT      O30088   9.037   6.571   4.453
 9949WAT     H130089   9.018   6.562   4.356
 9949WAT     H230090   9.048   6.480   4.494
 9950WAT      O30091   5.182   6.517   8.758
 9950WAT     H130092   5.138   6.560   8.837
 9950WAT     H230093   5.276   6.492   8.782
 9951WAT      O30094   3.503   3.005   8.872
 9951WAT     H130095   3.411   3.008   8.911
 9951WAT     H230096   3.545   3.095   8.880
 9952WAT      O30097   5.659   1.769   3.631
 9952WAT     H130098   5.594   1.772   3.555
 9952WAT     H230099   5.748   1.736   3.598
 9953WAT      O30100   4.101   4.856   6.323
 9953WAT     H130101   4.112   4.898   6.412
 9953WAT     H230102   4.182   4.873   6.267
 9954WAT      O30103   5.073   9.085   9.612
 9954WAT     H130104   5.005   9.039   9.555
 9954WAT     H230105   5.161   9.040   9.602
 9955WAT      O30106   8.287   2.391   0.155
 9955WAT     H130107   8.259   2.296   0.139
 9955WAT     H230108   8.375   2.407   0.111
 9956WAT      O30109   6.044   1.081   7.128
 9956WAT     H130110   6.135   1.077   7.168
 9956WAT     H230111   6.043   1.028   7.043
 9957WAT      O30112   4.268   2.824   5.735
 9957WAT     H130113   4.327   2.784   5.665
 9957WAT     H230114   4.319   2.891   5.789
 9958WAT      O30115   3.840   1.217   2.657
 9958WAT     H130116   3.827   1.317   2.659
 9958WAT     H230117   3.809   1.179   2.744
 9959WAT      O30118   4.811   6.144   5.346
 9959WAT     H130119   4.901   6.148   5.390
 9959WAT     H230120   4.743   6.188   5.405
 9960WAT      O30121   0.279   5.360   5.959
 9960WAT     H130122   0.228   5.309   5.889
 9960WAT     H230123   0.283   5.305   6.043
 9961WAT      O30124   1.504   5.896   9.684
 9961WAT     H130125   1.572   5.964   9.657
 9961WAT     H230126   1.530   5.857   9.773
 9962WAT      O30127   6.525   6.181   8.314
 9962WAT     H130128   6.448   6.124   8.288
 9962WAT     H230129   6.492   6.268   8.350
 9963WAT      O30130   1.343   8.426   2.373
 9963WAT     H130131   1.443   8.433   2.375
 9963WAT     H230132   1.303   8.517   2.369
 9964WAT      O30133   7.082   4.344   8.175
 9964WAT     H130134   7.175   4.376   8.196
 9964WAT     H230135   7.086   4.282   8.097
 9965WAT      O30136   7.664   1.138   8.579
 9965WAT     H130137   7.720   1.214   8.548
 9965WAT     H230138   7.723   1.066   8.616
 9966WAT      O30139   2.397   8.957   3.606
 9966WAT     H130140   2.407   8.921   3.513
 9966WAT     H230141   2.328   9.029   3.607
 9967WAT      O30142   9.441   4.105   2.419
 9967WAT     H130143   9.416   4.112   2.323
 9967WAT     H230144   9.391   4.175   2.472
 9968WAT      O30145   0.292   6.372   7.695
 9968WAT     H130146   0.271   6.278   7.722
 9968WAT     H230147   0.345   6.371   7.611
 9969WAT      O30148   9.797   3.359   2.956
 9969WAT     H130149   9.753   3.273   2.934
 9969WAT     H230150   9.790   3.421   2.878
 9970WAT      O30151   9.662   1.066   0.123
 9970WAT     H130152   9.760   1.072   0.108
 9970WAT     H230153   9.615   1.065   0.035
 9971WAT      O30154   5.196   0.559   2.048
 9971WAT     H130155   5.259   0.502   1.995
 9971WAT     H230156   5.237   0.649   2.063
 9972WAT      O30157   0.776   9.092   0.425
 9972WAT     H130158   0.750   9.107   0.329
 9972WAT     H230159   0.743   9.168   0.481
 9973WAT      O30160   6.496   8.953   2.612
 9973WAT     H130161   6.549   9.036   2.626
 9973WAT     H230162   6.403   8.966   2.645
 9974WAT      O30163   4.318   6.687   5.316
 9974WAT     H130164   4.315   6.687   5.216
 9974WAT     H230165   4.408   6.717   5.346
 9975WAT      O30166   0.326   7.795   5.015
 9975WAT     H130167   0.292   7.790   4.921
 9975WAT     H230168   0.290   7.878   5.059
 9976WAT      O30169   9.707   5.432   1.276
 9976WAT     H130170   9.660   5.512   1.240
 9976WAT     H230171   9.804   5.436   1.251
 9977WAT      O30172   1.425   3.360   7.534
 9977WAT     H130173   1.520   3.366   7.504
 9977WAT     H230174   1.416   3.397   7.626
 9978WAT      O30175   5.135   1.453   2.929
 9978WAT     H130176   5.092   1.437   2.840
 9978WAT     H230177   5.141   1.367   2.980
 9979WAT      O30178   9.315   6.718   4.679
 9979WAT     H130179   9.333   6.741   4.583
 9979WAT     H230180   9.232   6.662   4.684
 9980WAT      O30181   2.801   4.971   1.239
 9980WAT     H130182   2.858   4.902   1.196
 9980WAT     H230183   2.830   4.984   1.334
 9981WAT      O30184   8.963   0.933   9.795
 9981WAT     H130185   8.943   1.031   9.793
 9981WAT     H230186   9.035   0.912   9.729
 9982WAT      O30187   7.233   3.279   0.104
 9982WAT     H130188   7.233   3.365   0.155
 9982WAT     H230189   7.267   3.296   0.011
 9983WAT      O30190   4.148   7.231   7.341
 9983WAT     H130191   4.213   7.227   7.417
 9983WAT     H230192   4.170   7.159   7.275
 9984WAT      O30193   4.144   6.805   7.508
 9984WAT     H130194   4.166   6.887   7.559
 9984WAT     H230195   4.226   6.748   7.500
 9985WAT      O30196   9.596   4.095   4.781
 9985WAT     H130197   9.668   4.163   4.790
 9985WAT     H230198   9.517   4.122   4.837
 9986WAT      O30199   3.155   7.555   3.249
 9986WAT     H130200   3.245   7.512   3.252
 9986WAT     H230201   3.127   7.567   3.153
 9987WAT      O30202   7.920   5.711   0.555
 9987WAT     H130203   7.860   5.657   0.496
 9987WAT     H230204   7.865   5.764   0.620
 9988WAT      O30205   2.912   0.084   7.158
 9988WAT     H130206   2.980   0.107   7.228
 9988WAT     H230207   2.958   0.046   7.078
 9989WAT      O30208   5.438   0.131   4.175
 9989WAT     H130209   5.526   0.119   4.129
 9989WAT     H230210   5.453   0.147   4.272
 9990WAT      O30211   6.982   3.664   5.441
 9990WAT     H130212   6.966   3.586   5.382
 9990WAT     H230213   6.896   3.694   5.482
 9991WAT      O30214   5.885   6.502   9.079
 9991WAT     H130215   5.862   6.416   9.035
 9991WAT     H230216   5.940   6.484   9.161
 9992WAT      O30217   5.563   8.494   6.476
 9992WAT     H130218   5.470   8.484   6.441
 9992WAT     H230219   5.599   8.405   6.502
 9993WAT      O30220   7.305   2.808   8.626
 9993WAT     H130221   7.348   2.821   8.715
 9993WAT     H230222   7.257   2.720   8.624
 9994WAT      O30223   9.130   1.008   3.326
 9994WAT     H130224   9.046   0.996   3.378
 9994WAT     H230225   9.194   0.935   3.350
 9995WAT      O30226   3.074   2.558   4.803
 9995WAT     H130227   3.166   2.521   4.812
 9995WAT     H230228   3.023   2.540   4.887
 9996WAT      O30229   5.419   2.976   4.977
 9996WAT     H130230   5.479   2.901   4.948
 9996WAT     H230231   5.470   3.062   4.975
 9997WAT      O30232   4.207   9.348   1.874
 9997WAT     H130233   4.232   9.426   1.817
 9997WAT     H230234   4.227   9.263   1.825
 9998WAT      O30235   2.026   2.936   9.503
 9998WAT     H130236   2.092   2.932   9.578
 9998WAT     H230237   2.071   2.910   9.418
 9999WAT      O30238   6.756   0.568   4.224
 9999WAT     H130239   6.805   0.511   4.158
 9999WAT     H230240   6.658   0.547   4.219
10000WAT      O30241   8.191   1.783   2.808
10000WAT     H130242   8.252   1.828   2.742
10000WAT     H230243   8.226   1.691   2.828
10001WAT      O30244   0.669   0.753   7.878
10001WAT     H130245   0.746   0.732   7.938
10001WAT     H230246   0.696   0.737   7.783
10002WAT      O30247   6.746   4.658   7.807
10002WAT     H130248   6.710   4.721   7.738
10002WAT     H230249   6.822   4.606   7.769
10003WAT      O30250   5.691   1.448   9.116
10003WAT     H130251   5.659   1.354   9.120
10003WAT     H230252   5.775   1.458   9.169
10004WAT      O30253   1.838   1.304   5.374
10004WAT     H130254   1.874   1.222   5.419
10004WAT     H230255   1.911   1.347   5.321
10005WAT      O30256   9.592   1.593   1.869
10005WAT     H130257   9.630   1.550   1.788
10005WAT     H230258   9.523   1.532   1.909
10006WAT      O30259   6.399   6.711   0.662
10006WAT     H130260   6.323   6.668   0.712
10006WAT     H230261   6.456   6.640   0.620
10007WAT      O30262   6.446   3.525   0.433
10007WAT     H130263   6.535   3.479   0.439
10007WAT     H230264   6.387   3.475   0.370
10008WAT      O30265   8.014   1.266   3.166
10008WAT     H130266   8.036   1.188   3.108
10008WAT     H230267   7.951   1.237   3.239
10009WAT      O30268   6.328   0.741   3.744
10009WAT     H130269   6.316   0.833   3.709
10009WAT     H230270   6.425   0.725   3.763
10010WAT      O30271   9.343   4.957   2.791
10010WAT     H130272   9.332   5.044   2.742
10010WAT     H230273   9.405   4.898   2.739
10011WAT      O30274   6.045   1.900   7.015
10011WAT     H130275   5.959   1.848   7.010
10011WAT     H230276   6.122   1.838   6.999
10012WAT      O30277   3.280   7.842   6.988
10012WAT     H130278   3.336   7.921   7.013
10012WAT     H230279   3.309   7.807   6.899
10013WAT      O30280   6.557   7.777   3.508
10013WAT     H130281   6.553   7.678   3.490
10013WAT     H230282   6.631   7.817   3.454
10014WAT      O30283   6.937   5.718   2.621
10014WAT     H130284   6.842   5.690   2.637
10014WAT     H230285   6.948   5.746   2.526
10015WAT      O30286   9.648   0.690   0.483
10015WAT     H130287   9.594   0.611   0.452
10015WAT     H230288   9.745   0.664   0.485
10016WAT      O30289   5.887   3.053   6.336
10016WAT     H130290   5.970   3.059   6.391
10016WAT     H230291   5.812   3.020   6.393
10017WAT      O30292   7.249   4.349   7.023
10017WAT     H130293   7.223   4.369   6.929
10017WAT     H230294   7.314   4.273   7.024
10018WAT      O30295   2.958   8.164   6.605
10018WAT     H130296   2.867   8.127   6.621
10018WAT     H230297   3.012   8.099   6.552
10019WAT      O30298   6.603   8.710   0.767
10019WAT     H130299   6.547   8.756   0.836
10019WAT     H230300   6.684   8.765   0.747
10020WAT      O30301   5.088   8.698   7.641
10020WAT     H130302   5.116   8.621   7.698
10020WAT     H230303   4.988   8.702   7.637
10021WAT      O30304   7.738   1.109   2.537
10021WAT     H130305   7.832   1.096   2.505
10021WAT     H230306   7.702   1.022   2.570
10022WAT      O30307   2.604   1.756   9.459
10022WAT     H130308   2.642   1.669   9.428
10022WAT     H230309   2.529   1.739   9.523
10023WAT      O30310   9.525   4.169   5.229
10023WAT     H130311   9.611   4.164   5.179
10023WAT     H230312   9.476   4.252   5.204
10024WAT      O30313   4.073   8.184   5.764
10024WAT     H130314   3.992   8.184   5.705
10024WAT     H230315   4.153   8.153   5.712
10025WAT      O30316   6.072   5.034   4.539
10025WAT     H130317   6.080   5.030   4.639
10025WAT     H230318   6.111   4.951   4.499
10026WAT      O30319   6.224   1.159   0.562
10026WAT     H130320   6.139   1.120   0.526
10026WAT     H230321   6.302   1.126   0.509
10027WAT      O30322   3.520   7.686   1.582
10027WAT     H130323   3.431   7.646   1.607
10027WAT     H230324   3.551   7.747   1.655
10028WAT      O30325   5.669   7.114   8.198
10028WAT     H130326   5.760   7.154   8.205
10028WAT     H230327   5.639   7.083   8.289
10029WAT      O30328   7.561   0.146   2.302
10029WAT     H130329   7.515   0.232   2.281
10029WAT     H230330   7.538   0.078   2.232
10030WAT      O30331   7.662   9.342   4.407
10030WAT     H130332   7.754   9.377   4.427
10030WAT     H230333   7.594   9.411   4.435
10031WAT      O30334   2.424   2.259   6.432
10031WAT     H130335   2.437   2.260   6.333
10031WAT     H230336   2.392   2.168   6.461
10032WAT      O30337   3.464   8.883   1.893
10032WAT     H130338   3.535   8.882   1.822
10032WAT     H230339   3.504   8.855   1.980
10033WAT      O30340   3.215   4.314   5.577
10033WAT     H130341   3.272   4.295   5.498
10033WAT     H230342   3.214   4.235   5.638
10034WAT      O30343   1.652   3.288   5.457
10034WAT     H130344   1.702   3.202   5.443
10034WAT     H230345   1.568   3.287   5.403
10035WAT      O30346   5.527   5.791   8.419
10035WAT     H130347   5.574   5.879   8.423
10035WAT     H230348   5.466   5.782   8.498
10036WAT      O30349   7.851   8.199   2.006
10036WAT     H130350   7.855   8.153   1.918
10036WAT     H230351   7.868   8.133   2.080
10037WAT      O30352   4.832   0.663   8.607
10037WAT     H130353   4.761   0.597   8.631
10037WAT     H230354   4.867   0.643   8.515
10038WAT      O30355   4.912   4.583   3.840
10038WAT     H130356   4.899   4.547   3.747
10038WAT     H230357   4.836   4.643   3.864
10039WAT      O30358   6.717   1.438   7.808
10039WAT     H130359   6.673   1.354   7.837
10039WAT     H230360   6.678   1.516   7.858
10040WAT      O30361   4.336   3.709   8.847
10040WAT     H130362   4.434   3.723   8.828
10040WAT     H230363   4.282   3.769   8.788
10041WAT      O30364   7.930   6.977   9.755
10041WAT     H130365   7.832   6.958   9.744
10041WAT     H230366   7.956   7.052   9.694
10042WAT      O30367   0.246   5.232   6.197
10042WAT     H130368   0.245   5.258   6.294
10042WAT     H230369   0.157   5.194   6.171
10043WAT      O30370   0.577   8.128   2.876
10043WAT     H130371   0.522   8.087   2.804
10043WAT     H230372   0.528   8.123   2.963
10044WAT      O30373   1.657   0.182   2.575
10044WAT     H130374   1.613   0.206   2.488
10044WAT     H230375   1.724   0.253   2.599
10045WAT      O30376   0.596   1.389   7.472
10045WAT     H130377   0.603   1.292   7.497
10045WAT     H230378   0.668   1.412   7.407
10046WAT      O30379   5.226   9.819   8.403
10046WAT     H130380   5.194   9.906   8.366
10046WAT     H230381   5.152   9.752   8.399
10047WAT      O30382   8.794   3.001   1.295
10047WAT     H130383   8.875   3.060   1.291
10047WAT     H230384   8.768   2.974   1.202
10048WAT      O30385   4.669   1.722   5.112
10048WAT     H130386   4.703   1.773   5.191
10048WAT     H230387   4.677   1.778   5.030
10049WAT      O30388   6.857   8.318   1.401
10049WAT     H130389   6.874   8.233   1.351
10049WAT     H230390   6.805   8.380   1.343
10050WAT      O30391   0.295   0.326   6.140
10050WAT     H130392   0.361   0.258   6.109
10050WAT     H230393   0.213   0.280   6.173
10051WAT      O30394   0.057   7.759   0.895
10051WAT     H130395   0.043   7.856   0.915
10051WAT     H230396  -0.032   7.715   0.880
10052WAT      O30397   8.015   6.776   3.524
10052WAT     H130398   7.944   6.824   3.474
10052WAT     H230399   8.100   6.776   3.470
10053WAT      O30400   6.424   9.526   4.140
10053WAT     H130401   6.516   9.499   4.111
10053WAT     H230402   6.420   9.529   4.239
10054WAT      O30403   9.083   0.045   7.796
10054WAT     H130404   9.126   0.082   7.878
10054WAT     H230405   8.992   0.011   7.819
10055WAT      O30406   5.807   5.552   3.011
10055WAT     H130407   5.845   5.459   3.012
10055WAT     H230408   5.714   5.550   3.048
10056WAT      O30409   8.771   5.061   2.930
10056WAT     H130410   8.806   4.977   2.888
10056WAT     H230411   8.738   5.042   3.022
10057WAT      O30412   6.805   4.332   5.459
10057WAT     H130413   6.760   4.421   5.451
10057WAT     H230414   6.751   4.274   5.521
10058WAT      O30415   8.282   3.437   8.299
10058WAT     H130416   8.364   3.381   8.313
10058WAT     H230417   8.218   3.388   8.240
10059WAT      O30418   6.523   3.079   0.081
10059WAT     H130419   6.549   3.176   0.090
10059WAT     H230420   6.542   3.048  -0.012
10060WAT      O30421   5.955   0.906   0.808
10060WAT     H130422   6.007   0.990   0.825
10060WAT     H230423   5.901   0.882   0.888
10061WAT      O30424   4.445   7.687   2.036
10061WAT     H130425   4.506   7.748   2.086
10061WAT     H230426   4.418   7.611   2.095
10062WAT      O30427   9.368   4.062   3.075
10062WAT     H130428   9.369   4.096   3.169
10062WAT     H230429   9.436   3.989   3.065
10063WAT      O30430   4.378   4.818   2.877
10063WAT     H130431   4.369   4.778   2.968
10063WAT     H230432   4.388   4.917   2.884
10064WAT      O30433   8.517   6.374   0.982
10064WAT     H130434   8.420   6.372   0.957
10064WAT     H230435   8.567   6.306   0.928
10065WAT      O30436   6.595   7.912   5.961
10065WAT     H130437   6.498   7.936   5.957
10065WAT     H230438   6.648   7.992   5.992
10066WAT      O30439   3.607   1.945   5.080
10066WAT     H130440   3.682   1.879   5.084
10066WAT     H230441   3.638   2.028   5.034
10067WAT      O30442   4.549   4.660   2.495
10067WAT     H130443   4.542   4.626   2.589
10067WAT     H230444   4.628   4.720   2.487
10068WAT      O30445   4.733   9.266   4.506
10068WAT     H130446   4.762   9.307   4.420
10068WAT     H230447   4.666   9.195   4.488
10069WAT      O30448   4.680   1.366   8.001
10069WAT     H130449   4.629   1.280   8.009
10069WAT     H230450   4.625   1.432   7.949
10070WAT      O30451   3.466   4.507   7.055
10070WAT     H130452   3.534   4.461   6.998
10070WAT     H230453   3.467   4.605   7.037
10071WAT      O30454   0.769   4.111   1.284
10071WAT     H130455   0.790   4.158   1.370
10071WAT     H230456   0.793   4.015   1.292
10072WAT      O30457   5.908   1.796   2.187
10072WAT     H130458   5.915   1.819   2.090
10072WAT     H230459   5.812   1.795   2.214
10073WAT      O30460   1.180   7.866   1.737
10073WAT     H130461   1.114   7.936   1.708
10073WAT     H230462   1.181   7.861   1.837
10074WAT      O30463   5.235   6.686   3.573
10074WAT     H130464   5.155   6.740   3.601
10074WAT     H230465   5.238   6.602   3.627
10075WAT      O30466   6.545   3.711   1.112
10075WAT     H130467   6.485   3.783   1.147
10075WAT     H230468   6.572   3.651   1.187
10076WAT      O30469   9.237   4.589   3.007
10076WAT     H130470   9.189   4.508   2.973
10076WAT     H230471   9.335   4.576   2.999
10077WAT      O30472   2.197   9.167   0.615
10077WAT     H130473   2.296   9.178   0.606
10077WAT     H230474   2.177   9.130   0.706
10078WAT      O30475   5.524   8.988   3.693
10078WAT     H130476   5.498   9.080   3.663
10078WAT     H230477   5.564   8.938   3.616
10079WAT      O30478   4.347   4.962   4.056
10079WAT     H130479   4.330   4.939   4.152
10079WAT     H230480   4.434   4.924   4.027
10080WAT      O30481   3.400   5.696   8.065
10080WAT     H130482   3.468   5.742   8.009
10080WAT     H230483   3.436   5.684   8.158
10081WAT      O30484   6.391   6.105   9.651
10081WAT     H130485   6.435   6.108   9.741
10081WAT     H230486   6.401   6.013   9.612
10082WAT      O30487   2.798   6.361   3.601
10082WAT     H130488   2.876   6.417   3.628
10082WAT     H230489   2.825   6.265   3.596
10083WAT      O30490   6.508   0.394   9.747
10083WAT     H130491   6.474   0.309   9.789
10083WAT     H230492   6.451   0.416   9.667
10084WAT      O30493   5.892   7.631   1.789
10084WAT     H130494   5.805   7.681   1.797
10084WAT     H230495   5.951   7.655   1.866
10085WAT      O30496   7.773   9.100   3.191
10085WAT     H130497   7.864   9.058   3.193
10085WAT     H230498   7.714   9.058   3.259
10086WAT      O30499   9.159   0.792   1.390
10086WAT     H130500   9.076   0.776   1.336
10086WAT     H230501   9.175   0.890   1.399
10087WAT      O30502   5.627   0.200   6.191
10087WAT     H130503   5.698   0.268   6.175
10087WAT     H230504   5.541   0.232   6.152
10088WAT      O30505   0.722   4.240   2.673
10088WAT     H130506   0.812   4.277   2.697
10088WAT     H230507   0.697   4.168   2.737
10089WAT      O30508   7.271   9.021   1.749
10089WAT     H130509   7.322   8.961   1.687
10089WAT     H230510   7.229   9.095   1.696
10090WAT      O30511   0.673   9.593   1.690
10090WAT     H130512   0.728   9.672   1.715
10090WAT     H230513   0.711   9.550   1.608
10091WAT      O30514   7.998   7.004   8.221
10091WAT     H130515   8.051   7.050   8.150
10091WAT     H230516   8.054   6.935   8.266
10092WAT      O30517   5.037   3.017   0.878
10092WAT     H130518   4.966   3.001   0.809
10092WAT     H230519   5.127   3.011   0.834
10093WAT      O30520   2.819   7.310   2.392
10093WAT     H130521   2.903   7.272   2.431
10093WAT     H230522   2.744   7.244   2.402
10094WAT      O30523   5.215   3.272   1.807
10094WAT     H130524   5.222   3.330   1.726
10094WAT     H230525   5.304   3.228   1.824
10095WAT      O30526   0.021   2.682   9.172
10095WAT     H130527  -0.048   2.734   9.221
10095WAT     H230528   0.098   2.742   9.149
10096WAT      O30529   6.202   8.663   4.434
10096WAT     H130530   6.265   8.587   4.451
10096WAT     H230531   6.208   8.729   4.508
10097WAT      O30532   4.138   7.744   9.571
10097WAT     H130533   4.061   7.805   9.593
10097WAT     H230534   4.211   7.756   9.638
10098WAT      O30535   8.469   2.126   2.811
10098WAT     H130536   8.503   2.200   2.869
10098WAT     H230537   8.531   2.048   2.814
10099WAT      O30538   3.417   1.942   2.924
10099WAT     H130539   3.369   1.855   2.936
10099WAT     H230540   3.350   2.016   2.917
10100WAT      O30541   5.259   2.465   0.140
10100WAT     H130542   5.179   2.413   0.171
10100WAT     H230543   5.272   2.545   0.200
10101WAT      O30544   5.065   3.785   9.528
10101WAT     H130545   5.135   3.764   9.459
10101WAT     H230546   4.977   3.748   9.497
10102WAT      O30547   4.703   3.088   4.373
10102WAT     H130548   4.660   3.107   4.462
10102WAT     H230549   4.768   3.013   4.383
10103WAT      O30550   6.126   0.993   6.005
10103WAT     H130551   6.143   1.075   6.060
10103WAT     H230552   6.166   1.004   5.914
10104WAT      O30553   4.520   7.558   3.714
10104WAT     H130554   4.608   7.581   3.755
10104WAT     H230555   4.493   7.466   3.743
10105WAT      O30556   6.052   9.661   0.309
10105WAT     H130557   5.953   9.654   0.303
10105WAT     H230558   6.081   9.656   0.405
10106WAT      O30559   2.166   0.158   8.977
10106WAT     H130560   2.118   0.213   8.909
10106WAT     H230561   2.100   0.111   9.035
10107WAT      O30562   5.769   8.630   7.741
10107WAT     H130563   5.732   8.589   7.825
10107WAT     H230564   5.825   8.563   7.693
10108WAT      O30565   8.618   5.659   9.130
10108WAT     H130566   8.571   5.673   9.043
10108WAT     H230567   8.675   5.578   9.125
10109WAT      O30568   7.040   0.471   4.487
10109WAT     H130569   7.051   0.396   4.552
10109WAT     H230570   6.946   0.505   4.491
10110WAT      O30571   9.773   9.593   7.124
10110WAT     H130572   9.739   9.664   7.186
10110WAT     H230573   9.826   9.526   7.176
10111WAT      O30574   5.191   5.917   3.038
10111WAT     H130575   5.165   5.984   2.968
10111WAT     H230576   5.109   5.874   3.075
10112WAT      O30577   0.496   7.993   2.640
10112WAT     H130578   0.535   8.085   2.631
10112WAT     H230579   0.406   7.989   2.597
10113WAT      O30580   4.007   9.421   5.067
10113WAT     H130581   4.106   9.435   5.073
10113WAT     H230582   3.978   9.424   4.972
10114WAT      O30583   0.790   3.761   0.365
10114WAT     H130584   0.749   3.671   0.378
10114WAT     H230585   0.778   3.815   0.448
10115WAT      O30586   2.982   8.818   0.153
10115WAT     H130587   2.904   8.831   0.214
10115WAT     H230588   3.061   8.785   0.205
10116WAT      O30589   1.485   1.916   0.629
10116WAT     H130590   1.549   1.883   0.560
10116WAT     H230591   1.510   1.879   0.719
10117WAT      O30592   0.420   3.937   6.164
10117WAT     H130593   0.378   3.863   6.216
10117WAT     H230594   0.459   3.901   6.079
10118WAT      O30595   1.490   9.605   2.661
10118WAT     H130596   1.416   9.626   2.598
10118WAT     H230597   1.459   9.616   2.755
10119WAT      O30598   0.593   5.398   3.351
10119WAT     H130599   0.578   5.360   3.443
10119WAT     H230600   0.542   5.345   3.284
10120WAT      O30601   1.503   2.303   8.431
10120WAT     H130602   1.591   2.275   8.393
10120WAT     H230603   1.435   2.232   8.413
10121WAT      O30604   8.312   2.057   6.877
10121WAT     H130605   8.392   2.064   6.937
10121WAT     H230606   8.261   2.143   6.880
10122WAT      O30607   0.703   0.775   8.241
10122WAT     H130608   0.746   0.712   8.306
10122WAT     H230609   0.757   0.778   8.157
10123WAT      O30610   5.372   1.825   5.859
10123WAT     H130611   5.455   1.856   5.814
10123WAT     H230612   5.297   1.888   5.838
10124WAT      O30613   6.184   3.688   0.837
10124WAT     H130614   6.183   3.788   0.851
10124WAT     H230615   6.265   3.663   0.785
10125WAT      O30616   8.424   1.509   7.166
10125WAT     H130617   8.333   1.520   7.126
10125WAT     H230618   8.461   1.598   7.190
10126WAT      O30619   3.474   6.001   7.188
10126WAT     H130620   3.385   6.038   7.215
10126WAT     H230621   3.462   5.910   7.148
10127WAT      O30622   3.586   0.024   6.859
10127WAT     H130623   3.498   0.065   6.834
10127WAT     H230624   3.571  -0.049   6.926
10128WAT      O30625   0.948   8.475   9.703
10128WAT     H130626   0.957   8.534   9.784
10128WAT     H230627   0.864   8.422   9.710
10129WAT      O30628   4.677   8.561   6.374
10129WAT     H130629   4.661   8.653   6.411
10129WAT     H230630   4.599   8.533   6.318
10130WAT      O30631   5.156   8.126   5.454
10130WAT     H130632   5.146   8.043   5.509
10130WAT     H230633   5.129   8.205   5.509
10131WAT      O30634   6.717   6.050   7.696
10131WAT     H130635   6.782   6.103   7.751
10131WAT     H230636   6.731   6.070   7.599
10132WAT      O30637   6.058   1.596   0.637
10132WAT     H130638   6.062   1.503   0.673
10132WAT     H230639   6.002   1.597   0.554
10133WAT      O30640   4.709   6.522   8.686
10133WAT     H130641   4.793   6.535   8.634
10133WAT     H230642   4.659   6.609   8.689
10134WAT      O30643   9.080   7.934   4.026
10134WAT     H130644   9.177   7.909   4.023
10134WAT     H230645   9.065   7.994   4.105
10135WAT      O30646   1.287   1.706   3.555
10135WAT     H130647   1.219   1.641   3.522
10135WAT     H230648   1.289   1.786   3.494
10136WAT      O30649   2.074   4.980   8.530
10136WAT     H130650   2.088   4.972   8.629
10136WAT     H230651   2.060   4.890   8.490
10137WAT      O30652   2.442   2.810   7.491
10137WAT     H130653   2.379   2.770   7.424
10137WAT     H230654   2.396   2.883   7.541
10138WAT      O30655   4.910   3.716   0.815
10138WAT     H130656   5.000   3.754   0.836
10138WAT     H230657   4.887   3.646   0.883
10139WAT      O30658   5.314   9.273   9.881
10139WAT     H130659   5.240   9.218   9.919
10139WAT     H230660   5.388   9.279   9.948
10140WAT      O30661   9.849   6.531   6.372
10140WAT     H130662   9.930   6.490   6.415
10140WAT     H230663   9.777   6.541   6.441
10141WAT      O30664   3.932   5.774   1.156
10141WAT     H130665   3.965   5.847   1.216
10141WAT     H230666   3.883   5.815   1.079
10142WAT      O30667   8.681   4.974   5.939
10142WAT     H130668   8.587   5.008   5.948
10142WAT     H230669   8.707   4.976   5.842
10143WAT      O30670   2.202   0.009   0.732
10143WAT     H130671   2.285   0.061   0.714
10143WAT     H230672   2.138   0.065   0.784
10144WAT      O30673   2.405   8.446   6.526
10144WAT     H130674   2.473   8.483   6.589
10144WAT     H230675   2.396   8.507   6.447
10145WAT      O30676   9.289   3.861   1.449
10145WAT     H130677   9.225   3.798   1.406
10145WAT     H230678   9.383   3.828   1.435
10146WAT      O30679   5.454   9.681   2.477
10146WAT     H130680   5.403   9.614   2.424
10146WAT     H230681   5.436   9.773   2.441
10147WAT      O30682   6.337   7.909   5.443
10147WAT     H130683   6.353   7.962   5.360
10147WAT     H230684   6.370   7.961   5.522
10148WAT      O30685   3.695   3.966   8.371
10148WAT     H130686   3.793   3.962   8.390
10148WAT     H230687   3.678   4.034   8.299
10149WAT      O30688   7.250   0.109   7.658
10149WAT     H130689   7.154   0.080   7.660
10149WAT     H230690   7.265   0.168   7.579
10150WAT      O30691   8.178   4.458   8.946
10150WAT     H130692   8.228   4.409   9.017
10150WAT     H230693   8.234   4.533   8.910
10151WAT      O30694   3.377   8.056   1.649
10151WAT     H130695   3.407   8.007   1.566
10151WAT     H230696   3.442   8.129   1.669
10152WAT      O30697   6.708   8.942   9.423
10152WAT     H130698   6.616   8.906   9.443
10152WAT     H230699   6.770   8.914   9.496
10153WAT      O30700   3.736   5.416   1.236
10153WAT     H130701   3.651   5.460   1.209
10153WAT     H230702   3.737   5.322   1.201
10154WAT      O30703   6.802   2.353   7.419
10154WAT     H130704   6.769   2.284   7.485
10154WAT     H230705   6.901   2.357   7.422
10155WAT      O30706   4.715   7.129   8.611
10155WAT     H130707   4.750   7.104   8.521
10155WAT     H230708   4.620   7.099   8.620
10156WAT      O30709   0.352   4.001   6.525
10156WAT     H130710   0.397   4.089   6.508
10156WAT     H230711   0.403   3.928   6.480
10157WAT      O30712   2.845   8.234   4.063
10157WAT     H130713   2.861   8.299   3.989
10157WAT     H230714   2.808   8.149   4.025
10158WAT      O30715   1.653   9.660   8.344
10158WAT     H130716   1.560   9.661   8.307
10158WAT     H230717   1.718   9.678   8.270
10159WAT      O30718   3.189   4.001   0.123
10159WAT     H130719   3.117   3.944   0.085
10159WAT     H230720   3.277   3.978   0.081
10160WAT      O30721   4.817   5.865   5.236
10160WAT     H130722   4.844   5.937   5.301
10160WAT     H230723   4.739   5.897   5.181
10161WAT      O30724   9.169   6.500   1.196
10161WAT     H130725   9.176   6.573   1.127
10161WAT     H230726   9.254   6.496   1.248
10162WAT      O30727   1.381   3.121   4.830
10162WAT     H130728   1.422   3.196   4.779
10162WAT     H230729   1.321   3.158   4.901
10163WAT      O30730   9.571   6.784   2.037
10163WAT     H130731   9.582   6.872   2.083
10163WAT     H230732   9.646   6.724   2.063
10164WAT      O30733   2.776   3.866   9.227
10164WAT     H130734   2.766   3.956   9.184
10164WAT     H230735   2.873   3.847   9.239
10165WAT      O30736   9.441   5.219   2.412
10165WAT     H130737   9.433   5.316   2.393
10165WAT     H230738   9.517   5.203   2.475
10166WAT      O30739   5.124   0.468   1.000
10166WAT     H130740   5.033   0.435   0.974
10166WAT     H230741   5.130   0.566   0.984
10167WAT      O30742   4.764   3.109   1.095
10167WAT     H130743   4.794   3.202   1.075
10167WAT     H230744   4.664   3.104   1.094
10168WAT      O30745   0.363   3.815   4.590
10168WAT     H130746   0.309   3.730   4.584
10168WAT     H230747   0.442   3.801   4.649
10169WAT      O30748   1.082   5.013   7.939
10169WAT     H130749   1.005   5.013   7.874
10169WAT     H230750   1.154   5.072   7.905
10170WAT      O30751   9.344   3.841   6.659
10170WAT     H130752   9.347   3.909   6.732
10170WAT     H230753   9.363   3.751   6.698
10171WAT      O30754   7.660   1.264   3.869
10171WAT     H130755   7.698   1.312   3.789
10171WAT     H230756   7.701   1.174   3.877
10172WAT      O30757   2.523   0.984   0.610
10172WAT     H130758   2.610   0.941   0.585
10172WAT     H230759   2.460   0.980   0.532
10173WAT      O30760   9.448   2.177   6.557
10173WAT     H130761   9.436   2.094   6.611
10173WAT     H230762   9.542   2.180   6.522
10174WAT      O30763   1.321   0.874   4.787
10174WAT     H130764   1.402   0.911   4.740
10174WAT     H230765   1.245   0.867   4.723
10175WAT      O30766   9.707   8.561   0.613
10175WAT     H130767   9.776   8.502   0.571
10175WAT     H230768   9.648   8.507   0.672
10176WAT      O30769   6.921   8.201   5.755
10176WAT     H130770   6.980   8.256   5.815
10176WAT     H230771   6.934   8.104   5.776
10177WAT      O30772   8.779   7.294   5.966
10177WAT     H130773   8.878   7.290   5.956
10177WAT     H230774   8.736   7.236   5.896
10178WAT      O30775   7.925   9.022   6.879
10178WAT     H130776   7.885   8.967   6.805
10178WAT     H230777   7.855   9.046   6.945
10179WAT      O30778   1.659   3.969   1.000
10179WAT     H130779   1.673   3.967   1.099
10179WAT     H230780   1.592   4.040   0.978
10180WAT      O30781   7.490   8.703   4.229
10180WAT     H130782   7.546   8.647   4.167
10180WAT     H230783   7.476   8.793   4.190
10181WAT      O30784   3.945   2.801   9.400
10181WAT     H130785   3.920   2.896   9.384
10181WAT     H230786   3.887   2.741   9.344
10182WAT      O30787   9.131   6.264   7.272
10182WAT     H130788   9.177   6.323   7.205
10182WAT     H230789   9.071   6.200   7.224
10183WAT      O30790   3.807   4.767   4.193
10183WAT     H130791   3.780   4.672   4.179
10183WAT     H230792   3.871   4.795   4.121
10184WAT      O30793   3.351   0.487   9.280
10184WAT     H130794   3.322   0.509   9.373
10184WAT     H230795   3.324   0.560   9.218
10185WAT      O30796   3.400   8.237   6.643
10185WAT     H130797   3.442   8.220   6.554
10185WAT     H230798   3.398   8.151   6.695
10186WAT      O30799   2.691   4.149   9.378
10186WAT     H130800   2.696   4.162   9.477
10186WAT     H230801   2.605   4.105   9.353
10187WAT      O30802   3.534   9.577   2.765
10187WAT     H130803   3.631   9.557   2.775
10187WAT     H230804   3.492   9.507   2.706
10188WAT      O30805   6.355   8.733   1.025
10188WAT     H130806   6.447   8.701   1.049
10188WAT     H230807   6.288   8.691   1.086
10189WAT      O30808   2.883   1.179   1.152
10189WAT     H130809   2.861   1.161   1.057
10189WAT     H230810   2.911   1.095   1.197
10190WAT      O30811   8.035   3.367   4.050
10190WAT     H130812   7.956   3.385   3.991
10190WAT     H230813   8.090   3.450   4.058
10191WAT      O30814   1.122   1.896   2.842
10191WAT     H130815   1.100   1.929   2.934
10191WAT     H230816   1.175   1.811   2.849
10192WAT      O30817   4.313   4.732   2.612
10192WAT     H130818   4.348   4.735   2.705
10192WAT     H230819   4.386   4.705   2.550
10193WAT      O30820   9.359   9.646   5.933
10193WAT     H130821   9.261   9.664   5.941
10193WAT     H230822   9.378   9.601   5.846
10194WAT      O30823   3.903   2.961   0.765
10194WAT     H130824   3.982   2.981   0.823
10194WAT     H230825   3.864   2.873   0.791
10195WAT      O30826   1.715   8.109   9.459
10195WAT     H130827   1.761   8.041   9.402
10195WAT     H230828   1.668   8.063   9.534
10196WAT      O30829   9.293   9.242   3.129
10196WAT     H130830   9.333   9.153   3.110
10196WAT     H230831   9.357   9.314   3.104
10197WAT      O30832   6.071   5.916   1.123
10197WAT     H130833   5.986   5.917   1.071
10197WAT     H230834   6.130   5.843   1.088
10198WAT      O30835   0.910   8.342   1.552
10198WAT     H130836   0.964   8.266   1.589
10198WAT     H230837   0.947   8.367   1.462
10199WAT      O30838   4.981   0.148   0.805
10199WAT     H130839   5.013   0.119   0.895
10199WAT     H230840   5.059   0.175   0.749
10200WAT      O30841   7.501   4.880   1.567
10200WAT     H130842   7.420   4.938   1.559
10200WAT     H230843   7.556   4.889   1.484
10201WAT      O30844   9.488   5.451   2.734
10201WAT     H130845   9.409   5.481   2.789
10201WAT     H230846   9.465   5.365   2.688
10202WAT      O30847   6.332   4.393   2.712
10202WAT     H130848   6.349   4.387   2.614
10202WAT     H230849   6.401   4.451   2.755
10203WAT      O30850   2.272   0.575   5.723
10203WAT     H130851   2.302   0.631   5.646
10203WAT     H230852   2.290   0.478   5.703
10204WAT      O30853   0.735   5.491   5.210
10204WAT     H130854   0.816   5.433   5.199
10204WAT     H230855   0.668   5.468   5.140
10205WAT      O30856   2.729   9.090   4.736
10205WAT     H130857   2.647   9.056   4.690
10205WAT     H230858   2.702   9.152   4.810
10206WAT      O30859   2.783   3.157   3.805
10206WAT     H130860   2.775   3.057   3.801
10206WAT     H230861   2.786   3.194   3.713
10207WAT      O30862   7.691   7.682   6.182
10207WAT     H130863   7.605   7.698   6.231
10207WAT     H230864   7.751   7.625   6.237
10208WAT      O30865   2.696   0.886   4.042
10208WAT     H130866   2.656   0.951   4.107
10208WAT     H230867   2.634   0.873   3.965
10209WAT      O30868   3.531   2.600   7.379
10209WAT     H130869   3.477   2.674   7.419
10209WAT     H230870   3.604   2.638   7.322
10210WAT      O30871   1.838   9.676   2.914
10210WAT     H130872   1.747   9.685   2.955
10210WAT     H230873   1.904   9.732   2.964
10211WAT      O30874   2.852   0.633   5.151
10211WAT     H130875   2.951   0.621   5.149
10211WAT     H230876   2.823   0.683   5.069
10212WAT      O30877   5.858   3.550   3.325
10212WAT     H130878   5.841   3.591   3.415
10212WAT     H230879   5.844   3.619   3.254
10213WAT      O30880   2.279   6.366   4.164
10213WAT     H130881   2.372   6.329   4.174
10213WAT     H230882   2.227   6.307   4.103
10214WAT      O30883   1.062   7.516   1.382
10214WAT     H130884   1.010   7.572   1.446
10214WAT     H230885   1.157   7.549   1.379
10215WAT      O30886   0.704   1.456   2.536
10215WAT     H130887   0.656   1.537   2.501
10215WAT     H230888   0.656   1.420   2.616
10216WAT      O30889   9.499   5.416   0.966
10216WAT     H130890   9.573   5.360   0.930
10216WAT     H230891   9.435   5.357   1.017
10217WAT      O30892   6.059   5.596   7.793
10217WAT     H130893   6.090   5.587   7.698
10217WAT     H230894   6.139   5.594   7.853
10218WAT      O30895   1.925   6.614   7.656
10218WAT     H130896   2.005   6.639   7.601
10218WAT     H230897   1.887   6.696   7.699
10219WAT      O30898   5.248   4.124   8.087
10219WAT     H130899   5.210   4.194   8.027
10219WAT     H230900   5.324   4.163   8.139
10220WAT      O30901   9.668   9.748   4.990
10220WAT     H130902   9.707   9.680   5.051
10220WAT     H230903   9.730   9.826   4.982
10221WAT      O30904   5.519   8.399   2.573
10221WAT     H130905   5.499   8.366   2.665
10221WAT     H230906   5.436   8.396   2.517
10222WAT      O30907   9.630   2.937   2.223
10222WAT     H130908   9.546   2.907   2.269
10222WAT     H230909   9.607   2.985   2.139
10223WAT      O30910   5.865   5.325   7.251
10223WAT     H130911   5.928   5.378   7.307
10223WAT     H230912   5.772   5.336   7.286
10224WAT      O30913   5.652   9.703   3.564
10224WAT     H130914   5.568   9.664   3.527
10224WAT     H230915   5.680   9.651   3.645
10225WAT      O30916   3.801   8.279   4.084
10225WAT     H130917   3.863   8.264   4.007
10225WAT     H230918   3.848   8.259   4.170
10226WAT      O30919   4.391   2.633   5.574
10226WAT     H130920   4.478   2.673   5.547
10226WAT     H230921   4.405   2.572   5.653
10227WAT      O30922   5.355   5.342   5.264
10227WAT     H130923   5.413   5.268   5.297
10227WAT     H230924   5.359   5.346   5.164
10228WAT      O30925   7.898   5.827   6.809
10228WAT     H130926   7.878   5.920   6.780
10228WAT     H230927   7.997   5.815   6.816
10229WAT      O30928   2.640   2.043   4.339
10229WAT     H130929   2.706   1.983   4.295
10229WAT     H230930   2.573   2.075   4.272
10230WAT      O30931   5.798   8.945   8.153
10230WAT     H130932   5.858   9.015   8.191
10230WAT     H230933   5.763   8.975   8.064
10231WAT      O30934   8.543   4.294   6.670
10231WAT     H130935   8.472   4.357   6.701
10231WAT     H230936   8.557   4.223   6.739
10232WAT      O30937   6.562   6.927   9.343
10232WAT     H130938   6.625   6.857   9.378
10232WAT     H230939   6.582   6.946   9.247
10233WAT      O30940   6.429   4.861   1.905
10233WAT     H130941   6.422   4.832   1.809
10233WAT     H230942   6.378   4.947   1.916
10234WAT      O30943   5.223   7.522   4.230
10234WAT     H130944   5.195   7.591   4.163
10234WAT     H230945   5.320   7.501   4.217
10235WAT      O30946   3.568   6.206   0.808
10235WAT     H130947   3.647   6.226   0.866
10235WAT     H230948   3.522   6.124   0.842
10236WAT      O30949   8.544   6.837   7.542
10236WAT     H130950   8.637   6.817   7.513
10236WAT     H230951   8.524   6.934   7.527
10237WAT      O30952   3.979   9.586   0.417
10237WAT     H130953   4.032   9.570   0.334
10237WAT     H230954   3.899   9.526   0.418
10238WAT      O30955   5.093   5.968   7.958
10238WAT     H130956   5.184   5.928   7.954
10238WAT     H230957   5.091   6.040   8.026
10239WAT      O30958   3.685   6.658   3.744
10239WAT     H130959   3.672   6.755   3.727
10239WAT     H230960   3.783   6.636   3.734
10240WAT      O30961   2.552   6.321   6.534
10240WAT     H130962   2.493   6.401   6.517
10240WAT     H230963   2.536   6.288   6.627
10241WAT      O30964   9.577   0.275   4.300
10241WAT     H130965   9.521   0.219   4.239
10241WAT     H230966   9.631   0.216   4.360
10242WAT      O30967   8.342   8.173   4.083
10242WAT     H130968   8.426   8.127   4.112
10242WAT     H230969   8.310   8.233   4.156
10243WAT      O30970   2.281   4.207   6.587
10243WAT     H130971   2.297   4.263   6.506
10243WAT     H230972   2.367   4.166   6.617
10244WAT      O30973   8.674   4.410   4.287
10244WAT     H130974   8.607   4.442   4.220
10244WAT     H230975   8.663   4.312   4.301
10245WAT      O30976   9.505   2.632   0.333
10245WAT     H130977   9.535   2.551   0.283
10245WAT     H230978   9.436   2.606   0.399
10246WAT      O30979   5.789   7.699   5.718
10246WAT     H130980   5.841   7.737   5.795
10246WAT     H230981   5.741   7.773   5.671
10247WAT      O30982   3.480   9.525   8.741
10247WAT     H130983   3.481   9.432   8.703
10247WAT     H230984   3.571   9.549   8.772
10248WAT      O30985   2.686   7.092   5.447
10248WAT     H130986   2.747   7.093   5.368
10248WAT     H230987   2.740   7.104   5.531
10249WAT      O30988   5.742   9.070   1.778
10249WAT     H130989   5.663   9.068   1.840
10249WAT     H230990   5.789   9.158   1.787
10250WAT      O30991   4.782   7.131   4.129
10250WAT     H130992   4.718   7.081   4.187
10250WAT     H230993   4.868   7.081   4.121
10251WAT      O30994   0.609   6.280   9.525
10251WAT     H130995   0.515   6.304   9.500
10251WAT     H230996   0.658   6.250   9.443
10252WAT      O30997   5.445   3.337   7.125
10252WAT     H130998   5.424   3.324   7.028
10252WAT     H230999   5.525   3.396   7.134
10253WAT      O31000   3.713   6.695   4.192
10253WAT     H131001   3.665   6.691   4.279
10253WAT     H231002   3.649   6.677   4.117
10254WAT      O31003   6.662   8.949   0.992
10254WAT     H131004   6.594   9.010   0.952
10254WAT     H231005   6.753   8.991   0.984
10255WAT      O31006   7.103   8.729   1.564
10255WAT     H131007   7.038   8.781   1.618
10255WAT     H231008   7.185   8.784   1.548
10256WAT      O31009   2.702   8.648   7.598
10256WAT     H131010   2.675   8.580   7.666
10256WAT     H231011   2.789   8.620   7.556
10257WAT      O31012   9.538   4.570   3.101
10257WAT     H131013   9.541   4.481   3.145
10257WAT     H231014   9.526   4.641   3.170
10258WAT      O31015   9.120   1.138   0.267
10258WAT     H131016   9.193   1.179   0.321
10258WAT     H231017   9.040   1.123   0.325
10259WAT      O31018   5.468   8.014   2.653
10259WAT     H131019   5.529   8.055   2.720
10259WAT     H231020   5.382   8.065   2.651
10260WAT      O31021   6.503   4.738   9.875
10260WAT     H131022   6.543   4.686   9.950
10260WAT     H231023   6.489   4.677   9.796
10261WAT      O31024   9.163   0.526   1.868
10261WAT     H131025   9.203   0.594   1.807
10261WAT     H231026   9.139   0.569   1.955
10262WAT      O31027   5.150   4.237   2.880
10262WAT     H131028   5.079   4.307   2.886
10262WAT     H231029   5.218   4.264   2.811
10263WAT      O31030   7.603   0.465   3.538
10263WAT     H131031   7.540   0.401   3.582
10263WAT     H231032   7.696   0.451   3.574
10264WAT      O31033   2.105   1.958   5.512
10264WAT     H131034   2.061   2.036   5.467
10264WAT     H231035   2.203   1.959   5.494
10265WAT      O31036   8.709   2.172   1.080
10265WAT     H131037   8.768   2.164   1.000
10265WAT     H231038   8.764   2.160   1.163
10266WAT      O31039   1.204   9.217   6.579
10266WAT     H131040   1.241   9.136   6.534
10266WAT     H231041   1.205   9.204   6.678
10267WAT      O31042   2.666   9.667   1.887
10267WAT     H131043   2.589   9.603   1.895
10267WAT     H231044   2.634   9.752   1.846
10268WAT      O31045   6.773   8.062   6.585
10268WAT     H131046   6.782   8.159   6.608
10268WAT     H231047   6.783   8.008   6.669
10269WAT      O31048   8.089   9.400   8.205
10269WAT     H131049   7.998   9.359   8.199
10269WAT     H231050   8.156   9.329   8.228
10270WAT      O31051   8.817   1.013   8.430
10270WAT     H131052   8.830   1.067   8.514
10270WAT     H231053   8.882   0.937   8.430
10271WAT      O31054   5.970   2.916   6.871
10271WAT     H131055   5.950   2.828   6.912
10271WAT     H231056   6.054   2.954   6.910
10272WAT      O31057   0.450   5.311   2.135
10272WAT     H131058   0.530   5.364   2.160
10272WAT     H231059   0.370   5.346   2.183
10273WAT      O31060   4.307   1.303   0.956
10273WAT     H131061   4.324   1.211   0.920
10273WAT     H231062   4.316   1.370   0.882
10274WAT      O31063   2.660   8.122   5.224
10274WAT     H131064   2.628   8.129   5.319
10274WAT     H231065   2.759   8.111   5.223
10275WAT      O31066   5.550   5.709   8.156
10275WAT     H131067   5.541   5.745   8.248
10275WAT     H231068   5.639   5.733   8.119
10276WAT      O31069   1.982   6.040   5.205
10276WAT     H131070   2.008   6.106   5.135
10276WAT     H231071   1.993   6.081   5.295
10277WAT      O31072   0.172   2.534   0.277
10277WAT     H131073   0.183   2.435   0.286
10277WAT     H231074   0.153   2.574   0.366
10278WAT      O31075   9.035   0.587   4.873
10278WAT     H131076   8.977   0.665   4.895
10278WAT     H231077   8.984   0.502   4.887
10279WAT      O31078   4.097   2.215   9.319
10279WAT     H131079   4.197   2.214   9.322
10279WAT     H231080   4.066   2.232   9.226
10280WAT      O31081   8.406   4.101   0.899
10280WAT     H131082   8.447   4.126   0.987
10280WAT     H231083   8.478   4.091   0.830
10281WAT      O31084   6.226   2.500   7.838
10281WAT     H131085   6.209   2.588   7.792
10281WAT     H231086   6.166   2.491   7.917
10282WAT      O31087   7.276   2.903   2.960
10282WAT     H131088   7.241   2.809   2.950
10282WAT     H231089   7.373   2.905   2.938
10283WAT      O31090   1.287   7.535   8.184
10283WAT     H131091   1.233   7.457   8.216
10283WAT     H231092   1.243   7.620   8.213
10284WAT      O31093   0.326   5.639   2.211
10284WAT     H131094   0.280   5.566   2.159
10284WAT     H231095   0.258   5.705   2.242
10285WAT      O31096   6.195   4.179   0.536
10285WAT     H131097   6.139   4.226   0.468
10285WAT     H231098   6.201   4.082   0.513
10286WAT      O31099   8.340   5.926   3.999
10286WAT     H131100   8.378   5.879   4.078
10286WAT     H231101   8.372   5.882   3.915
10287WAT      O31102   5.593   4.469   6.503
10287WAT     H131103   5.689   4.498   6.502
10287WAT     H231104   5.584   4.389   6.562
10288WAT      O31105   0.378   8.307   4.686
10288WAT     H131106   0.380   8.264   4.776
10288WAT     H231107   0.364   8.238   4.616
10289WAT      O31108   5.948   9.634   8.333
10289WAT     H131109   6.004   9.684   8.399
10289WAT     H231110   5.865   9.601   8.377
10290WAT      O31111   0.964   8.705   7.219
10290WAT     H131112   0.881   8.748   7.253
10290WAT     H231113   0.953   8.683   7.122
10291WAT      O31114   9.462   6.334   1.545
10291WAT     H131115   9.528   6.410   1.540
10291WAT     H231116   9.404   6.346   1.626
10292WAT      O31117   7.080   0.073   3.894
10292WAT     H131118   7.037  -0.000   3.842
10292WAT     H231119   7.018   0.103   3.967
10293WAT      O31120   8.369   4.812   7.171
10293WAT     H131121   8.328   4.865   7.097
10293WAT     H231122   8.361   4.714   7.150
10294WAT      O31123   3.128   5.322   2.378
10294WAT     H131124   3.208   5.369   2.415
10294WAT     H231125   3.125   5.333   2.279
10295WAT      O31126   5.056   9.206   6.498
10295WAT     H131127   5.155   9.219   6.499
10295WAT     H231128   5.029   9.161   6.413
10296WAT      O31129   8.815   9.304   5.048
10296WAT     H131130   8.851   9.380   5.103
10296WAT     H231131   8.770   9.238   5.107
10297WAT      O31132   1.399   8.110   0.896
10297WAT     H131133   1.386   8.015   0.868
10297WAT     H231134   1.432   8.164   0.819
10298WAT      O31135   0.466   5.765   8.486
10298WAT     H131136   0.367   5.766   8.493
10298WAT     H231137   0.498   5.852   8.450
10299WAT      O31138   9.750   8.071   1.143
10299WAT     H131139   9.791   8.141   1.201
10299WAT     H231140   9.703   8.003   1.199
10300WAT      O31141   8.733   3.847   8.216
10300WAT     H131142   8.783   3.839   8.130
10300WAT     H231143   8.672   3.769   8.227
10301WAT      O31144   9.257   5.302   3.390
10301WAT     H131145   9.301   5.381   3.431
10301WAT     H231146   9.298   5.218   3.425
10302WAT      O31147   8.210   6.664   6.645
10302WAT     H131148   8.219   6.728   6.721
10302WAT     H231149   8.122   6.617   6.652
10303WAT      O31150   7.671   9.755   7.443
10303WAT     H131151   7.596   9.773   7.380
10303WAT     H231152   7.755   9.741   7.392
10304WAT      O31153   6.076   8.517   5.714
10304WAT     H131154   6.003   8.583   5.701
10304WAT     H231155   6.143   8.527   5.640
10305WAT      O31156   8.462   5.771   1.032
10305WAT     H131157   8.498   5.687   1.073
10305WAT     H231158   8.378   5.750   0.982
10306WAT      O31159   4.743   8.313   3.814
10306WAT     H131160   4.781   8.266   3.735
10306WAT     H231161   4.645   8.329   3.800
10307WAT      O31162   8.802   7.052   0.955
10307WAT     H131163   8.757   6.964   0.945
10307WAT     H231164   8.865   7.049   1.033
10308WAT      O31165   9.031   9.012   5.620
10308WAT     H131166   9.072   9.091   5.575
10308WAT     H231167   8.933   9.026   5.629
10309WAT      O31168   2.396   1.683   3.938
10309WAT     H131169   2.387   1.782   3.939
10309WAT     H231170   2.492   1.659   3.918
10310WAT      O31171   2.080   3.475   9.419
10310WAT     H131172   2.055   3.388   9.461
10310WAT     H231173   2.178   3.491   9.433
10311WAT      O31174   8.903   1.093   0.435
10311WAT     H131175   8.835   1.019   0.431
10311WAT     H231176   8.926   1.110   0.531
10312WAT      O31177   1.729   0.711   6.735
10312WAT     H131178   1.782   0.639   6.690
10312WAT     H231179   1.778   0.745   6.814
10313WAT      O31180   1.731   1.855   1.324
10313WAT     H131181   1.671   1.780   1.351
10313WAT     H231182   1.760   1.842   1.229
10314WAT      O31183   4.540   9.611   8.293
10314WAT     H131184   4.612   9.660   8.342
10314WAT     H231185   4.458   9.667   8.289
10315WAT      O31186   1.598   0.688   2.731
10315WAT     H131187   1.545   0.605   2.746
10315WAT     H231188   1.693   0.673   2.759
10316WAT      O31189   3.130   9.690   4.481
10316WAT     H131190   3.184   9.695   4.565
10316WAT     H231191   3.150   9.769   4.423
10317WAT      O31192   8.234   7.412   5.445
10317WAT     H131193   8.307   7.367   5.395
10317WAT     H231194   8.259   7.417   5.542
10318WAT      O31195   4.014   5.676   5.579
10318WAT     H131196   3.955   5.610   5.532
10318WAT     H231197   4.070   5.724   5.512
10319WAT      O31198   5.834   4.372   8.745
10319WAT     H131199   5.741   4.368   8.782
10319WAT     H231200   5.831   4.351   8.647
10320WAT      O31201   8.278   0.293   1.223
10320WAT     H131202   8.233   0.208   1.248
10320WAT     H231203   8.307   0.341   1.305
10321WAT      O31204   6.577   9.577   6.326
10321WAT     H131205   6.664   9.554   6.282
10321WAT     H231206   6.521   9.630   6.263
10322WAT      O31207   9.271   7.661   1.276
10322WAT     H131208   9.367   7.688   1.270
10322WAT     H231209   9.240   7.670   1.371
10323WAT      O31210   9.756   1.922   5.789
10323WAT     H131211   9.667   1.907   5.834
10323WAT     H231212   9.775   1.846   5.727
10324WAT      O31213   7.201   1.991   1.263
10324WAT     H131214   7.159   1.911   1.220
10324WAT     H231215   7.162   2.074   1.224
10325WAT      O31216   2.242   8.533   3.508
10325WAT     H131217   2.309   8.574   3.447
10325WAT     H231218   2.251   8.573   3.599
10326WAT      O31219   2.230   2.867   7.684
10326WAT     H131220   2.200   2.833   7.774
10326WAT     H231221   2.251   2.965   7.691
10327WAT      O31222   6.527   9.490   0.562
10327WAT     H131223   6.528   9.392   0.582
10327WAT     H231224   6.465   9.536   0.625
10328WAT      O31225   6.270   3.779   9.665
10328WAT     H131226   6.237   3.838   9.738
10328WAT     H231227   6.352   3.818   9.624
10329WAT      O31228   4.255   5.209   9.332
10329WAT     H131229   4.271   5.307   9.329
10329WAT     H231230   4.220   5.183   9.422
10330WAT      O31231   8.363   0.373   1.471
10330WAT     H131232   8.349   0.286   1.519
10330WAT     H231233   8.333   0.449   1.528
10331WAT      O31234   6.485   0.912   0.877
10331WAT     H131235   6.570   0.942   0.835
10331WAT     H231236   6.500   0.895   0.975
10332WAT      O31237   9.740   0.858   1.230
10332WAT     H131238   9.676   0.904   1.292
10332WAT     H231239   9.834   0.882   1.254
10333WAT      O31240   5.142   4.495   1.009
10333WAT     H131241   5.198   4.570   1.046
10333WAT     H231242   5.061   4.484   1.066
10334WAT      O31243   2.439   9.387   9.849
10334WAT     H131244   2.443   9.442   9.932
10334WAT     H231245   2.361   9.416   9.793
10335WAT      O31246   6.730   0.101   3.693
10335WAT     H131247   6.645   0.094   3.641
10335WAT     H231248   6.759   0.196   3.696
10336WAT      O31249   4.153   7.192   5.643
10336WAT     H131250   4.212   7.257   5.690
10336WAT     H231251   4.115   7.235   5.561
10337WAT      O31252   2.162   1.963   8.482
10337WAT     H131253   2.178   2.061   8.472
10337WAT     H231254   2.064   1.947   8.492
10338WAT      O31255   5.950   6.469   4.727
10338WAT     H131256   5.909   6.530   4.794
10338WAT     H231257   5.884   6.447   4.655
10339WAT      O31258   2.455   3.169   5.333
10339WAT     H131259   2.370   3.183   5.282
10339WAT     H231260   2.488   3.256   5.369
10340WAT      O31261   3.962   5.468   0.168
10340WAT     H131262   3.876   5.442   0.124
10340WAT     H231263   3.971   5.568   0.168
10341WAT      O31264   0.024   6.339   2.636
10341WAT     H131265   0.080   6.422   2.640
10341WAT     H231266   0.084   6.259   2.623
10342WAT      O31267   3.276   7.058   5.836
10342WAT     H131268   3.197   7.081   5.779
10342WAT     H231269   3.326   6.982   5.794
10343WAT      O31270   8.864   3.934   1.619
10343WAT     H131271   8.962   3.938   1.597
10343WAT     H231272   8.829   4.027   1.633
10344WAT      O31273   7.986   4.740   7.485
10344WAT     H131274   8.020   4.772   7.397
10344WAT     H231275   7.916   4.670   7.470
10345WAT      O31276   4.385   6.173   7.704
10345WAT     H131277   4.359   6.112   7.629
10345WAT     H231278   4.472   6.217   7.683
10346WAT      O31279   0.101   0.917   6.933
10346WAT     H131280   0.067   0.913   6.839
10346WAT     H231281   0.169   0.989   6.941
10347WAT      O31282   8.949   3.841   9.475
10347WAT     H131283   9.027   3.778   9.474
10347WAT     H231284   8.981   3.934   9.457
10348WAT      O31285   3.655   0.565   8.352
10348WAT     H131286   3.605   0.640   8.393
10348WAT     H231287   3.591   0.504   8.303
10349WAT      O31288   7.986   6.223   8.067
10349WAT     H131289   8.046   6.194   7.992
10349WAT     H231290   8.041   6.252   8.145
10350WAT      O31291   3.217   0.397   8.156
10350WAT     H131292   3.243   0.462   8.227
10350WAT     H231293   3.250   0.306   8.180
10351WAT      O31294   4.938   0.467   8.888
10351WAT     H131295   4.922   0.381   8.937
10351WAT     H231296   4.870   0.534   8.915
10352WAT      O31297   3.521   4.890   4.449
10352WAT     H131298   3.518   4.869   4.546
10352WAT     H231299   3.604   4.851   4.409
10353WAT      O31300   2.976   9.102   9.072
10353WAT     H131301   2.938   9.184   9.028
10353WAT     H231302   2.951   9.102   9.169
10354WAT      O31303   2.361   4.122   1.985
10354WAT     H131304   2.346   4.221   1.990
10354WAT     H231305   2.275   4.075   2.006
10355WAT      O31306   4.722   9.152   2.155
10355WAT     H131307   4.713   9.216   2.079
10355WAT     H231308   4.710   9.200   2.242
10356WAT      O31309   7.717   1.564   6.427
10356WAT     H131310   7.643   1.631   6.425
10356WAT     H231311   7.698   1.495   6.497
10357WAT      O31312   4.411   3.863   3.855
10357WAT     H131313   4.427   3.870   3.954
10357WAT     H231314   4.488   3.904   3.806
10358WAT      O31315   5.018   0.377   5.564
10358WAT     H131316   5.113   0.371   5.533
10358WAT     H231317   4.956   0.358   5.488
10359WAT      O31318   5.528   5.406   6.696
10359WAT     H131319   5.575   5.379   6.780
10359WAT     H231320   5.430   5.418   6.715
10360WAT      O31321   6.961   5.514   6.108
10360WAT     H131322   6.979   5.599   6.059
10360WAT     H231323   6.865   5.488   6.094
10361WAT      O31324   1.894   5.189   7.822
10361WAT     H131325   1.907   5.265   7.885
10361WAT     H231326   1.931   5.213   7.732
10362WAT      O31327   8.103   9.455   4.278
10362WAT     H131328   8.156   9.370   4.281
10362WAT     H231329   8.094   9.486   4.184
10363WAT      O31330   8.261   9.270   1.178
10363WAT     H131331   8.270   9.185   1.126
10363WAT     H231332   8.169   9.306   1.167
10364WAT      O31333   0.743   6.957   3.186
10364WAT     H131334   0.709   6.864   3.204
10364WAT     H231335   0.802   6.956   3.106
10365WAT      O31336   5.016   1.146   1.442
10365WAT     H131337   5.101   1.197   1.455
10365WAT     H231338   4.984   1.111   1.530
10366WAT      O31339   9.650   5.641   9.650
10366WAT     H131340   9.726   5.616   9.590
10366WAT     H231341   9.572   5.670   9.595
10367WAT      O31342   2.333   0.915   3.497
10367WAT     H131343   2.412   0.859   3.473
10367WAT     H231344   2.344   0.951   3.590
10368WAT      O31345   4.972   7.641   2.440
10368WAT     H131346   5.021   7.728   2.438
10368WAT     H231347   5.032   7.568   2.405
10369WAT      O31348   8.049   3.566   0.801
10369WAT     H131349   8.136   3.601   0.766
10369WAT     H231350   8.005   3.511   0.730
10370WAT      O31351   6.111   9.675   6.071
10370WAT     H131352   6.147   9.708   5.983
10370WAT     H231353   6.042   9.606   6.054
10371WAT      O31354   3.319   0.066   7.620
10371WAT     H131355   3.251   0.019   7.565
10371WAT     H231356   3.409   0.057   7.578
10372WAT      O31357   4.831   3.120   1.410
10372WAT     H131358   4.811   3.046   1.476
10372WAT     H231359   4.768   3.113   1.333
10373WAT      O31360   7.722   0.317   0.582
10373WAT     H131361   7.623   0.326   0.592
10373WAT     H231362   7.742   0.230   0.538
10374WAT      O31363   2.579   6.455   0.631
10374WAT     H131364   2.605   6.358   0.632
10374WAT     H231365   2.480   6.463   0.630
10375WAT      O31366   0.790   4.582   3.136
10375WAT     H131367   0.850   4.540   3.204
10375WAT     H231368   0.736   4.511   3.090
10376WAT      O31369   2.811   3.355   9.395
10376WAT     H131370   2.889   3.398   9.349
10376WAT     H231371   2.774   3.418   9.463
10377WAT      O31372   7.563   6.714   6.136
10377WAT     H131373   7.505   6.670   6.066
10377WAT     H231374   7.601   6.798   6.099
10378WAT      O31375   4.203   6.108   4.118
10378WAT     H131376   4.155   6.111   4.206
10378WAT     H231377   4.182   6.021   4.072
10379WAT      O31378   9.231   4.614   8.923
10379WAT     H131379   9.250   4.700   8.876
10379WAT     H231380   9.266   4.618   9.017
10380WAT      O31381   4.553   8.689   3.500
10380WAT     H131382   4.518   8.684   3.594
10380WAT     H231383   4.559   8.784   3.471
10381WAT      O31384   6.624   4.037   3.018
10381WAT     H131385   6.558   3.990   2.961
10381WAT     H231386   6.577   4.082   3.095
10382WAT      O31387   7.627   6.234   5.400
10382WAT     H131388   7.688   6.313   5.399
10382WAT     H231389   7.666   6.161   5.457
10383WAT      O31390   2.979   9.752   2.216
10383WAT     H131391   3.036   9.814   2.161
10383WAT     H231392   3.037   9.685   2.261
10384WAT      O31393   8.953   7.996   1.447
10384WAT     H131394   8.926   7.914   1.398
10384WAT     H231395   8.995   7.971   1.534
10385WAT      O31396   0.450   8.796   2.820
10385WAT     H131397   0.512   8.775   2.896
10385WAT     H231398   0.484   8.877   2.771
10386WAT      O31399   8.140   3.542   7.221
10386WAT     H131400   8.227   3.536   7.269
10386WAT     H231401   8.067   3.508   7.281
10387WAT      O31402   3.847   7.465   6.540
10387WAT     H131403   3.863   7.367   6.535
10387WAT     H231404   3.882   7.500   6.627
10388WAT      O31405   8.127   4.346   3.421
10388WAT     H131406   8.207   4.297   3.456
10388WAT     H231407   8.140   4.366   3.324
10389WAT      O31408   6.785   4.982   2.905
10389WAT     H131409   6.821   4.895   2.873
10389WAT     H231410   6.686   4.986   2.889
10390WAT      O31411   0.776   5.978   8.419
10390WAT     H131412   0.834   5.943   8.346
10390WAT     H231413   0.828   5.979   8.505
10391WAT      O31414   5.859   6.242   9.014
10391WAT     H131415   5.861   6.198   9.103
10391WAT     H231416   5.941   6.217   8.962
10392WAT      O31417   7.571   4.576   7.578
10392WAT     H131418   7.598   4.586   7.674
10392WAT     H231419   7.547   4.665   7.541
10393WAT      O31420   6.218   0.999   3.060
10393WAT     H131421   6.210   1.098   3.050
10393WAT     H231422   6.309   0.976   3.096
10394WAT      O31423   4.903   1.887   4.007
10394WAT     H131424   4.912   1.853   3.913
10394WAT     H231425   4.980   1.947   4.028
10395WAT      O31426   1.936   4.255   7.895
10395WAT     H131427   1.955   4.259   7.797
10395WAT     H231428   1.849   4.207   7.910
10396WAT      O31429   1.917   5.398   9.018
10396WAT     H131430   1.850   5.451   8.966
10396WAT     H231431   1.939   5.446   9.103
10397WAT      O31432   5.940   5.895   2.422
10397WAT     H131433   5.989   5.829   2.364
10397WAT     H231434   5.887   5.956   2.364
10398WAT      O31435   7.278   2.838   3.379
10398WAT     H131436   7.217   2.762   3.400
10398WAT     H231437   7.259   2.914   3.443
10399WAT      O31438   3.533   8.298   2.916
10399WAT     H131439   3.612   8.237   2.918
10399WAT     H231440   3.560   8.385   2.873
10400WAT      O31441   9.869   0.765   8.427
10400WAT     H131442   9.933   0.789   8.355
10400WAT     H231443   9.804   0.696   8.394
10401WAT      O31444   4.477   6.142   0.806
10401WAT     H131445   4.385   6.181   0.814
10401WAT     H231446   4.526   6.189   0.733
10402WAT      O31447   4.836   2.044   2.289
10402WAT     H131448   4.752   2.050   2.343
10402WAT     H231449   4.889   1.965   2.319
10403WAT      O31450   4.248   3.767   9.513
10403WAT     H131451   4.250   3.863   9.543
10403WAT     H231452   4.271   3.708   9.590
10404WAT      O31453  -0.001   3.981   3.989
10404WAT     H131454   0.074   3.926   4.027
10404WAT     H231455   0.034   4.070   3.961
10405WAT      O31456   8.155   6.394   1.315
10405WAT     H131457   8.190   6.398   1.409
10405WAT     H231458   8.155   6.299   1.284
10406WAT      O31459   5.020   0.371   4.016
10406WAT     H131460   4.985   0.421   3.937
10406WAT     H231461   5.107   0.411   4.045
10407WAT      O31462   4.552   5.892   0.669
10407WAT     H131463   4.509   5.933   0.749
10407WAT     H231464   4.574   5.963   0.602
10408WAT      O31465   7.560   7.018   6.346
10408WAT     H131466   7.616   7.079   6.291
10408WAT     H231467   7.465   7.023   6.317
10409WAT      O31468   5.193   6.519   4.587
10409WAT     H131469   5.290   6.541   4.592
10409WAT     H231470   5.181   6.420   4.577
10410WAT      O31471   2.856   8.794   8.502
10410WAT     H131472   2.939   8.807   8.448
10410WAT     H231473   2.879   8.790   8.599
10411WAT      O31474   6.472   6.387   4.877
10411WAT     H131475   6.509   6.464   4.825
10411WAT     H231476   6.388   6.355   4.834
10412WAT      O31477   1.582   2.468   2.564
10412WAT     H131478   1.606   2.469   2.661
10412WAT     H231479   1.629   2.393   2.518
10413WAT      O31480   8.818   9.644   6.563
10413WAT     H131481   8.801   9.676   6.469
10413WAT     H231482   8.854   9.551   6.561
10414WAT      O31483   3.822   5.110   5.415
10414WAT     H131484   3.855   5.040   5.351
10414WAT     H231485   3.897   5.173   5.437
10415WAT      O31486   8.784   6.304   5.314
10415WAT     H131487   8.823   6.262   5.231
10415WAT     H231488   8.857   6.349   5.365
10416WAT      O31489   4.466   7.569   7.823
10416WAT     H131490   4.480   7.607   7.731
10416WAT     H231491   4.466   7.643   7.890
10417WAT      O31492   2.205   1.111   0.892
10417WAT     H131493   2.219   1.030   0.949
10417WAT     H231494   2.107   1.123   0.875
10418WAT      O31495   0.081   9.500   8.178
10418WAT     H131496   0.052   9.588   8.140
10418WAT     H231497   0.181   9.493   8.173
10419WAT      O31498   2.407   0.189   7.853
10419WAT     H131499   2.337   0.227   7.791
10419WAT     H231500   2.433   0.257   7.921
10420WAT      O31501   6.834   5.423   3.769
10420WAT     H131502   6.826   5.324   3.774
10420WAT     H231503   6.904   5.454   3.834
10421WAT      O31504   1.033   5.967   3.824
10421WAT     H131505   0.986   5.940   3.740
10421WAT     H231506   1.006   5.906   3.898
10422WAT      O31507   9.206   1.789   6.480
10422WAT     H131508   9.180   1.851   6.554
10422WAT     H231509   9.129   1.729   6.458
10423WAT      O31510   1.238   9.552   1.872
10423WAT     H131511   1.199   9.460   1.872
10423WAT     H231512   1.275   9.573   1.781
10424WAT      O31513   3.574   9.418   4.525
10424WAT     H131514   3.505   9.350   4.501
10424WAT     H231515   3.532   9.492   4.577
10425WAT      O31516   0.407   0.924   0.566
10425WAT     H131517   0.404   0.954   0.471
10425WAT     H231518   0.395   1.002   0.627
10426WAT      O31519   3.870   0.555   1.540
10426WAT     H131520   3.960   0.589   1.566
10426WAT     H231521   3.860   0.559   1.440
10427WAT      O31522   4.611   5.503   3.562
10427WAT     H131523   4.653   5.508   3.472
10427WAT     H231524   4.650   5.573   3.621
10428WAT      O31525   6.934   4.057   5.768
10428WAT     H131526   6.953   4.065   5.670
10428WAT     H231527   6.857   3.995   5.783
10429WAT      O31528   0.868   2.429   5.692
10429WAT     H131529   0.813   2.508   5.720
10429WAT     H231530   0.808   2.357   5.658
10430WAT      O31531   5.600   5.056   9.551
10430WAT     H131532   5.635   5.034   9.459
10430WAT     H231533   5.534   5.130   9.544
10431WAT      O31534   7.451   0.011   3.733
10431WAT     H131535   7.375  -0.046   3.701
10431WAT     H231536   7.533  -0.009   3.679
10432WAT      O31537   6.775   7.651   3.209
10432WAT     H131538   6.744   7.693   3.123
10432WAT     H231539   6.766   7.717   3.283
10433WAT      O31540   1.285   7.179   7.499
10433WAT     H131541   1.234   7.265   7.492
10433WAT     H231542   1.270   7.139   7.589
10434WAT      O31543   9.591   8.684   9.654
10434WAT     H131544   9.525   8.632   9.708
10434WAT     H231545   9.554   8.775   9.635
10435WAT      O31546   3.576   2.219   1.115
10435WAT     H131547   3.554   2.295   1.176
10435WAT     H231548   3.626   2.149   1.165
10436WAT      O31549   7.610   9.329   3.202
10436WAT     H131550   7.659   9.245   3.178
10436WAT     H231551   7.586   9.326   3.299
10437WAT      O31552   1.514   7.135   9.571
10437WAT     H131553   1.567   7.218   9.557
10437WAT     H231554   1.428   7.158   9.616
10438WAT      O31555   7.214   8.433   0.278
10438WAT     H131556   7.293   8.416   0.337
10438WAT     H231557   7.199   8.354   0.219
10439WAT      O31558   3.221   1.069   3.264
10439WAT     H131559   3.255   0.978   3.288
10439WAT     H231560   3.205   1.074   3.166
10440WAT      O31561   3.129   8.782   2.781
10440WAT     H131562   3.206   8.720   2.797
10440WAT     H231563   3.144   8.833   2.696
10441WAT      O31564   4.159   2.625   6.330
10441WAT     H131565   4.176   2.533   6.366
10441WAT     H231566   4.068   2.655   6.358
10442WAT      O31567   1.770   8.038   5.871
10442WAT     H131568   1.831   7.963   5.847
10442WAT     H231569   1.813   8.125   5.846
10443WAT      O31570   6.602   8.914   6.373
10443WAT     H131571   6.616   8.986   6.441
10443WAT     H231572   6.506   8.915   6.343
10444WAT      O31573   9.484   5.986   6.780
10444WAT     H131574   9.435   5.900   6.763
10444WAT     H231575   9.574   5.983   6.737
10445WAT      O31576   1.871   9.310   3.515
10445WAT     H131577   1.900   9.216   3.498
10445WAT     H231578   1.951   9.366   3.536
10446WAT      O31579   5.407   3.622   0.733
10446WAT     H131580   5.443   3.716   0.728
10446WAT     H231581   5.433   3.573   0.650
10447WAT      O31582   2.204   8.404   0.571
10447WAT     H131583   2.259   8.403   0.655
10447WAT     H231584   2.235   8.330   0.511
10448WAT      O31585   6.107   8.273   0.521
10448WAT     H131586   6.199   8.304   0.545
10448WAT     H231587   6.061   8.344   0.469
10449WAT      O31588   9.091   1.959   4.000
10449WAT     H131589   9.168   1.902   4.029
10449WAT     H231590   9.125   2.046   3.964
10450WAT      O31591   6.746   7.907   3.357
10450WAT     H131592   6.811   7.915   3.432
10450WAT     H231593   6.757   7.983   3.294
10451WAT      O31594   2.399   5.144   6.248
10451WAT     H131595   2.304   5.120   6.227
10451WAT     H231596   2.402   5.237   6.286
10452WAT      O31597   6.271   0.036   1.071
10452WAT     H131598   6.179   0.006   1.049
10452WAT     H231599   6.272   0.136   1.082
10453WAT      O31600   9.623   6.194   4.720
10453WAT     H131601   9.687   6.118   4.732
10453WAT     H231602   9.662   6.277   4.760
10454WAT      O31603   9.889   6.322   7.166
10454WAT     H131604   9.822   6.249   7.178
10454WAT     H231605   9.854   6.390   7.102
10455WAT      O31606   8.085   1.697   2.462
10455WAT     H131607   8.074   1.796   2.458
10455WAT     H231608   8.049   1.662   2.549
10456WAT      O31609   9.515   5.922   0.598
10456WAT     H131610   9.415   5.916   0.609
10456WAT     H231611   9.559   5.856   0.659
10457WAT      O31612   8.953   8.196   6.019
10457WAT     H131613   9.045   8.155   6.017
10457WAT     H231614   8.952   8.271   6.085
10458WAT      O31615   8.074   2.473   8.647
10458WAT     H131616   8.077   2.387   8.699
10458WAT     H231617   8.164   2.491   8.607
10459WAT      O31618   1.392   3.087   2.642
10459WAT     H131619   1.451   3.153   2.689
10459WAT     H231620   1.413   2.994   2.674
10460WAT      O31621   9.816   3.649   1.745
10460WAT     H131622   9.872   3.655   1.662
10460WAT     H231623   9.845   3.719   1.810
10461WAT      O31624   2.878   7.250   8.178
10461WAT     H131625   2.932   7.166   8.189
10461WAT     H231626   2.781   7.227   8.178
10462WAT      O31627   0.749   3.317   1.758
10462WAT     H131628   0.743   3.417   1.749
10462WAT     H231629   0.844   3.288   1.744
10463WAT      O31630   6.449   6.721   2.995
10463WAT     H131631   6.505   6.751   3.072
10463WAT     H231632   6.365   6.681   3.028
10464WAT      O31633   5.603   8.918   4.368
10464WAT     H131634   5.693   8.882   4.343
10464WAT     H231635   5.561   8.857   4.435
10465WAT      O31636   8.049   8.341   0.353
10465WAT     H131637   8.073   8.353   0.257
10465WAT     H231638   8.091   8.414   0.407
10466WAT      O31639   3.554   0.441   3.703
10466WAT     H131640   3.514   0.365   3.754
10466WAT     H231641   3.507   0.526   3.728
10467WAT      O31642   2.569   6.894   6.984
10467WAT     H131643   2.503   6.832   7.027
10467WAT     H231644   2.535   6.988   6.990
10468WAT      O31645   1.507   3.660   4.545
10468WAT     H131646   1.537   3.686   4.453
10468WAT     H231647   1.585   3.626   4.597
10469WAT      O31648   0.840   8.462   6.821
10469WAT     H131649   0.910   8.518   6.865
10469WAT     H231650   0.883   8.382   6.780
10470WAT      O31651   9.573   6.747   3.135
10470WAT     H131652   9.573   6.788   3.044
10470WAT     H231653   9.609   6.654   3.131
10471WAT      O31654   4.047   0.425   9.204
10471WAT     H131655   4.044   0.506   9.264
10471WAT     H231656   4.137   0.382   9.213
10472WAT      O31657   2.455   4.222   0.150
10472WAT     H131658   2.367   4.267   0.167
10472WAT     H231659   2.445   4.124   0.170
10473WAT      O31660   6.840   2.935   1.041
10473WAT     H131661   6.906   2.935   1.117
10473WAT     H231662   6.776   3.010   1.053
10474WAT      O31663   4.192   5.355   0.107
10474WAT     H131664   4.185   5.269   0.056
10474WAT     H231665   4.103   5.400   0.110
10475WAT      O31666   7.142   8.475   5.107
10475WAT     H131667   7.096   8.561   5.088
10475WAT     H231668   7.192   8.483   5.193
10476WAT      O31669   5.956   0.670   2.859
10476WAT     H131670   5.953   0.625   2.770
10476WAT     H231671   5.883   0.739   2.863
10477WAT      O31672   3.049   1.263   5.941
10477WAT     H131673   3.084   1.209   5.865
10477WAT     H231674   3.123   1.278   6.008
10478WAT      O31675   1.595   7.380   2.775
10478WAT     H131676   1.540   7.298   2.789
10478WAT     H231677   1.685   7.354   2.741
10479WAT      O31678   6.294   8.413   6.753
10479WAT     H131679   6.365   8.345   6.770
10479WAT     H231680   6.334   8.505   6.759
10480WAT      O31681   1.687   2.346   5.148
10480WAT     H131682   1.674   2.247   5.141
10480WAT     H231683   1.781   2.365   5.174
10481WAT      O31684   7.939   3.047   3.572
10481WAT     H131685   7.964   2.958   3.608
10481WAT     H231686   7.853   3.040   3.521
10482WAT      O31687   3.349   0.390   7.419
10482WAT     H131688   3.294   0.452   7.363
10482WAT     H231689   3.357   0.302   7.372
10483WAT      O31690   4.717   7.514   2.366
10483WAT     H131691   4.799   7.553   2.409
10483WAT     H231692   4.737   7.490   2.271
10484WAT      O31693   8.998   0.271   7.642
10484WAT     H131694   9.018   0.183   7.685
10484WAT     H231695   8.911   0.307   7.677
10485WAT      O31696   0.485   7.261   2.497
10485WAT     H131697   0.431   7.188   2.456
10485WAT     H231698   0.424   7.336   2.524
10486WAT      O31699   0.943   7.293   3.915
10486WAT     H131700   0.915   7.314   4.009
10486WAT     H231701   0.986   7.373   3.875
10487WAT      O31702   1.825   7.762   3.587
10487WAT     H131703   1.803   7.858   3.571
10487WAT     H231704   1.857   7.720   3.502
10488WAT      O31705   7.339   1.286   0.441
10488WAT     H131706   7.408   1.345   0.399
10488WAT     H231707   7.385   1.217   0.498
10489WAT      O31708   9.286   6.775   0.041
10489WAT     H131709   9.319   6.698   0.096
10489WAT     H231710   9.190   6.792   0.061
10490WAT      O31711   1.675   8.451   9.787
10490WAT     H131712   1.739   8.510   9.835
10490WAT     H231713   1.718   8.416   9.704
10491WAT      O31714   4.173   3.040   4.583
10491WAT     H131715   4.211   3.130   4.562
10491WAT     H231716   4.246   2.972   4.579
10492WAT      O31717   3.389   6.829   7.747
10492WAT     H131718   3.474   6.869   7.714
10492WAT     H231719   3.351   6.768   7.677
10493WAT      O31720   6.402   5.960   4.085
10493WAT     H131721   6.329   5.893   4.074
10493WAT     H231722   6.491   5.915   4.070
10494WAT      O31723   6.535   2.399   1.856
10494WAT     H131724   6.567   2.491   1.878
10494WAT     H231725   6.608   2.349   1.810
10495WAT      O31726   0.154   9.282   6.068
10495WAT     H131727   0.060   9.300   6.040
10495WAT     H231728   0.199   9.225   5.999
10496WAT      O31729   0.211   4.051   3.740
10496WAT     H131730   0.216   4.135   3.793
10496WAT     H231731   0.249   3.975   3.794
10497WAT      O31732   3.430   3.927   5.485
10497WAT     H131733   3.493   3.951   5.412
10497WAT     H231734   3.349   3.882   5.446
10498WAT      O31735   0.807   4.707   8.933
10498WAT     H131736   0.769   4.791   8.972
10498WAT     H231737   0.885   4.677   8.989
10499WAT      O31738   3.843   9.299   6.868
10499WAT     H131739   3.859   9.383   6.817
10499WAT     H231740   3.906   9.228   6.837
10500WAT      O31741   8.433   8.007   2.414
10500WAT     H131742   8.411   8.020   2.511
10500WAT     H231743   8.433   8.096   2.368
10501WAT      O31744   1.450   1.190   5.404
10501WAT     H131745   1.501   1.196   5.318
10501WAT     H231746   1.513   1.185   5.481
10502WAT      O31747   8.468   6.693   2.980
10502WAT     H131748   8.486   6.790   2.996
10502WAT     H231749   8.386   6.666   3.030
10503WAT      O31750   6.680   2.401   8.676
10503WAT     H131751   6.634   2.313   8.691
10503WAT     H231752   6.724   2.430   8.761
10504WAT      O31753   6.951   0.433   1.213
10504WAT     H131754   7.047   0.423   1.236
10504WAT     H231755   6.941   0.501   1.141
10505WAT      O31756   0.047   3.302   4.680
10505WAT     H131757  -0.037   3.329   4.727
10505WAT     H231758   0.031   3.298   4.582
10506WAT      O31759   8.047   7.731   6.164
10506WAT     H131760   8.097   7.653   6.126
10506WAT     H231761   7.949   7.713   6.159
10507WAT      O31762   6.702   6.731   9.465
10507WAT     H131763   6.748   6.680   9.537
10507WAT     H231764   6.730   6.695   9.376
10508WAT      O31765   3.229   5.233   8.518
10508WAT     H131766   3.250   5.272   8.428
10508WAT     H231767   3.143   5.272   8.552
10509WAT      O31768   7.017   8.240   4.616
10509WAT     H131769   6.994   8.165   4.554
10509WAT     H231770   7.099   8.216   4.668
10510WAT      O31771   5.497   3.315   0.129
10510WAT     H131772   5.429   3.293   0.059
10510WAT     H231773   5.517   3.413   0.126
10511WAT      O31774   4.905   4.151   0.327
10511WAT     H131775   4.901   4.051   0.338
10511WAT     H231776   4.846   4.194   0.395
10512WAT      O31777   0.708   4.950   6.935
10512WAT     H131778   0.797   4.929   6.974
10512WAT     H231779   0.718   5.018   6.862
10513WAT      O31780   1.354   9.185   8.121
10513WAT     H131781   1.288   9.143   8.059
10513WAT     H231782   1.402   9.113   8.172
10514WAT      O31783   8.041   1.766   0.929
10514WAT     H131784   8.089   1.850   0.955
10514WAT     H231785   8.084   1.687   0.973
10515WAT      O31786   0.913   5.039   3.378
10515WAT     H131787   0.940   5.135   3.373
10515WAT     H231788   0.904   5.012   3.474
10516WAT      O31789   3.683   8.058   2.319
10516WAT     H131790   3.620   8.077   2.244
10516WAT     H231791   3.730   7.971   2.302
10517WAT      O31792   1.730   1.387   3.027
10517WAT     H131793   1.705   1.431   3.114
10517WAT     H231794   1.707   1.290   3.031
10518WAT      O31795   4.126   6.301   3.911
10518WAT     H131796   4.043   6.300   3.967
10518WAT     H231797   4.194   6.240   3.951
10519WAT      O31798   7.751   2.258   3.218
10519WAT     H131799   7.679   2.204   3.173
10519WAT     H231800   7.807   2.198   3.275
10520WAT      O31801   9.632   2.829   6.103
10520WAT     H131802   9.538   2.854   6.127
10520WAT     H231803   9.696   2.885   6.155
10521WAT      O31804   9.851   1.381   6.589
10521WAT     H131805   9.790   1.306   6.616
10521WAT     H231806   9.823   1.465   6.636
10522WAT      O31807   5.153   0.778   7.259
10522WAT     H131808   5.145   0.862   7.205
10522WAT     H231809   5.148   0.699   7.198
10523WAT      O31810   0.066   2.821   2.455
10523WAT     H131811   0.078   2.916   2.428
10523WAT     H231812   0.118   2.762   2.394
10524WAT      O31813   2.262   1.732   0.596
10524WAT     H131814   2.355   1.768   0.593
10524WAT     H231815   2.235   1.715   0.691
10525WAT      O31816   9.672   8.119   8.177
10525WAT     H131817   9.634   8.115   8.269
10525WAT     H231818   9.672   8.027   8.138
10526WAT      O31819   6.983   9.277   5.893
10526WAT     H131820   6.993   9.226   5.978
10526WAT     H231821   6.911   9.346   5.904
10527WAT      O31822   1.397   4.090   9.127
10527WAT     H131823   1.411   4.117   9.222
10527WAT     H231824   1.342   4.158   9.080
10528WAT      O31825   5.864   1.278   3.983
10528WAT     H131826   5.925   1.269   3.904
10528WAT     H231827   5.833   1.373   3.990
10529WAT      O31828   9.559   5.843   8.170
10529WAT     H131829   9.547   5.758   8.120
10529WAT     H231830   9.553   5.920   8.107
10530WAT      O31831   5.721   2.547   4.237
10530WAT     H131832   5.642   2.597   4.272
10530WAT     H231833   5.693   2.454   4.214
10531WAT      O31834   6.022   3.469   6.358
10531WAT     H131835   6.082   3.405   6.404
10531WAT     H231836   6.063   3.560   6.358
10532WAT      O31837   4.376   6.240   8.899
10532WAT     H131838   4.404   6.179   8.973
10532WAT     H231839   4.442   6.234   8.824
10533WAT      O31840   6.917   1.410   3.099
10533WAT     H131841   6.911   1.394   3.000
10533WAT     H231842   6.926   1.323   3.147
10534WAT      O31843   3.395   5.220   4.919
10534WAT     H131844   3.463   5.179   4.859
10534WAT     H231845   3.417   5.317   4.935
10535WAT      O31846   2.039   5.434   1.543
10535WAT     H131847   2.138   5.448   1.539
10535WAT     H231848   2.000   5.491   1.615
10536WAT      O31849   0.403   1.429   7.213
10536WAT     H131850   0.377   1.397   7.122
10536WAT     H231851   0.470   1.366   7.252
10537WAT      O31852   9.647   6.896   6.862
10537WAT     H131853   9.577   6.825   6.855
10537WAT     H231854   9.666   6.915   6.958
10538WAT      O31855   6.398   6.912   0.068
10538WAT     H131856   6.392   6.869  -0.022
10538WAT     H231857   6.310   6.902   0.115
10539WAT      O31858   4.607   1.500   0.224
10539WAT     H131859   4.525   1.551   0.199
10539WAT     H231860   4.584   1.403   0.232
10540WAT      O31861   6.487   0.611   7.348
10540WAT     H131862   6.579   0.575   7.334
10540WAT     H231863   6.485   0.667   7.431
10541WAT      O31864   9.759   5.688   4.709
10541WAT     H131865   9.721   5.727   4.793
10541WAT     H231866   9.746   5.589   4.709
10542WAT      O31867   3.304   0.781   6.716
10542WAT     H131868   3.260   0.861   6.675
10542WAT     H231869   3.363   0.737   6.649
10543WAT      O31870   2.233   6.175   1.791
10543WAT     H131871   2.315   6.185   1.735
10543WAT     H231872   2.250   6.215   1.881
10544WAT      O31873   5.875   2.053   8.031
10544WAT     H131874   5.955   2.022   7.979
10544WAT     H231875   5.795   2.001   8.003
10545WAT      O31876   4.354   7.459   4.810
10545WAT     H131877   4.259   7.484   4.792
10545WAT     H231878   4.406   7.541   4.834
10546WAT      O31879   1.294   6.115   4.414
10546WAT     H131880   1.280   6.110   4.315
10546WAT     H231881   1.351   6.039   4.444
10547WAT      O31882   9.457   5.112   3.742
10547WAT     H131883   9.396   5.175   3.791
10547WAT     H231884   9.471   5.030   3.797
10548WAT      O31885   1.446   1.789   3.994
10548WAT     H131886   1.491   1.700   3.992
10548WAT     H231887   1.511   1.861   3.968
10549WAT      O31888   3.014   6.678   7.206
10549WAT     H131889   2.922   6.705   7.234
10549WAT     H231890   3.063   6.638   7.284
10550WAT      O31891   9.271   8.700   6.182
10550WAT     H131892   9.364   8.684   6.149
10550WAT     H231893   9.235   8.785   6.142
10551WAT      O31894   4.884   6.245   9.645
10551WAT     H131895   4.819   6.319   9.659
10551WAT     H231896   4.976   6.276   9.671
10552WAT      O31897   9.333   2.173   9.038
10552WAT     H131898   9.358   2.249   8.979
10552WAT     H231899   9.375   2.185   9.128
10553WAT      O31900   7.370   0.502   9.095
10553WAT     H131901   7.359   0.587   9.043
10553WAT     H231902   7.450   0.510   9.156
10554WAT      O31903   5.359   7.299   7.406
10554WAT     H131904   5.295   7.223   7.394
10554WAT     H231905   5.321   7.381   7.362
10555WAT      O31906   8.273   7.796   5.344
10555WAT     H131907   8.294   7.882   5.390
10555WAT     H231908   8.323   7.721   5.389
10556WAT      O31909   6.343   2.699   8.540
10556WAT     H131910   6.284   2.618   8.536
10556WAT     H231911   6.309   2.768   8.476
10557WAT      O31912   2.146   2.063   2.905
10557WAT     H131913   2.088   2.076   2.825
10557WAT     H231914   2.209   1.987   2.889
10558WAT      O31915   1.865   2.171   4.054
10558WAT     H131916   1.882   2.230   3.975
10558WAT     H231917   1.914   2.206   4.133
10559WAT      O31918   0.717   8.291   5.021
10559WAT     H131919   0.777   8.210   5.018
10559WAT     H231920   0.711   8.331   4.930
10560WAT      O31921   6.256   1.502   0.233
10560WAT     H131922   6.185   1.466   0.294
10560WAT     H231923   6.339   1.521   0.286
10561WAT      O31924   4.325   2.087   6.045
10561WAT     H131925   4.228   2.075   6.024
10561WAT     H231926   4.375   2.003   6.021
10562WAT      O31927   4.381   9.069   2.968
10562WAT     H131928   4.456   9.015   2.929
10562WAT     H231929   4.303   9.009   2.984
10563WAT      O31930   7.107   9.036   3.712
10563WAT     H131931   7.085   9.133   3.697
10563WAT     H231932   7.038   8.979   3.668
10564WAT      O31933   8.119   2.874   2.314
10564WAT     H131934   8.200   2.932   2.325
10564WAT     H231935   8.037   2.930   2.320
10565WAT      O31936   2.191   6.022   5.009
10565WAT     H131937   2.280   6.062   4.986
10565WAT     H231938   2.169   6.041   5.105
10566WAT      O31939   5.307   2.476   4.346
10566WAT     H131940   5.372   2.537   4.391
10566WAT     H231941   5.314   2.487   4.246
10567WAT      O31942   3.359   3.994   9.627
10567WAT     H131943   3.393   4.026   9.715
10567WAT     H231944   3.353   4.072   9.564
10568WAT      O31945   7.338   7.824   3.397
10568WAT     H131946   7.413   7.777   3.351
10568WAT     H231947   7.321   7.912   3.352
10569WAT      O31948   9.483   0.266   0.661
10569WAT     H131949   9.547   0.322   0.713
10569WAT     H231950   9.533   0.210   0.594
10570WAT      O31951   9.154   2.213   3.934
10570WAT     H131952   9.091   2.219   3.856
10570WAT     H231953   9.247   2.200   3.901
10571WAT      O31954   2.063   3.579   7.559
10571WAT     H131955   2.136   3.552   7.495
10571WAT     H231956   2.081   3.539   7.649
10572WAT      O31957   6.126   3.061   9.417
10572WAT     H131958   6.173   3.122   9.480
10572WAT     H231959   6.187   2.986   9.392
10573WAT      O31960   6.168   6.577   4.364
10573WAT     H131961   6.240   6.523   4.407
10573WAT     H231962   6.207   6.660   4.324
10574WAT      O31963   0.291   7.833   9.624
10574WAT     H131964   0.269   7.930   9.627
10574WAT     H231965   0.210   7.779   9.646
10575WAT      O31966   4.777   3.904   0.645
10575WAT     H131967   4.827   3.834   0.695
10575WAT     H231968   4.811   3.994   0.673
10576WAT      O31969   6.908   0.896   3.970
10576WAT     H131970   6.917   0.796   3.968
10576WAT     H231971   6.963   0.936   3.897
10577WAT      O31972   8.580   9.194   3.298
10577WAT     H131973   8.506   9.182   3.232
10577WAT     H231974   8.667   9.167   3.256
10578WAT      O31975   5.146   0.664   8.801
10578WAT     H131976   5.059   0.616   8.787
10578WAT     H231977   5.172   0.659   8.898
10579WAT      O31978   6.560   0.006   3.913
10579WAT     H131979   6.627   0.025   3.840
10579WAT     H231980   6.608  -0.006   4.000
10580WAT      O31981   7.123   1.981   1.528
10580WAT     H131982   7.186   2.039   1.579
10580WAT     H231983   7.162   1.958   1.439
10581WAT      O31984   0.373   7.219   3.103
10581WAT     H131985   0.295   7.171   3.144
10581WAT     H231986   0.374   7.202   3.005
10582WAT      O31987   5.098   0.309   5.235
10582WAT     H131988   5.167   0.300   5.308
10582WAT     H231989   5.059   0.219   5.216
10583WAT      O31990   0.663   3.072   5.653
10583WAT     H131991   0.691   3.026   5.569
10583WAT     H231992   0.607   3.011   5.708
10584WAT      O31993   6.831   5.404   3.081
10584WAT     H131994   6.781   5.477   3.034
10584WAT     H231995   6.779   5.319   3.075
10585WAT      O31996   0.944   2.252   2.653
10585WAT     H131997   1.009   2.176   2.646
10585WAT     H231998   0.882   2.235   2.730
10586WAT      O31999   4.899   2.027   6.922
10586WAT     H132000   4.851   2.015   7.009
10586WAT     H232001   4.993   1.994   6.931
10587WAT      O32002   9.267   3.109   7.982
10587WAT     H132003   9.263   3.083   7.885
10587WAT     H232004   9.299   3.032   8.036
10588WAT      O32005   4.653   1.022   2.984
10588WAT     H132006   4.557   0.994   2.983
10588WAT     H232007   4.693   1.003   3.074
10589WAT      O32008   4.945   3.774   6.504
10589WAT     H132009   5.007   3.853   6.501
10589WAT     H232010   4.911   3.762   6.597
10590WAT      O32011   2.949   8.582   0.027
10590WAT     H132012   2.959   8.584  -0.072
10590WAT     H232013   2.974   8.671   0.065
10591WAT      O32014   0.391   3.937   4.337
10591WAT     H132015   0.389   3.892   4.426
10591WAT     H232016   0.375   4.035   4.349
10592WAT      O32017   8.845   4.892   6.877
10592WAT     H132018   8.923   4.833   6.901
10592WAT     H232019   8.832   4.891   6.778
10593WAT      O32020   5.807   3.656   4.032
10593WAT     H132021   5.886   3.653   3.970
10593WAT     H232022   5.827   3.718   4.108
10594WAT      O32023   0.645   7.747   8.519
10594WAT     H132024   0.728   7.782   8.476
10594WAT     H232025   0.578   7.723   8.448
10595WAT      O32026   5.254   3.576   5.190
10595WAT     H132027   5.225   3.637   5.263
10595WAT     H232028   5.347   3.544   5.209
10596WAT      O32029   3.841   8.285   5.149
10596WAT     H132030   3.870   8.360   5.209
10596WAT     H232031   3.780   8.321   5.078
10597WAT      O32032   1.020   3.808   9.033
10597WAT     H132033   0.922   3.791   9.024
10597WAT     H232034   1.039   3.904   9.016
10598WAT      O32035   2.251   4.711   2.429
10598WAT     H132036   2.255   4.611   2.441
10598WAT     H232037   2.314   4.754   2.493
10599WAT      O32038   8.933   1.985   4.701
10599WAT     H132039   8.906   1.983   4.797
10599WAT     H232040   8.861   2.029   4.647
10600WAT      O32041   3.047   7.315   1.381
10600WAT     H132042   3.016   7.220   1.391
10600WAT     H232043   2.984   7.375   1.429
10601WAT      O32044   3.464   6.744   5.263
10601WAT     H132045   3.392   6.811   5.283
10601WAT     H232046   3.432   6.652   5.287
10602WAT      O32047   3.010   0.597   0.365
10602WAT     H132048   2.957   0.514   0.387
10602WAT     H232049   2.947   0.669   0.336
10603WAT      O32050   1.503   4.330   4.724
10603WAT     H132051   1.588   4.318   4.672
10603WAT     H232052   1.435   4.376   4.667
10604WAT      O32053   3.924   8.962   7.691
10604WAT     H132054   3.992   8.895   7.720
10604WAT     H232055   3.851   8.967   7.759
10605WAT      O32056   0.261   5.137   1.375
10605WAT     H132057   0.232   5.227   1.408
10605WAT     H232058   0.340   5.105   1.427
10606WAT      O32059   8.407   3.626   2.036
10606WAT     H132060   8.329   3.563   2.032
10606WAT     H232061   8.456   3.625   1.949
10607WAT      O32062   3.956   1.222   3.965
10607WAT     H132063   3.984   1.204   4.059
10607WAT     H232064   4.008   1.299   3.928
10608WAT      O32065   7.269   1.368   2.973
10608WAT     H132066   7.236   1.401   3.062
10608WAT     H232067   7.275   1.269   2.974
10609WAT      O32068   6.882   6.677   0.668
10609WAT     H132069   6.873   6.578   0.681
10609WAT     H232070   6.820   6.724   0.731
10610WAT      O32071   7.303   0.746   6.359
10610WAT     H132072   7.279   0.735   6.455
10610WAT     H232073   7.235   0.802   6.313
10611WAT      O32074   3.651   3.695   9.422
10611WAT     H132075   3.614   3.704   9.514
10611WAT     H232076   3.602   3.623   9.373
10612WAT      O32077   0.392   7.961   8.542
10612WAT     H132078   0.472   7.903   8.561
10612WAT     H232079   0.308   7.908   8.555
10613WAT      O32080   3.873   7.125   9.839
10613WAT     H132081   3.890   7.059   9.912
10613WAT     H232082   3.932   7.103   9.761
10614WAT      O32083   6.805   1.709   5.752
10614WAT     H132084   6.722   1.732   5.700
10614WAT     H232085   6.868   1.658   5.693
10615WAT      O32086   6.618   7.526   5.704
10615WAT     H132087   6.662   7.467   5.772
10615WAT     H232088   6.654   7.505   5.613
10616WAT      O32089   9.580   1.823   4.099
10616WAT     H132090   9.623   1.762   4.166
10616WAT     H232091   9.645   1.895   4.073
10617WAT      O32092   2.971   2.306   0.230
10617WAT     H132093   2.922   2.283   0.314
10617WAT     H232094   2.913   2.285   0.151
10618WAT      O32095   6.904   4.010   3.108
10618WAT     H132096   6.822   4.066   3.110
10618WAT     H232097   6.893   3.938   3.039
10619WAT      O32098   4.207   6.829   6.035
10619WAT     H132099   4.139   6.898   6.013
10619WAT     H232100   4.227   6.774   5.953
10620WAT      O32101   2.521   5.529   0.718
10620WAT     H132102   2.545   5.625   0.722
10620WAT     H232103   2.561   5.487   0.636
10621WAT      O32104   3.278   0.560   7.249
10621WAT     H132105   3.237   0.637   7.297
10621WAT     H232106   3.363   0.589   7.205
10622WAT      O32107   3.432   4.249   9.461
10622WAT     H132108   3.417   4.347   9.471
10622WAT     H232109   3.369   4.212   9.393
10623WAT      O32110   1.322   5.379   6.611
10623WAT     H132111   1.273   5.372   6.524
10623WAT     H232112   1.416   5.347   6.599
10624WAT      O32113   1.762   7.130   7.577
10624WAT     H132114   1.767   7.215   7.524
10624WAT     H232115   1.748   7.053   7.515
10625WAT      O32116   9.052   3.030   6.257
10625WAT     H132117   9.021   3.034   6.351
10625WAT     H232118   8.984   3.072   6.197
10626WAT      O32119   8.795   0.674   4.534
10626WAT     H132120   8.869   0.697   4.471
10626WAT     H232121   8.748   0.591   4.503
10627WAT      O32122   1.182   6.689   6.966
10627WAT     H132123   1.222   6.606   7.005
10627WAT     H232124   1.085   6.674   6.948
10628WAT      O32125   5.224   7.221   4.420
10628WAT     H132126   5.273   7.141   4.456
10628WAT     H232127   5.180   7.197   4.334
10629WAT      O32128   9.556   3.116   9.798
10629WAT     H132129   9.582   3.040   9.738
10629WAT     H232130   9.582   3.094   9.892
10630WAT      O32131   2.794   2.550   0.498
10630WAT     H132132   2.811   2.451   0.493
10630WAT     H232133   2.778   2.586   0.406
10631WAT      O32134   3.084   2.346   7.064
10631WAT     H132135   3.034   2.405   7.127
10631WAT     H232136   3.064   2.250   7.085
10632WAT      O32137   4.035   9.196   6.541
10632WAT     H132138   4.106   9.187   6.470
10632WAT     H232139   4.070   9.159   6.627
10633WAT      O32140   0.783   5.271   4.578
10633WAT     H132141   0.870   5.223   4.591
10633WAT     H232142   0.772   5.339   4.650
10634WAT      O32143   9.279   3.630   7.071
10634WAT     H132144   9.242   3.722   7.062
10634WAT     H232145   9.326   3.622   7.159
10635WAT      O32146   9.555   9.267   7.623
10635WAT     H132147   9.552   9.365   7.605
10635WAT     H232148   9.476   9.223   7.580
10636WAT      O32149   3.584   3.560   5.030
10636WAT     H132150   3.568   3.571   5.128
10636WAT     H232151   3.566   3.465   5.004
10637WAT      O32152   3.877   4.190   0.180
10637WAT     H132153   3.916   4.113   0.231
10637WAT     H232154   3.803   4.231   0.234
10638WAT      O32155   9.066   4.511   5.733
10638WAT     H132156   9.002   4.496   5.809
10638WAT     H232157   9.158   4.524   5.770
10639WAT      O32158   1.476   2.247   7.999
10639WAT     H132159   1.464   2.169   8.061
10639WAT     H232160   1.395   2.257   7.943
10640WAT      O32161   8.476   9.559   7.926
10640WAT     H132162   8.426   9.595   8.005
10640WAT     H232163   8.425   9.580   7.842
10641WAT      O32164   0.158   4.022   6.758
10641WAT     H132165   0.229   4.001   6.692
10641WAT     H232166   0.114   3.937   6.788
10642WAT      O32167   2.787   0.361   3.629
10642WAT     H132168   2.789   0.288   3.697
10642WAT     H232169   2.694   0.370   3.592
10643WAT      O32170   4.978   7.284   6.446
10643WAT     H132171   4.953   7.376   6.416
10643WAT     H232172   5.014   7.287   6.539
10644WAT      O32173   0.203   2.033   7.543
10644WAT     H132174   0.208   2.111   7.606
10644WAT     H232175   0.124   1.976   7.566
10645WAT      O32176   3.061   6.513   8.686
10645WAT     H132177   3.032   6.427   8.645
10645WAT     H232178   3.049   6.587   8.620
10646WAT      O32179   6.149   0.081   5.178
10646WAT     H132180   6.204   0.070   5.260
10646WAT     H232181   6.159   0.175   5.144
10647WAT      O32182   5.791   6.510   8.197
10647WAT     H132183   5.788   6.467   8.106
10647WAT     H232184   5.726   6.586   8.200
10648WAT      O32185   6.162   8.191   0.235
10648WAT     H132186   6.131   8.192   0.330
10648WAT     H232187   6.110   8.124   0.183
10649WAT      O32188   1.273   4.232   4.260
10649WAT     H132189   1.357   4.229   4.314
10649WAT     H232190   1.294   4.221   4.163
10650WAT      O32191   8.155   9.422   6.709
10650WAT     H132192   8.106   9.491   6.656
10650WAT     H232193   8.248   9.454   6.727
10651WAT      O32194   4.909   3.337   8.240
10651WAT     H132195   4.882   3.260   8.297
10651WAT     H232196   4.975   3.393   8.291
10652WAT      O32197   8.095   0.035   8.642
10652WAT     H132198   8.090   0.131   8.617
10652WAT     H232199   8.073   0.024   8.739
10653WAT      O32200   5.268   5.095   6.519
10653WAT     H132201   5.234   5.117   6.610
10653WAT     H232202   5.360   5.133   6.508
10654WAT      O32203   6.791   6.241   8.299
10654WAT     H132204   6.714   6.188   8.264
10654WAT     H232205   6.855   6.260   8.225
10655WAT      O32206   3.328   9.527   7.709
10655WAT     H132207   3.299   9.454   7.647
10655WAT     H232208   3.428   9.535   7.707
10656WAT      O32209   9.702   5.199   1.443
10656WAT     H132210   9.767   5.230   1.512
10656WAT     H232211   9.709   5.257   1.362
10657WAT      O32212   7.601   0.729   9.456
10657WAT     H132213   7.589   0.743   9.358
10657WAT     H232214   7.697   0.711   9.476
10658WAT      O32215   2.925   6.507   2.463
10658WAT     H132216   2.914   6.577   2.533
10658WAT     H232217   2.871   6.531   2.382
10659WAT      O32218   7.019   6.652   0.258
10659WAT     H132219   6.955   6.721   0.292
10659WAT     H232220   7.020   6.654   0.158
10660WAT      O32221   5.569   2.626   8.079
10660WAT     H132222   5.599   2.541   8.122
10660WAT     H232223   5.522   2.605   7.993
10661WAT      O32224   5.981   5.005   4.815
10661WAT     H132225   5.889   4.996   4.777
10661WAT     H232226   5.997   4.931   4.880
10662WAT      O32227   3.884   8.713   8.232
10662WAT     H132228   3.865   8.806   8.264
10662WAT     H232229   3.915   8.658   8.309
10663WAT      O32230   7.933   2.634   7.176
10663WAT     H132231   7.937   2.730   7.204
10663WAT     H232232   8.021   2.590   7.193
10664WAT      O32233   2.998   8.345   9.255
10664WAT     H132234   2.994   8.263   9.197
10664WAT     H232235   3.046   8.417   9.206
10665WAT      O32236   0.057   2.936   4.624
10665WAT     H132237  -0.023   2.996   4.623
10665WAT     H232238   0.140   2.989   4.605
10666WAT      O32239   7.867   6.432   7.926
10666WAT     H132240   7.865   6.517   7.979
10666WAT     H232241   7.906   6.358   7.981
10667WAT      O32242   4.578   6.347   7.656
10667WAT     H132243   4.530   6.411   7.596
10667WAT     H232244   4.622   6.398   7.729
10668WAT      O32245   1.576   7.831   2.309
10668WAT     H132246   1.585   7.733   2.326
10668WAT     H232247   1.595   7.881   2.393
10669WAT      O32248   1.984   2.695   1.506
10669WAT     H132249   1.948   2.609   1.542
10669WAT     H232250   1.998   2.686   1.407
10670WAT      O32251   7.883   6.867   7.062
10670WAT     H132252   7.884   6.893   6.965
10670WAT     H232253   7.796   6.823   7.084
10671WAT      O32254   0.375   8.963   0.321
10671WAT     H132255   0.357   9.062   0.317
10671WAT     H232256   0.312   8.916   0.259
10672WAT      O32257   1.820   4.196   9.439
10672WAT     H132258   1.795   4.124   9.374
10672WAT     H232259   1.860   4.273   9.390
10673WAT      O32260   5.017   2.767   1.854
10673WAT     H132261   4.940   2.725   1.902
10673WAT     H232262   4.990   2.784   1.759
10674WAT      O32263   4.852   6.930   7.087
10674WAT     H132264   4.925   6.864   7.065
10674WAT     H232265   4.803   6.899   7.168
10675WAT      O32266   5.982   5.087   5.816
10675WAT     H132267   6.001   5.004   5.869
10675WAT     H232268   5.883   5.096   5.803
10676WAT      O32269   7.213   7.650   6.409
10676WAT     H132270   7.168   7.739   6.417
10676WAT     H232271   7.214   7.605   6.498
10677WAT      O32272   4.478   2.393   2.392
10677WAT     H132273   4.509   2.442   2.474
10677WAT     H232274   4.465   2.297   2.413
10678WAT      O32275   1.086   8.014   3.889
10678WAT     H132276   1.099   7.944   3.959
10678WAT     H232277   1.119   8.102   3.923
10679WAT      O32278   5.465   1.626   0.752
10679WAT     H132279   5.476   1.547   0.813
10679WAT     H232280   5.369   1.634   0.725
10680WAT      O32281   5.887   1.643   7.816
10680WAT     H132282   5.842   1.581   7.752
10680WAT     H232283   5.943   1.590   7.881
10681WAT      O32284   0.366   8.536   3.877
10681WAT     H132285   0.349   8.525   3.975
10681WAT     H232286   0.379   8.446   3.834
10682WAT      O32287   3.585   5.663   7.839
10682WAT     H132288   3.645   5.613   7.777
10682WAT     H232289   3.495   5.619   7.840
10683WAT      O32290   4.533   9.194   5.693
10683WAT     H132291   4.460   9.223   5.630
10683WAT     H232292   4.592   9.128   5.647
10684WAT      O32293   7.912   0.949   8.582
10684WAT     H132294   7.933   0.867   8.634
10684WAT     H232295   7.956   0.944   8.492
10685WAT      O32296   0.772   7.491   7.305
10685WAT     H132297   0.768   7.563   7.236
10685WAT     H232298   0.685   7.441   7.305
10686WAT      O32299   7.167   7.738   9.608
10686WAT     H132300   7.199   7.685   9.687
10686WAT     H232301   7.232   7.812   9.589
10687WAT      O32302   2.349   3.514   5.561
10687WAT     H132303   2.420   3.451   5.529
10687WAT     H232304   2.313   3.566   5.484
10688WAT      O32305   2.009   6.602   0.195
10688WAT     H132306   2.105   6.621   0.216
10688WAT     H232307   2.000   6.585   0.097
10689WAT      O32308   8.804   3.950   6.728
10689WAT     H132309   8.901   3.956   6.701
10689WAT     H232310   8.748   3.932   6.648
10690WAT      O32311   3.459   7.908   1.429
10690WAT     H132312   3.545   7.958   1.413
10690WAT     H232313   3.478   7.827   1.484
10691WAT      O32314   1.512   5.081   8.577
10691WAT     H132315   1.572   5.035   8.510
10691WAT     H232316   1.480   5.014   8.644
10692WAT      O32317   6.500   6.803   8.713
10692WAT     H132318   6.439   6.838   8.643
10692WAT     H232319   6.595   6.816   8.684
10693WAT      O32320   6.248   2.073   0.999
10693WAT     H132321   6.239   2.161   0.953
10693WAT     H232322   6.337   2.069   1.045
10694WAT      O32323   2.141   6.069   0.507
10694WAT     H132324   2.046   6.098   0.500
10694WAT     H232325   2.200   6.150   0.511
10695WAT      O32326   3.611   8.883   7.581
10695WAT     H132327   3.553   8.935   7.518
10695WAT     H232328   3.553   8.824   7.637
10696WAT      O32329   6.474   1.587   0.366
10696WAT     H132330   6.500   1.653   0.294
10696WAT     H232331   6.500   1.624   0.455
10697WAT      O32332   1.533   2.545   9.599
10697WAT     H132333   1.612   2.571   9.543
10697WAT     H232334   1.453   2.597   9.569
10698WAT      O32335   8.289   6.359   4.010
10698WAT     H132336   8.242   6.339   3.924
10698WAT     H232337   8.277   6.282   4.073
10699WAT      O32338   6.242   7.300   5.171
10699WAT     H132339   6.288   7.214   5.191
10699WAT     H232340   6.183   7.325   5.247
10700WAT      O32341   9.252   4.798   8.713
10700WAT     H132342   9.300   4.883   8.735
10700WAT     H232343   9.260   4.781   8.615
10701WAT      O32344   9.039   4.700   1.717
10701WAT     H132345   9.096   4.659   1.789
10701WAT     H232346   9.025   4.797   1.738
10702WAT      O32347   8.528   7.486   2.467
10702WAT     H132348   8.539   7.586   2.469
10702WAT     H232349   8.439   7.463   2.427
10703WAT      O32350   4.994   2.688   2.559
10703WAT     H132351   5.069   2.755   2.558
10703WAT     H232352   4.972   2.661   2.465
10704WAT      O32353   2.914   0.463   0.804
10704WAT     H132354   2.971   0.517   0.742
10704WAT     H232355   2.906   0.370   0.769
10705WAT      O32356   9.355   2.278   6.833
10705WAT     H132357   9.394   2.316   6.916
10705WAT     H232358   9.425   2.230   6.781
10706WAT      O32359   4.514   5.833   9.081
10706WAT     H132360   4.502   5.870   9.174
10706WAT     H232361   4.547   5.739   9.087
10707WAT      O32362   4.063   8.756   7.839
10707WAT     H132363   3.976   8.752   7.888
10707WAT     H232364   4.121   8.681   7.869
10708WAT      O32365   9.685   1.466   4.771
10708WAT     H132366   9.776   1.507   4.765
10708WAT     H232367   9.694   1.366   4.771
10709WAT      O32368   1.656   8.168   0.123
10709WAT     H132369   1.713   8.176   0.041
10709WAT     H232370   1.687   8.234   0.192
10710WAT      O32371   2.062   8.792   3.642
10710WAT     H132372   1.975   8.743   3.644
10710WAT     H232373   2.137   8.727   3.653
10711WAT      O32374   0.739   4.401   7.938
10711WAT     H132375   0.776   4.326   7.883
10711WAT     H232376   0.814   4.454   7.977
10712WAT      O32377   5.000   5.467   9.588
10712WAT     H132378   5.090   5.508   9.604
10712WAT     H232379   4.997   5.377   9.632
10713WAT      O32380   6.175   3.922   1.685
10713WAT     H132381   6.198   3.867   1.766
10713WAT     H232382   6.076   3.922   1.673
10714WAT      O32383   3.023   8.752   6.168
10714WAT     H132384   2.984   8.757   6.260
10714WAT     H232385   3.121   8.768   6.173
10715WAT      O32386   0.152   6.026   1.770
10715WAT     H132387   0.158   5.967   1.690
10715WAT     H232388   0.089   5.986   1.836
10716WAT      O32389   4.494   3.052   1.853
10716WAT     H132390   4.543   3.053   1.940
10716WAT     H232391   4.396   3.066   1.870
10717WAT      O32392   4.243   4.166   9.060
10717WAT     H132393   4.206   4.194   9.148
10717WAT     H232394   4.185   4.094   9.021
10718WAT      O32395   9.826   1.719   0.454
10718WAT     H132396   9.796   1.810   0.428
10718WAT     H232397   9.747   1.659   0.466
10719WAT      O32398   6.291   3.093   1.184
10719WAT     H132399   6.314   3.136   1.272
10719WAT     H232400   6.360   3.025   1.161
10720WAT      O32401   0.918   5.622   4.445
10720WAT     H132402   0.994   5.683   4.467
10720WAT     H232403   0.938   5.574   4.359
10721WAT      O32404   8.833   5.634   0.004
10721WAT     H132405   8.811   5.640   0.101
10721WAT     H232406   8.757   5.670  -0.050
10722WAT      O32407   6.897   9.839   1.486
10722WAT     H132408   6.945   9.926   1.477
10722WAT     H232409   6.864   9.829   1.580
10723WAT      O32410   7.742   2.135   8.220
10723WAT     H132411   7.729   2.095   8.311
10723WAT     H232412   7.803   2.077   8.166
10724WAT      O32413   6.022   8.075   2.514
10724WAT     H132414   6.091   8.142   2.488
10724WAT     H232415   5.937   8.093   2.464
10725WAT      O32416   2.972   3.975   4.180
10725WAT     H132417   2.925   4.063   4.168
10725WAT     H232418   2.919   3.917   4.242
10726WAT      O32419   1.945   3.536   1.188
10726WAT     H132420   2.006   3.456   1.188
10726WAT     H232421   1.980   3.604   1.124
10727WAT      O32422   3.815   9.321   4.510
10727WAT     H132423   3.864   9.382   4.447
10727WAT     H232424   3.724   9.358   4.529
10728WAT      O32425   3.445   7.062   8.847
10728WAT     H132426   3.495   7.007   8.781
10728WAT     H232427   3.382   7.123   8.799
10729WAT      O32428   7.284   5.067   8.385
10729WAT     H132429   7.356   5.017   8.434
10729WAT     H232430   7.324   5.145   8.337
10730WAT      O32431   9.118   5.112   1.873
10730WAT     H132432   9.196   5.083   1.816
10730WAT     H232433   9.121   5.064   1.960
10731WAT      O32434   5.442   7.201   3.585
10731WAT     H132435   5.504   7.142   3.636
10731WAT     H232436   5.352   7.159   3.580
10732WAT      O32437   4.230   3.296   0.057
10732WAT     H132438   4.147   3.345   0.083
10732WAT     H232439   4.245   3.307  -0.042
10733WAT      O32440   6.718   2.382   2.618
10733WAT     H132441   6.664   2.465   2.608
10733WAT     H232442   6.758   2.380   2.710
10734WAT      O32443   4.924   6.755   8.034
10734WAT     H132444   4.971   6.690   7.974
10734WAT     H232445   4.857   6.705   8.090
10735WAT      O32446   5.156   1.935   6.979
10735WAT     H132447   5.231   1.894   6.927
10735WAT     H232448   5.193   1.981   7.060
10736WAT      O32449   3.781   5.654   5.896
10736WAT     H132450   3.755   5.671   5.801
10736WAT     H232451   3.790   5.742   5.944
10737WAT      O32452   1.894   9.590   5.951
10737WAT     H132453   1.915   9.497   5.922
10737WAT     H232454   1.978   9.644   5.955
10738WAT      O32455   0.376   0.091   0.864
10738WAT     H132456   0.373  -0.003   0.898
10738WAT     H232457   0.410   0.091   0.770
10739WAT      O32458   8.141   1.605   6.127
10739WAT     H132459   8.181   1.515   6.143
10739WAT     H232460   8.045   1.593   6.099
10740WAT      O32461   1.333   5.128   2.120
10740WAT     H132462   1.363   5.046   2.169
10740WAT     H232463   1.275   5.101   2.043
10741WAT      O32464   7.736   3.853   6.161
10741WAT     H132465   7.813   3.895   6.210
10741WAT     H232466   7.650   3.893   6.194
10742WAT      O32467   2.083   3.268   0.210
10742WAT     H132468   2.006   3.222   0.253
10742WAT     H232469   2.073   3.367   0.219
10743WAT      O32470   6.918   7.084   3.061
10743WAT     H132471   6.902   7.081   2.963
10743WAT     H232472   6.851   7.027   3.108
10744WAT      O32473   6.654   3.162   6.898
10744WAT     H132474   6.652   3.086   6.833
10744WAT     H232475   6.646   3.126   6.991
10745WAT      O32476   5.312   1.297   0.855
10745WAT     H132477   5.310   1.210   0.905
10745WAT     H232478   5.341   1.370   0.916
10746WAT      O32479   9.349   8.289   8.977
10746WAT     H132480   9.359   8.326   8.884
10746WAT     H232481   9.421   8.222   8.994
10747WAT      O32482   8.806   5.832   3.838
10747WAT     H132483   8.900   5.832   3.872
10747WAT     H232484   8.743   5.855   3.913
10748WAT      O32485   9.134   1.781   7.074
10748WAT     H132486   9.087   1.711   7.128
10748WAT     H232487   9.101   1.779   6.980
10749WAT      O32488   1.941   1.237   5.822
10749WAT     H132489   1.916   1.321   5.773
10749WAT     H232490   2.005   1.260   5.895
10750WAT      O32491   1.090   2.150   4.673
10750WAT     H132492   1.120   2.065   4.717
10750WAT     H232493   1.007   2.134   4.621
10751WAT      O32494   6.513   5.688   0.928
10751WAT     H132495   6.567   5.652   1.004
10751WAT     H232496   6.574   5.713   0.853
10752WAT      O32497   8.549   1.250   0.572
10752WAT     H132498   8.605   1.308   0.512
10752WAT     H232499   8.581   1.259   0.666
10753WAT      O32500   5.115   4.635   0.782
10753WAT     H132501   5.021   4.625   0.814
10753WAT     H232502   5.177   4.588   0.845
10754WAT      O32503   1.322   7.902   5.940
10754WAT     H132504   1.313   7.865   6.033
10754WAT     H232505   1.232   7.932   5.908
10755WAT      O32506   5.665   2.623   5.932
10755WAT     H132507   5.622   2.662   5.850
10755WAT     H232508   5.651   2.685   6.009
10756WAT      O32509   0.424   2.849   5.165
10756WAT     H132510   0.434   2.801   5.252
10756WAT     H232511   0.369   2.931   5.179
10757WAT      O32512   2.182   4.739   9.147
10757WAT     H132513   2.097   4.733   9.199
10757WAT     H232514   2.234   4.655   9.159
10758WAT      O32515   2.472   2.165   4.152
10758WAT     H132516   2.505   2.189   4.060
10758WAT     H232517   2.405   2.232   4.182
10759WAT      O32518   6.449   1.566   9.161
10759WAT     H132519   6.379   1.496   9.162
10759WAT     H232520   6.503   1.558   9.077
10760WAT      O32521   1.133   6.773   3.542
10760WAT     H132522   1.152   6.758   3.639
10760WAT     H232523   1.214   6.813   3.499
10761WAT      O32524   3.533   6.520   0.880
10761WAT     H132525   3.457   6.507   0.817
10761WAT     H232526   3.580   6.433   0.895
10762WAT      O32527   2.438   3.014   8.127
10762WAT     H132528   2.358   2.970   8.169
10762WAT     H232529   2.452   2.978   8.035
10763WAT      O32530   4.464   1.073   5.261
10763WAT     H132531   4.415   1.101   5.179
10763WAT     H232532   4.563   1.079   5.245
10764WAT      O32533   1.074   8.992   3.919
10764WAT     H132534   1.173   8.988   3.908
10764WAT     H232535   1.031   8.931   3.852
10765WAT      O32536   6.983   3.036   9.707
10765WAT     H132537   7.061   2.979   9.734
10765WAT     H232538   6.953   3.010   9.615
10766WAT      O32539   4.922   6.018   0.866
10766WAT     H132540   4.885   5.939   0.817
10766WAT     H232541   4.866   6.036   0.946
10767WAT      O32542   0.971   7.104   6.914
10767WAT     H132543   0.903   7.032   6.898
10767WAT     H232544   0.938   7.167   6.985
10768WAT      O32545   5.203   7.062   3.703
10768WAT     H132546   5.139   7.020   3.638
10768WAT     H232547   5.152   7.103   3.778
10769WAT      O32548   9.052   4.827   5.807
10769WAT     H132549   9.037   4.837   5.906
10769WAT     H232550   8.995   4.752   5.772
10770WAT      O32551   1.468   7.370   6.196
10770WAT     H132552   1.486   7.440   6.127
10770WAT     H232553   1.428   7.412   6.277
10771WAT      O32554   1.910   5.929   3.571
10771WAT     H132555   1.823   5.933   3.521
10771WAT     H232556   1.897   5.964   3.664
10772WAT      O32557   5.450   3.982   0.999
10772WAT     H132558   5.392   3.941   1.069
10772WAT     H232559   5.543   3.993   1.034
10773WAT      O32560   9.672   3.349   2.116
10773WAT     H132561   9.619   3.432   2.097
10773WAT     H232562   9.642   3.310   2.203
10774WAT      O32563   8.456   4.089   8.137
10774WAT     H132564   8.384   4.159   8.130
10774WAT     H232565   8.414   3.999   8.147
10775WAT      O32566   7.867   5.082   2.250
10775WAT     H132567   7.858   5.090   2.151
10775WAT     H232568   7.961   5.056   2.273
10776WAT      O32569   9.240   6.160   6.139
10776WAT     H132570   9.268   6.173   6.234
10776WAT     H232571   9.316   6.181   6.078
10777WAT      O32572   2.691   6.869   9.795
10777WAT     H132573   2.712   6.825   9.707
10777WAT     H232574   2.641   6.954   9.778
10778WAT      O32575   1.582   0.011   2.766
10778WAT     H132576   1.561  -0.080   2.731
10778WAT     H232577   1.590   0.075   2.689
10779WAT      O32578   9.854   8.879   7.829
10779WAT     H132579   9.789   8.806   7.847
10779WAT     H232580   9.811   8.967   7.846
10780WAT      O32581   2.612   9.465   6.712
10780WAT     H132582   2.688   9.415   6.751
10780WAT     H232583   2.632   9.563   6.713
10781WAT      O32584   5.808   9.271   4.777
10781WAT     H132585   5.755   9.304   4.699
10781WAT     H232586   5.904   9.260   4.751
10782WAT      O32587   2.655   8.740   2.761
10782WAT     H132588   2.592   8.666   2.738
10782WAT     H232589   2.714   8.759   2.682
10783WAT      O32590   3.395   7.468   7.719
10783WAT     H132591   3.362   7.561   7.703
10783WAT     H232592   3.334   7.403   7.673
10784WAT      O32593   2.190   7.829   3.586
10784WAT     H132594   2.199   7.731   3.606
10784WAT     H232595   2.273   7.876   3.613
10785WAT      O32596   8.389   4.518   2.910
10785WAT     H132597   8.368   4.470   2.824
10785WAT     H232598   8.312   4.508   2.973
10786WAT      O32599   3.583   2.578   1.012
10786WAT     H132600   3.485   2.558   1.016
10786WAT     H232601   3.605   2.618   0.923
10787WAT      O32602   6.086   5.213   8.095
10787WAT     H132603   6.163   5.237   8.036
10787WAT     H232604   6.120   5.178   8.182
10788WAT      O32605   1.804   3.189   9.853
10788WAT     H132606   1.736   3.238   9.907
10788WAT     H232607   1.771   3.096   9.833
10789WAT      O32608   7.777   1.328   7.458
10789WAT     H132609   7.869   1.293   7.440
10789WAT     H232610   7.710   1.271   7.411
10790WAT      O32611   6.855   7.006   2.489
10790WAT     H132612   6.795   6.961   2.554
10790WAT     H232613   6.880   6.941   2.417
10791WAT      O32614   7.713   6.312   2.929
10791WAT     H132615   7.653   6.235   2.907
10791WAT     H232616   7.662   6.397   2.926
10792WAT      O32617   2.271   5.703   6.350
10792WAT     H132618   2.263   5.670   6.256
10792WAT     H232619   2.272   5.803   6.350
10793WAT      O32620   8.806   4.945   1.132
10793WAT     H132621   8.848   4.977   1.046
10793WAT     H232622   8.853   4.862   1.162
10794WAT      O32623   4.317   6.811   1.414
10794WAT     H132624   4.243   6.843   1.354
10794WAT     H232625   4.369   6.740   1.368
10795WAT      O32626   7.655   8.615   7.089
10795WAT     H132627   7.653   8.577   7.182
10795WAT     H232628   7.623   8.546   7.025
10796WAT      O32629   4.623   2.251   4.095
10796WAT     H132630   4.609   2.313   4.017
10796WAT     H232631   4.703   2.280   4.146
10797WAT      O32632   2.931   3.091   3.175
10797WAT     H132633   3.029   3.081   3.156
10797WAT     H232634   2.900   3.182   3.147
10798WAT      O32635   6.321   6.386   0.520
10798WAT     H132636   6.315   6.300   0.469
10798WAT     H232637   6.232   6.405   0.563
10799WAT      O32638   0.592   5.986   2.003
10799WAT     H132639   0.664   5.957   1.940
10799WAT     H232640   0.505   5.990   1.955
10800WAT      O32641   5.789   4.116   1.749
10800WAT     H132642   5.844   4.180   1.695
10800WAT     H232643   5.823   4.023   1.737
10801WAT      O32644   9.070   3.912   6.638
10801WAT     H132645   9.170   3.906   6.641
10801WAT     H232646   9.031   3.820   6.642
10802WAT      O32647   7.075   5.398   8.309
10802WAT     H132648   7.066   5.376   8.212
10802WAT     H232649   6.984   5.414   8.348
10803WAT      O32650   8.695   8.107   5.093
10803WAT     H132651   8.749   8.185   5.063
10803WAT     H232652   8.724   8.078   5.184
10804WAT      O32653   3.370   2.847   1.001
10804WAT     H132654   3.296   2.815   0.940
10804WAT     H232655   3.375   2.787   1.081
10805WAT      O32656   3.370   6.492   7.012
10805WAT     H132657   3.314   6.574   7.008
10805WAT     H232658   3.402   6.469   6.920
10806WAT      O32659   3.239   4.797   4.798
10806WAT     H132660   3.183   4.857   4.741
10806WAT     H232661   3.214   4.702   4.780
10807WAT      O32662   5.872   7.911   3.918
10807WAT     H132663   5.858   8.003   3.953
10807WAT     H232664   5.876   7.846   3.994
10808WAT      O32665   7.027   4.502   0.308
10808WAT     H132666   7.017   4.601   0.317
10808WAT     H232667   7.056   4.463   0.395
10809WAT      O32668   4.834   2.036   8.461
10809WAT     H132669   4.856   2.080   8.549
10809WAT     H232670   4.795   2.104   8.399
10810WAT      O32671   6.520   1.088   1.501
10810WAT     H132672   6.499   1.139   1.585
10810WAT     H232673   6.579   1.143   1.442
10811WAT      O32674   6.114   5.546   2.394
10811WAT     H132675   6.211   5.522   2.391
10811WAT     H232676   6.092   5.608   2.319
10812WAT      O32677   1.956   3.463   9.175
10812WAT     H132678   1.968   3.460   9.274
10812WAT     H232679   2.042   3.490   9.132
10813WAT      O32680   3.756   4.161   7.377
10813WAT     H132681   3.782   4.255   7.399
10813WAT     H232682   3.837   4.102   7.381
10814WAT      O32683   0.294   1.023   2.034
10814WAT     H132684   0.287   1.099   2.099
10814WAT     H232685   0.258   0.940   2.076
10815WAT      O32686   7.196   3.731   3.830
10815WAT     H132687   7.162   3.824   3.846
10815WAT     H232688   7.118   3.668   3.825
10816WAT      O32689   0.448   7.162   8.721
10816WAT     H132690   0.516   7.135   8.653
10816WAT     H232691   0.435   7.089   8.787
10817WAT      O32692   7.018   3.891   7.330
10817WAT     H132693   7.073   3.851   7.403
10817WAT     H232694   6.968   3.970   7.366
10818WAT      O32695   5.751   0.673   5.574
10818WAT     H132696   5.736   0.692   5.671
10818WAT     H232697   5.848   0.660   5.557
10819WAT      O32698   7.493   7.505   3.511
10819WAT     H132699   7.542   7.553   3.583
10819WAT     H232700   7.497   7.558   3.426
10820WAT      O32701   9.485   1.722   8.608
10820WAT     H132702   9.412   1.696   8.671
10820WAT     H232703   9.531   1.640   8.575
10821WAT      O32704   5.038   8.590   2.322
10821WAT     H132705   4.993   8.501   2.320
10821WAT     H232706   5.069   8.615   2.230
10822WAT      O32707   0.802   9.157   2.174
10822WAT     H132708   0.774   9.185   2.266
10822WAT     H232709   0.892   9.195   2.154
10823WAT      O32710   8.260   3.336   6.215
10823WAT     H132711   8.309   3.365   6.297
10823WAT     H232712   8.306   3.257   6.175
10824WAT      O32713   3.146   0.913   1.016
10824WAT     H132714   3.214   0.975   1.057
10824WAT     H232715   3.177   0.819   1.026
10825WAT      O32716   1.590   7.312   4.519
10825WAT     H132717   1.634   7.284   4.433
10825WAT     H232718   1.660   7.322   4.590
10826WAT      O32719   8.939   6.786   1.171
10826WAT     H132720   9.004   6.741   1.111
10826WAT     H232721   8.848   6.747   1.158
10827WAT      O32722   4.263   9.239   9.085
10827WAT     H132723   4.305   9.192   9.007
10827WAT     H232724   4.169   9.263   9.063
10828WAT      O32725   6.345   4.086   3.776
10828WAT     H132726   6.383   4.145   3.847
10828WAT     H232727   6.294   4.011   3.818
10829WAT      O32728   0.521   7.643   3.809
10829WAT     H132729   0.435   7.624   3.857
10829WAT     H232730   0.555   7.559   3.768
10830WAT      O32731   7.158   6.896   8.393
10830WAT     H132732   7.222   6.882   8.469
10830WAT     H232733   7.073   6.935   8.428
10831WAT      O32734   4.716   8.964   3.805
10831WAT     H132735   4.630   9.016   3.801
10831WAT     H232736   4.767   8.977   3.720
10832WAT      O32737   5.551   7.999   6.023
10832WAT     H132738   5.569   7.900   6.028
10832WAT     H232739   5.459   8.018   6.056
10833WAT      O32740   7.643   2.263   6.351
10833WAT     H132741   7.602   2.338   6.403
10833WAT     H232742   7.742   2.277   6.345
10834WAT      O32743   3.250   8.455   5.051
10834WAT     H132744   3.200   8.425   4.970
10834WAT     H232745   3.261   8.555   5.049
10835WAT      O32746   2.248   5.741   5.388
10835WAT     H132747   2.294   5.830   5.382
10835WAT     H232748   2.186   5.730   5.310
10836WAT      O32749   4.862   2.218   8.087
10836WAT     H132750   4.886   2.156   8.012
10836WAT     H232751   4.936   2.218   8.154
10837WAT      O32752   1.679   5.868   4.078
10837WAT     H132753   1.722   5.814   4.151
10837WAT     H232754   1.688   5.819   3.991
10838WAT      O32755   0.807   2.653   9.133
10838WAT     H132756   0.812   2.742   9.087
10838WAT     H232757   0.757   2.664   9.219
10839WAT      O32758   2.672   8.020   7.505
10839WAT     H132759   2.661   8.035   7.407
10839WAT     H232760   2.740   7.949   7.522
10840WAT      O32761   7.714   3.751   1.519
10840WAT     H132762   7.773   3.830   1.532
10840WAT     H232763   7.733   3.683   1.590
10841WAT      O32764   5.746   0.330   1.212
10841WAT     H132765   5.772   0.278   1.131
10841WAT     H232766   5.659   0.376   1.196
10842WAT      O32767   1.593   1.533   9.612
10842WAT     H132768   1.687   1.545   9.645
10842WAT     H232769   1.542   1.477   9.677
10843WAT      O32770   5.770   6.247   6.263
10843WAT     H132771   5.839   6.207   6.324
10843WAT     H232772   5.741   6.179   6.196
10844WAT      O32773   0.507   3.559   9.232
10844WAT     H132774   0.544   3.467   9.236
10844WAT     H232775   0.411   3.558   9.261
10845WAT      O32776   9.195   5.682   9.309
10845WAT     H132777   9.143   5.765   9.328
10845WAT     H232778   9.139   5.618   9.256
10846WAT      O32779   0.644   2.629   7.548
10846WAT     H132780   0.648   2.546   7.603
10846WAT     H232781   0.616   2.706   7.605
10847WAT      O32782   2.170   9.421   6.792
10847WAT     H132783   2.246   9.464   6.743
10847WAT     H232784   2.199   9.397   6.884
10848WAT      O32785   4.665   1.740   7.487
10848WAT     H132786   4.757   1.726   7.449
10848WAT     H232787   4.600   1.753   7.412
10849WAT      O32788   9.000   6.211   1.433
10849WAT     H132789   9.030   6.302   1.458
10849WAT     H232790   8.976   6.210   1.335
10850WAT      O32791   5.605   8.646   6.053
10850WAT     H132792   5.671   8.628   6.126
10850WAT     H232793   5.652   8.692   5.977
10851WAT      O32794   3.916   6.270   4.903
10851WAT     H132795   3.981   6.252   4.977
10851WAT     H232796   3.900   6.185   4.852
10852WAT      O32797   4.736   7.116   5.417
10852WAT     H132798   4.806   7.137   5.350
10852WAT     H232799   4.772   7.130   5.509
10853WAT      O32800   3.228   8.087   9.204
10853WAT     H132801   3.179   8.045   9.280
10853WAT     H232802   3.164   8.108   9.131
10854WAT      O32803   4.853   5.112   3.946
10854WAT     H132804   4.933   5.172   3.948
10854WAT     H232805   4.857   5.054   3.865
10855WAT      O32806   0.105   7.031   4.462
10855WAT     H132807   0.096   7.087   4.545
10855WAT     H232808   0.014   7.013   4.425
10856WAT      O32809   7.387   5.691   3.799
10856WAT     H132810   7.475   5.679   3.754
10856WAT     H232811   7.399   5.749   3.880
10857WAT      O32812   1.172   3.734   9.248
10857WAT     H132813   1.122   3.770   9.169
10857WAT     H232814   1.260   3.696   9.218
10858WAT      O32815   1.703   4.208   8.244
10858WAT     H132816   1.754   4.156   8.176
10858WAT     H232817   1.614   4.233   8.207
10859WAT      O32818   4.069   1.555   6.845
10859WAT     H132819   4.023   1.566   6.757
10859WAT     H232820   4.157   1.601   6.843
10860WAT      O32821   3.565   1.570   5.907
10860WAT     H132822   3.659   1.552   5.877
10860WAT     H232823   3.532   1.654   5.865
10861WAT      O32824   2.602   3.714   5.959
10861WAT     H132825   2.539   3.673   5.893
10861WAT     H232826   2.551   3.744   6.040
10862WAT      O32827   2.815   2.084   8.614
10862WAT     H132828   2.729   2.050   8.575
10862WAT     H232829   2.850   2.159   8.557
10863WAT      O32830   6.705   8.015   2.579
10863WAT     H132831   6.725   7.991   2.484
10863WAT     H232832   6.647   8.097   2.580
10864WAT      O32833   3.850   4.414   5.932
10864WAT     H132834   3.867   4.318   5.954
10864WAT     H232835   3.759   4.440   5.962
10865WAT      O32836   2.985   3.219   1.309
10865WAT     H132837   3.067   3.222   1.367
10865WAT     H232838   2.904   3.223   1.367
10866WAT      O32839   9.278   0.679   8.169
10866WAT     H132840   9.209   0.750   8.158
10866WAT     H232841   9.338   0.679   8.089
10867WAT      O32842   6.847   2.158   6.164
10867WAT     H132843   6.926   2.097   6.171
10867WAT     H232844   6.772   2.123   6.221
10868WAT      O32845   0.587   4.192   5.033
10868WAT     H132846   0.606   4.248   5.114
10868WAT     H232847   0.545   4.106   5.061
10869WAT      O32848   8.762   4.882   6.601
10869WAT     H132849   8.700   4.806   6.582
10869WAT     H232850   8.793   4.922   6.515
10870WAT      O32851   5.171   2.599   5.058
10870WAT     H132852   5.099   2.663   5.032
10870WAT     H232853   5.185   2.602   5.157
10871WAT      O32854   4.690   9.068   6.425
10871WAT     H132855   4.698   9.076   6.326
10871WAT     H232856   4.637   9.145   6.461
10872WAT      O32857   6.636   4.622   9.246
10872WAT     H132858   6.577   4.557   9.294
10872WAT     H232859   6.703   4.571   9.191
10873WAT      O32860   4.643   8.119   4.021
10873WAT     H132861   4.741   8.140   4.030
10873WAT     H232862   4.589   8.196   4.055
10874WAT      O32863   0.544   4.949   4.381
10874WAT     H132864   0.594   4.935   4.467
10874WAT     H232865   0.571   4.879   4.315
10875WAT      O32866   0.850   9.811   1.880
10875WAT     H132867   0.909   9.769   1.811
10875WAT     H232868   0.828   9.744   1.951
10876WAT      O32869   3.528   1.305   2.207
10876WAT     H132870   3.455   1.238   2.217
10876WAT     H232871   3.558   1.309   2.112
10877WAT      O32872   6.868   7.351   6.718
10877WAT     H132873   6.887   7.448   6.707
10877WAT     H232874   6.929   7.312   6.787
10878WAT      O32875   2.371   4.368   9.704
10878WAT     H132876   2.370   4.452   9.651
10878WAT     H232877   2.460   4.356   9.747
10879WAT      O32878   7.416   0.241   0.655
10879WAT     H132879   7.459   0.206   0.738
10879WAT     H232880   7.320   0.213   0.654
10880WAT      O32881   0.528   1.252   5.331
10880WAT     H132882   0.437   1.235   5.370
10880WAT     H232883   0.597   1.206   5.386
10881WAT      O32884   2.844   5.157   8.328
10881WAT     H132885   2.870   5.222   8.399
10881WAT     H232886   2.924   5.136   8.271
10882WAT      O32887   2.900   7.019   0.444
10882WAT     H132888   2.845   6.982   0.369
10882WAT     H232889   2.983   7.061   0.407
10883WAT      O32890   0.179   9.656   1.945
10883WAT     H132891   0.126   9.575   1.972
10883WAT     H232892   0.190   9.657   1.846
10884WAT      O32893   8.814   5.570   4.909
10884WAT     H132894   8.891   5.603   4.854
10884WAT     H232895   8.808   5.624   4.993
10885WAT      O32896   7.721   5.623   1.911
10885WAT     H132897   7.777   5.578   1.981
10885WAT     H232898   7.709   5.719   1.935
10886WAT      O32899   0.431   8.413   5.588
10886WAT     H132900   0.422   8.344   5.661
10886WAT     H232901   0.394   8.375   5.503
10887WAT      O32902   0.266   8.116   7.992
10887WAT     H132903   0.347   8.065   8.019
10887WAT     H232904   0.294   8.200   7.945
10888WAT      O32905   0.203   4.181   2.839
10888WAT     H132906   0.142   4.192   2.918
10888WAT     H232907   0.291   4.223   2.859
10889WAT      O32908   9.774   1.904   2.178
10889WAT     H132909   9.802   1.868   2.267
10889WAT     H232910   9.855   1.913   2.119
10890WAT      O32911   8.839   4.135   4.070
10890WAT     H132912   8.787   4.130   3.984
10890WAT     H232913   8.778   4.159   4.145
10891WAT      O32914   6.231   2.534   3.798
10891WAT     H132915   6.148   2.482   3.816
10891WAT     H232916   6.238   2.552   3.700
10892WAT      O32917   0.799   5.322   7.876
10892WAT     H132918   0.886   5.336   7.829
10892WAT     H232919   0.816   5.301   7.972
10893WAT      O32920   1.540   9.400   7.437
10893WAT     H132921   1.587   9.433   7.519
10893WAT     H232922   1.569   9.307   7.416
10894WAT      O32923   2.418   4.351   7.911
10894WAT     H132924   2.459   4.266   7.942
10894WAT     H232925   2.485   4.404   7.859
10895WAT      O32926   7.754   6.649   5.341
10895WAT     H132927   7.796   6.566   5.304
10895WAT     H232928   7.687   6.684   5.276
10896WAT      O32929   2.426   5.418   1.355
10896WAT     H132930   2.504   5.479   1.342
10896WAT     H232931   2.375   5.411   1.269
10897WAT      O32932   1.111   9.129   0.610
10897WAT     H132933   1.168   9.120   0.528
10897WAT     H232934   1.087   9.038   0.644
10898WAT      O32935   1.900   1.962   4.576
10898WAT     H132936   1.948   1.891   4.524
10898WAT     H232937   1.805   1.936   4.589
10899WAT      O32938   6.978   4.322   6.674
10899WAT     H132939   6.934   4.276   6.597
10899WAT     H232940   6.980   4.260   6.753
10900WAT      O32941   6.444   3.351   7.768
10900WAT     H132942   6.465   3.369   7.672
10900WAT     H232943   6.512   3.395   7.826
10901WAT      O32944   2.362   8.862   3.331
10901WAT     H132945   2.367   8.767   3.363
10901WAT     H232946   2.429   8.876   3.258
10902WAT      O32947   7.235   8.355   3.336
10902WAT     H132948   7.171   8.280   3.354
10902WAT     H232949   7.255   8.403   3.422
10903WAT      O32950   0.852   4.999   7.774
10903WAT     H132951   0.854   4.945   7.690
10903WAT     H232952   0.806   5.086   7.756
10904WAT      O32953   5.989   5.258   6.034
10904WAT     H132954   6.008   5.348   5.996
10904WAT     H232955   5.976   5.192   5.960
10905WAT      O32956   8.559   3.898   1.853
10905WAT     H132957   8.581   3.920   1.948
10905WAT     H232958   8.479   3.951   1.823
10906WAT      O32959   5.192   5.811   1.724
10906WAT     H132960   5.279   5.794   1.770
10906WAT     H232961   5.120   5.823   1.792
10907WAT      O32962   6.243   4.277   6.707
10907WAT     H132963   6.239   4.224   6.792
10907WAT     H232964   6.207   4.224   6.632
10908WAT      O32965   2.015   3.818   6.366
10908WAT     H132966   2.057   3.734   6.332
10908WAT     H232967   1.989   3.876   6.290
10909WAT      O32968   7.040   8.418   2.858
10909WAT     H132969   6.968   8.428   2.791
10909WAT     H232970   7.057   8.321   2.875
10910WAT      O32971   9.726   9.590   3.552
10910WAT     H132972   9.813   9.546   3.573
10910WAT     H232973   9.738   9.649   3.471
10911WAT      O32974   1.592   6.168   0.835
10911WAT     H132975   1.513   6.108   0.845
10911WAT     H232976   1.631   6.156   0.744
10912WAT      O32977   5.569   3.189   7.348
10912WAT     H132978   5.634   3.265   7.344
10912WAT     H232979   5.509   3.192   7.268
10913WAT      O32980   7.546   2.480   5.405
10913WAT     H132981   7.631   2.452   5.361
10913WAT     H232982   7.562   2.495   5.502
10914WAT      O32983   2.986   8.720   1.927
10914WAT     H132984   3.082   8.691   1.923
10914WAT     H232985   2.964   8.747   2.021
10915WAT      O32986   8.793   5.358   3.699
10915WAT     H132987   8.807   5.457   3.704
10915WAT     H232988   8.878   5.314   3.672
10916WAT      O32989   4.664   2.414   1.581
10916WAT     H132990   4.763   2.425   1.587
10916WAT     H232991   4.625   2.420   1.673
10917WAT      O32992   5.402   8.445   4.810
10917WAT     H132993   5.459   8.373   4.847
10917WAT     H232994   5.305   8.423   4.826
10918WAT      O32995   4.572   6.689   2.110
10918WAT     H132996   4.627   6.772   2.117
10918WAT     H232997   4.513   6.695   2.029
10919WAT      O32998   0.982   3.257   3.019
10919WAT     H132999   0.911   3.316   2.981
10919WAT     H233000   0.992   3.176   2.961
10920WAT      O33001   8.616   4.835   0.080
10920WAT     H133002   8.568   4.767   0.136
10920WAT     H233003   8.644   4.912   0.137
10921WAT      O33004   1.336   0.662   8.400
10921WAT     H133005   1.264   0.725   8.430
10921WAT     H233006   1.296   0.589   8.345
10922WAT      O33007   9.288   2.850   4.708
10922WAT     H133008   9.344   2.823   4.631
10922WAT     H233009   9.199   2.804   4.703
10923WAT      O33010   0.530   2.376   3.946
10923WAT     H133011   0.548   2.402   3.851
10923WAT     H233012   0.499   2.457   3.996
10924WAT      O33013   7.843   8.751   4.331
10924WAT     H133014   7.757   8.742   4.382
10924WAT     H233015   7.910   8.799   4.388
10925WAT      O33016   7.009   3.031   2.310
10925WAT     H133017   7.100   3.070   2.324
10925WAT     H233018   6.980   2.982   2.392
10926WAT      O33019   6.330   2.131   1.753
10926WAT     H133020   6.333   2.222   1.795
10926WAT     H233021   6.364   2.064   1.819
10927WAT      O33022   8.857   6.563   7.861
10927WAT     H133023   8.838   6.482   7.805
10927WAT     H233024   8.939   6.546   7.916
10928WAT      O33025   8.258   4.349   1.960
10928WAT     H133026   8.346   4.395   1.947
10928WAT     H233027   8.273   4.250   1.963
10929WAT      O33028   1.402   5.869   2.307
10929WAT     H133029   1.350   5.801   2.358
10929WAT     H233030   1.498   5.843   2.304
10930WAT      O33031   6.188   0.934   4.238
10930WAT     H133032   6.164   0.837   4.241
10930WAT     H233033   6.106   0.989   4.253
10931WAT      O33034   6.782   7.432   2.722
10931WAT     H133035   6.693   7.432   2.767
10931WAT     H233036   6.781   7.367   2.646
10932WAT      O33037   5.350   6.207   7.828
10932WAT     H133038   5.429   6.172   7.878
10932WAT     H233039   5.341   6.159   7.741
10933WAT      O33040   4.359   1.061   8.951
10933WAT     H133041   4.399   1.021   9.034
10933WAT     H233042   4.431   1.105   8.898
10934WAT      O33043   9.036   3.110   9.704
10934WAT     H133044   9.098   3.118   9.626
10934WAT     H233045   9.090   3.101   9.788
10935WAT      O33046   6.177   1.711   4.584
10935WAT     H133047   6.092   1.687   4.631
10935WAT     H233048   6.215   1.629   4.541
10936WAT      O33049   7.615   7.340   8.012
10936WAT     H133050   7.695   7.386   8.051
10936WAT     H233051   7.538   7.403   8.009
10937WAT      O33052   5.506   6.150   5.193
10937WAT     H133053   5.538   6.076   5.252
10937WAT     H233054   5.470   6.111   5.108
10938WAT      O33055   3.729   3.303   1.033
10938WAT     H133056   3.713   3.216   1.081
10938WAT     H233057   3.798   3.289   0.962
10939WAT      O33058   8.776   0.141   6.095
10939WAT     H133059   8.847   0.101   6.038
10939WAT     H233060   8.790   0.240   6.102
10940WAT      O33061   1.740   9.653   5.732
10940WAT     H133062   1.781   9.652   5.823
10940WAT     H233063   1.741   9.746   5.696
10941WAT      O33064   8.170   1.988   6.264
10941WAT     H133065   8.214   1.930   6.194
10941WAT     H233066   8.230   2.065   6.285
10942WAT      O33067   6.144   7.469   6.366
10942WAT     H133068   6.144   7.385   6.421
10942WAT     H233069   6.234   7.480   6.323
10943WAT      O33070   6.581   3.263   8.621
10943WAT     H133071   6.517   3.332   8.656
10943WAT     H233072   6.609   3.289   8.528
10944WAT      O33073   3.872   8.970   8.718
10944WAT     H133074   3.798   8.931   8.663
10944WAT     H233075   3.948   8.905   8.722
10945WAT      O33076   9.149   9.251   6.272
10945WAT     H133077   9.163   9.154   6.291
10945WAT     H233078   9.055   9.266   6.241
10946WAT      O33079   2.157   5.577   9.793
10946WAT     H133080   2.239   5.543   9.840
10946WAT     H233081   2.075   5.540   9.837
10947WAT      O33082   9.442   7.768   7.655
10947WAT     H133083   9.431   7.866   7.638
10947WAT     H233084   9.481   7.725   7.573
10948WAT      O33085   4.009   4.231   7.100
10948WAT     H133086   3.989   4.133   7.095
10948WAT     H233087   4.021   4.258   7.195
10949WAT      O33088   4.051   0.550   6.179
10949WAT     H133089   4.130   0.612   6.177
10949WAT     H233090   4.039   0.510   6.089
10950WAT      O33091   0.193   3.979   5.134
10950WAT     H133092   0.110   4.002   5.185
10950WAT     H233093   0.172   3.973   5.036
10951WAT      O33094   5.121   0.388   1.434
10951WAT     H133095   5.165   0.303   1.405
10951WAT     H233096   5.174   0.466   1.400
10952WAT      O33097   0.916   1.581   2.641
10952WAT     H133098   0.841   1.525   2.606
10952WAT     H233099   0.992   1.522   2.669
10953WAT      O33100   3.277   5.866   1.538
10953WAT     H133101   3.316   5.947   1.495
10953WAT     H233102   3.295   5.867   1.636
10954WAT      O33103   4.467   7.817   6.987
10954WAT     H133104   4.515   7.905   6.986
10954WAT     H233105   4.377   7.827   6.945
10955WAT      O33106   7.076   8.763   5.060
10955WAT     H133107   6.992   8.817   5.055
10955WAT     H233108   7.132   8.796   5.136
10956WAT      O33109   9.316   8.450   0.793
10956WAT     H133110   9.295   8.507   0.714
10956WAT     H233111   9.234   8.401   0.822
10957WAT      O33112   6.242   8.111   4.897
10957WAT     H133113   6.150   8.141   4.869
10957WAT     H233114   6.277   8.044   4.831
10958WAT      O33115   6.561   4.904   5.923
10958WAT     H133116   6.498   4.980   5.911
10958WAT     H233117   6.552   4.866   6.015
10959WAT      O33118   5.182   6.533   1.017
10959WAT     H133119   5.188   6.486   0.929
10959WAT     H233120   5.124   6.613   1.008
10960WAT      O33121   7.854   7.241   8.297
10960WAT     H133122   7.916   7.166   8.274
10960WAT     H233123   7.801   7.217   8.378
10961WAT      O33124   3.398   7.799   9.820
10961WAT     H133125   3.365   7.812   9.726
10961WAT     H233126   3.375   7.707   9.851
10962WAT      O33127   9.422   6.590   0.214
10962WAT     H133128   9.500   6.601   0.152
10962WAT     H233129   9.454   6.595   0.308
10963WAT      O33130   8.381   3.669   3.464
10963WAT     H133131   8.346   3.675   3.558
10963WAT     H233132   8.478   3.694   3.464
10964WAT      O33133   7.862   8.224   0.809
10964WAT     H133134   7.872   8.191   0.903
10964WAT     H233135   7.952   8.236   0.768
10965WAT      O33136   6.526   7.474   7.442
10965WAT     H133137   6.594   7.490   7.514
10965WAT     H233138   6.570   7.480   7.352
10966WAT      O33139   4.485   1.679   8.135
10966WAT     H133140   4.580   1.666   8.105
10966WAT     H233141   4.479   1.663   8.233
10967WAT      O33142   5.210   4.841   1.331
10967WAT     H133143   5.279   4.882   1.390
10967WAT     H233144   5.123   4.888   1.342
10968WAT      O33145   0.198   8.977   7.937
10968WAT     H133146   0.193   9.076   7.925
10968WAT     H233147   0.106   8.938   7.931
10969WAT      O33148   7.344   0.740   8.303
10969WAT     H133149   7.253   0.757   8.339
10969WAT     H233150   7.388   0.827   8.280
10970WAT      O33151   8.849   4.747   9.248
10970WAT     H133152   8.806   4.686   9.314
10970WAT     H233153   8.857   4.700   9.160
10971WAT      O33154   6.642   3.793   1.510
10971WAT     H133155   6.671   3.713   1.456
10971WAT     H233156   6.713   3.863   1.506
10972WAT      O33157   9.471   9.624   2.447
10972WAT     H133158   9.561   9.625   2.490
10972WAT     H233159   9.464   9.702   2.384
10973WAT      O33160   7.863   2.147   8.645
10973WAT     H133161   7.903   2.215   8.583
10973WAT     H233162   7.803   2.086   8.593
10974WAT      O33163   8.855   2.901   6.952
10974WAT     H133164   8.894   2.819   6.994
10974WAT     H233165   8.757   2.904   6.970
10975WAT      O33166   2.110   9.004   9.016
10975WAT     H133167   2.195   9.053   9.037
10975WAT     H233168   2.032   9.057   9.049
10976WAT      O33169   5.751   7.970   0.605
10976WAT     H133170   5.723   8.044   0.543
10976WAT     H233171   5.851   7.959   0.600
10977WAT      O33172   6.677   5.280   5.354
10977WAT     H133173   6.738   5.253   5.429
10977WAT     H233174   6.583   5.286   5.388
10978WAT      O33175   6.755   7.964   5.462
10978WAT     H133176   6.800   7.955   5.550
10978WAT     H233177   6.686   7.892   5.453
10979WAT      O33178   3.670   3.294   9.591
10979WAT     H133179   3.592   3.345   9.627
10979WAT     H233180   3.640   3.203   9.562
10980WAT      O33181   4.484   1.394   9.105
10980WAT     H133182   4.563   1.383   9.046
10980WAT     H233183   4.480   1.318   9.170
10981WAT      O33184   0.639   7.351   3.994
10981WAT     H133185   0.717   7.325   4.051
10981WAT     H233186   0.594   7.431   4.034
10982WAT      O33187   5.004   7.433   2.261
10982WAT     H133188   4.949   7.465   2.183
10982WAT     H233189   4.965   7.350   2.298
10983WAT      O33190   7.776   2.604   4.605
10983WAT     H133191   7.754   2.611   4.702
10983WAT     H233192   7.777   2.696   4.565
10984WAT      O33193   6.594   8.193   2.255
10984WAT     H133194   6.567   8.223   2.163
10984WAT     H233195   6.554   8.104   2.274
10985WAT      O33196   2.801   1.253   5.038
10985WAT     H133197   2.732   1.199   4.990
10985WAT     H233198   2.884   1.199   5.048
10986WAT      O33199   2.228   7.328   8.187
10986WAT     H133200   2.213   7.411   8.241
10986WAT     H233201   2.285   7.350   8.108
10987WAT      O33202   8.019   5.113   7.187
10987WAT     H133203   8.048   5.129   7.281
10987WAT     H233204   7.993   5.201   7.146
10988WAT      O33205   1.764   5.469   3.744
10988WAT     H133206   1.677   5.485   3.696
10988WAT     H233207   1.802   5.381   3.717
10989WAT      O33208   0.882   6.569   7.417
10989WAT     H133209   0.982   6.578   7.408
10989WAT     H233210   0.855   6.476   7.394
10990WAT      O33211   1.975   8.606   8.641
10990WAT     H133212   1.999   8.696   8.678
10990WAT     H233213   1.946   8.617   8.546
10991WAT      O33214   7.176   4.230   4.722
10991WAT     H133215   7.195   4.215   4.819
10991WAT     H233216   7.212   4.153   4.669
10992WAT      O33217   8.538   4.872   3.469
10992WAT     H133218   8.573   4.827   3.386
10992WAT     H233219   8.600   4.853   3.545
10993WAT      O33220   2.485   1.899   2.565
10993WAT     H133221   2.503   1.892   2.663
10993WAT     H233222   2.516   1.816   2.519
10994WAT      O33223   6.230   1.446   1.459
10994WAT     H133224   6.143   1.475   1.417
10994WAT     H233225   6.268   1.521   1.513
10995WAT      O33226   6.906   1.048   4.251
10995WAT     H133227   6.874   1.089   4.165
10995WAT     H233228   6.891   0.949   4.248
10996WAT      O33229   1.929   8.078   5.588
10996WAT     H133230   1.924   7.978   5.578
10996WAT     H233231   1.953   8.119   5.500
10997WAT      O33232   3.637   5.339   3.633
10997WAT     H133233   3.540   5.342   3.660
10997WAT     H233234   3.692   5.313   3.713
10998WAT      O33235   4.440   4.375   1.228
10998WAT     H133236   4.452   4.292   1.175
10998WAT     H233237   4.350   4.415   1.209
10999WAT      O33238   7.397   9.037   8.706
10999WAT     H133239   7.323   9.103   8.692
10999WAT     H233240   7.459   9.072   8.777
11000WAT      O33241   8.024   3.577   4.752
11000WAT     H133242   8.116   3.602   4.722
11000WAT     H233243   7.973   3.541   4.674
11001WAT      O33244   3.585   9.771   2.960
11001WAT     H133245   3.580   9.716   2.877
11001WAT     H233246   3.639   9.853   2.942
11002WAT      O33247   8.265   0.053   6.401
11002WAT     H133248   8.287  -0.034   6.446
11002WAT     H233249   8.202   0.105   6.459
11003WAT      O33250   8.687   9.017   5.425
11003WAT     H133251   8.703   8.972   5.513
11003WAT     H233252   8.592   9.048   5.420
11004WAT      O33253   2.746   6.576   5.806
11004WAT     H133254   2.706   6.668   5.805
11004WAT     H233255   2.696   6.520   5.872
11005WAT      O33256   3.562   5.398   0.575
11005WAT     H133257   3.499   5.344   0.519
11005WAT     H233258   3.653   5.356   0.573
11006WAT      O33259   5.323   9.427   8.780
11006WAT     H133260   5.368   9.389   8.861
11006WAT     H233261   5.334   9.526   8.778
11007WAT      O33262   8.392   1.395   8.500
11007WAT     H133263   8.298   1.363   8.487
11007WAT     H233264   8.455   1.319   8.487
11008WAT      O33265   5.902   5.041   0.911
11008WAT     H133266   5.909   5.112   0.981
11008WAT     H233267   5.865   4.958   0.953
11009WAT      O33268   5.554   6.133   3.083
11009WAT     H133269   5.494   6.052   3.078
11009WAT     H233270   5.643   6.106   3.118
11010WAT      O33271   4.487   0.191   3.362
11010WAT     H133272   4.486   0.092   3.372
11010WAT     H233273   4.554   0.216   3.292
11011WAT      O33274   6.544   7.002   3.597
11011WAT     H133275   6.569   6.925   3.538
11011WAT     H233276   6.469   6.975   3.657
11012WAT      O33277   9.494   7.909   4.546
11012WAT     H133278   9.546   7.893   4.462
11012WAT     H233279   9.432   7.986   4.533
11013WAT      O33280   5.894   9.228   0.838
11013WAT     H133281   5.830   9.202   0.766
11013WAT     H233282   5.926   9.146   0.885
11014WAT      O33283   6.835   8.876   6.206
11014WAT     H133284   6.890   8.959   6.205
11014WAT     H233285   6.763   8.884   6.275
11015WAT      O33286   6.964   2.627   5.036
11015WAT     H133287   6.995   2.719   5.012
11015WAT     H233288   6.972   2.566   4.957
11016WAT      O33289   5.270   5.631   8.447
11016WAT     H133290   5.257   5.674   8.536
11016WAT     H233291   5.262   5.700   8.375
11017WAT      O33292   7.175   4.837   7.144
11017WAT     H133293   7.182   4.800   7.237
11017WAT     H233294   7.208   4.931   7.143
11018WAT      O33295   3.615   7.407   4.628
11018WAT     H133296   3.565   7.492   4.611
11018WAT     H233297   3.596   7.342   4.554
11019WAT      O33298   3.261   0.672   1.051
11019WAT     H133299   3.272   0.579   1.015
11019WAT     H233300   3.333   0.690   1.119
11020WAT      O33301   1.568   8.363   4.343
11020WAT     H133302   1.536   8.458   4.337
11020WAT     H233303   1.567   8.333   4.438
11021WAT      O33304   8.755   0.331   7.821
11021WAT     H133305   8.773   0.341   7.919
11021WAT     H233306   8.671   0.278   7.809
11022WAT      O33307   2.128   0.520   6.640
11022WAT     H133308   2.078   0.498   6.556
11022WAT     H233309   2.171   0.437   6.675
11023WAT      O33310   6.165   0.416   1.998
11023WAT     H133311   6.218   0.501   1.999
11023WAT     H233312   6.224   0.339   2.021
11024WAT      O33313   8.868   6.003   9.523
11024WAT     H133314   8.818   6.088   9.541
11024WAT     H233315   8.802   5.930   9.504
11025WAT      O33316   6.036   0.537   5.788
11025WAT     H133317   6.017   0.587   5.704
11025WAT     H233318   5.983   0.452   5.789
11026WAT      O33319   1.529   2.254   2.976
11026WAT     H133320   1.489   2.163   2.966
11026WAT     H233321   1.460   2.318   3.009
11027WAT      O33322   6.630   1.189   7.872
11027WAT     H133323   6.553   1.125   7.863
11027WAT     H233324   6.698   1.170   7.802
11028WAT      O33325   0.767   8.662   3.983
11028WAT     H133326   0.788   8.574   3.940
11028WAT     H233327   0.681   8.697   3.945
11029WAT      O33328   2.588   5.581   7.953
11029WAT     H133329   2.528   5.638   8.009
11029WAT     H233330   2.658   5.540   8.011
11030WAT      O33331   1.806   8.395   7.105
11030WAT     H133332   1.764   8.405   7.196
11030WAT     H233333   1.847   8.482   7.078
11031WAT      O33334   3.511   7.760   5.384
11031WAT     H133335   3.575   7.837   5.380
11031WAT     H233336   3.519   7.706   5.300
11032WAT      O33337   1.468   0.146   5.735
11032WAT     H133338   1.490   0.205   5.657
11032WAT     H233339   1.457   0.203   5.817
11033WAT      O33340   3.015   4.288   4.449
11033WAT     H133341   2.924   4.327   4.462
11033WAT     H233342   3.058   4.272   4.537
11034WAT      O33343   1.011   3.578   6.406
11034WAT     H133344   1.109   3.564   6.397
11034WAT     H233345   0.977   3.526   6.485
11035WAT      O33346   3.848   5.573   7.676
11035WAT     H133347   3.916   5.646   7.680
11035WAT     H233348   3.834   5.545   7.581
11036WAT      O33349   6.562   2.435   0.838
11036WAT     H133350   6.640   2.378   0.813
11036WAT     H233351   6.478   2.382   0.830
11037WAT      O33352   4.492   6.869   0.969
11037WAT     H133353   4.530   6.926   0.896
11037WAT     H233354   4.398   6.844   0.945
11038WAT      O33355   4.449   1.505   7.873
11038WAT     H133356   4.407   1.552   7.951
11038WAT     H233357   4.402   1.418   7.857
11039WAT      O33358   0.542   4.443   7.622
11039WAT     H133359   0.488   4.497   7.558
11039WAT     H233360   0.520   4.472   7.716
11040WAT      O33361   9.342   8.314   1.065
11040WAT     H133362   9.420   8.341   1.122
11040WAT     H233363   9.345   8.366   0.979
11041WAT      O33364   0.406   2.966   8.047
11041WAT     H133365   0.464   3.046   8.027
11041WAT     H233366   0.361   2.936   7.964
11042WAT      O33367   7.360   4.801   0.871
11042WAT     H133368   7.370   4.826   0.967
11042WAT     H233369   7.335   4.882   0.818
11043WAT      O33370   5.441   8.003   3.402
11043WAT     H133371   5.452   8.062   3.482
11043WAT     H233372   5.424   8.060   3.322
11044WAT      O33373   1.790   2.934   3.068
11044WAT     H133374   1.732   2.893   3.138
11044WAT     H233375   1.759   3.028   3.050
11045WAT      O33376   9.797   9.266   3.263
11045WAT     H133377   9.863   9.341   3.268
11045WAT     H233378   9.772   9.250   3.167
11046WAT      O33379   6.754   3.303   4.310
11046WAT     H133380   6.732   3.308   4.408
11046WAT     H233381   6.788   3.212   4.288
11047WAT      O33382   5.186   9.089   0.714
11047WAT     H133383   5.252   9.162   0.696
11047WAT     H233384   5.227   9.023   0.777
11048WAT      O33385   9.065   0.566   8.257
11048WAT     H133386   9.151   0.605   8.225
11048WAT     H233387   9.015   0.528   8.179
11049WAT      O33388   6.987   6.989   5.021
11049WAT     H133389   6.904   7.039   5.042
11049WAT     H233390   6.964   6.904   4.974
11050WAT      O33391   7.106   2.757   2.042
11050WAT     H133392   7.058   2.731   1.958
11050WAT     H233393   7.204   2.761   2.024
11051WAT      O33394   2.339   6.462   9.441
11051WAT     H133395   2.398   6.396   9.488
11051WAT     H233396   2.349   6.552   9.483
11052WAT      O33397   8.065   6.981   3.966
11052WAT     H133398   8.115   7.035   3.898
11052WAT     H233399   7.969   6.975   3.939
11053WAT      O33400   0.271   9.412   2.669
11053WAT     H133401   0.263   9.434   2.572
11053WAT     H233402   0.297   9.495   2.720
11054WAT      O33403   6.072   6.511   6.862
11054WAT     H133404   6.027   6.599   6.846
11054WAT     H233405   6.005   6.437   6.849
11055WAT      O33406   4.555   1.288   8.308
11055WAT     H133407   4.490   1.345   8.359
11055WAT     H233408   4.648   1.314   8.332
11056WAT      O33409   2.263   8.001   2.721
11056WAT     H133410   2.223   8.042   2.639
11056WAT     H233411   2.346   7.950   2.696
11057WAT      O33412   2.107   5.523   4.675
11057WAT     H133413   2.104   5.448   4.610
11057WAT     H233414   2.193   5.519   4.727
11058WAT      O33415   6.082   6.166   0.834
11058WAT     H133416   6.163   6.110   0.844
11058WAT     H233417   6.010   6.113   0.789
11059WAT      O33418   3.496   4.704   1.525
11059WAT     H133419   3.584   4.734   1.562
11059WAT     H233420   3.506   4.680   1.429
11060WAT      O33421   8.280   4.441   2.666
11060WAT     H133422   8.316   4.512   2.605
11060WAT     H233423   8.271   4.355   2.615
11061WAT      O33424   8.189   0.709   7.691
11061WAT     H133425   8.188   0.773   7.614
11061WAT     H233426   8.173   0.759   7.776
11062WAT      O33427   7.133   3.340   4.922
11062WAT     H133428   7.038   3.333   4.892
11062WAT     H233429   7.145   3.423   4.977
11063WAT      O33430   8.633   2.831   3.933
11063WAT     H133431   8.691   2.881   3.997
11063WAT     H233432   8.679   2.823   3.845
11064WAT      O33433   7.339   1.072   1.473
11064WAT     H133434   7.345   1.006   1.398
11064WAT     H233435   7.244   1.079   1.504
11065WAT      O33436   6.519   7.434   0.622
11065WAT     H133437   6.592   7.502   0.630
11065WAT     H233438   6.508   7.409   0.526
11066WAT      O33439   4.356   0.882   4.257
11066WAT     H133440   4.378   0.852   4.350
11066WAT     H233441   4.274   0.940   4.260
11067WAT      O33442   7.842   3.276   8.040
11067WAT     H133443   7.762   3.281   8.100
11067WAT     H233444   7.856   3.365   7.996
11068WAT      O33445   8.613   4.077   8.872
11068WAT     H133446   8.523   4.056   8.910
11068WAT     H233447   8.674   3.998   8.883
11069WAT      O33448   3.307   8.014   2.444
11069WAT     H133449   3.332   7.918   2.461
11069WAT     H233450   3.230   8.039   2.503
11070WAT      O33451   2.128   6.862   1.572
11070WAT     H133452   2.136   6.959   1.547
11070WAT     H233453   2.103   6.855   1.669
11071WAT      O33454   4.273   8.215   9.193
11071WAT     H133455   4.356   8.266   9.170
11071WAT     H233456   4.228   8.185   9.110
11072WAT      O33457   2.246   9.159   9.331
11072WAT     H133458   2.259   9.081   9.391
11072WAT     H233459   2.293   9.143   9.244
11073WAT      O33460   6.982   8.424   3.547
11073WAT     H133461   7.077   8.439   3.573
11073WAT     H233462   6.971   8.443   3.449
11074WAT      O33463   9.698   2.445   0.640
11074WAT     H133464   9.717   2.535   0.600
11074WAT     H233465   9.772   2.382   0.616
11075WAT      O33466   7.000   6.654   5.169
11075WAT     H133467   7.089   6.610   5.174
11075WAT     H233468   6.941   6.618   5.242
11076WAT      O33469   1.368   2.567   0.532
11076WAT     H133470   1.400   2.662   0.531
11076WAT     H233471   1.421   2.515   0.599
11077WAT      O33472   8.609   3.564   7.237
11077WAT     H133473   8.699   3.531   7.206
11077WAT     H233474   8.618   3.603   7.329
11078WAT      O33475   2.404   8.008   3.656
11078WAT     H133476   2.437   8.046   3.743
11078WAT     H233477   2.346   8.075   3.610
11079WAT      O33478   4.745   7.749   8.738
11079WAT     H133479   4.715   7.719   8.647
11079WAT     H233480   4.722   7.846   8.750
11080WAT      O33481   5.090   4.288   7.894
11080WAT     H133482   5.078   4.301   7.796
11080WAT     H233483   5.092   4.377   7.939
11081WAT      O33484   7.517   3.289   4.286
11081WAT     H133485   7.608   3.331   4.291
11081WAT     H233486   7.485   3.269   4.379
11082WAT      O33487   7.610   9.815   5.314
11082WAT     H133488   7.706   9.801   5.290
11082WAT     H233489   7.552   9.766   5.250
11083WAT      O33490   3.365   2.592   9.213
11083WAT     H133491   3.314   2.512   9.244
11083WAT     H233492   3.462   2.570   9.205
11084WAT      O33493   2.922   2.272   8.402
11084WAT     H133494   3.015   2.286   8.369
11084WAT     H233495   2.877   2.361   8.413
11085WAT      O33496   6.925   6.556   9.627
11085WAT     H133497   6.844   6.508   9.594
11085WAT     H233498   6.999   6.490   9.641
11086WAT      O33499   9.650   9.497   4.654
11086WAT     H133500   9.592   9.503   4.736
11086WAT     H233501   9.726   9.435   4.672
11087WAT      O33502   3.170   3.036   9.519
11087WAT     H133503   3.131   3.083   9.598
11087WAT     H233504   3.169   2.937   9.535
11088WAT      O33505   3.634   7.652   8.029
11088WAT     H133506   3.546   7.607   8.014
11088WAT     H233507   3.696   7.588   8.075
11089WAT      O33508   9.274   6.854   4.046
11089WAT     H133509   9.279   6.755   4.063
11089WAT     H233510   9.227   6.898   4.123
11090WAT      O33511   5.809   6.642   2.572
11090WAT     H133512   5.709   6.631   2.574
11090WAT     H233513   5.845   6.639   2.665
11091WAT      O33514   8.270   7.041   1.753
11091WAT     H133515   8.324   7.044   1.669
11091WAT     H233516   8.327   7.009   1.828
11092WAT      O33517   2.360   4.137   5.225
11092WAT     H133518   2.345   4.236   5.236
11092WAT     H233519   2.432   4.122   5.157
11093WAT      O33520   3.634   7.592   3.238
11093WAT     H133521   3.691   7.666   3.275
11093WAT     H233522   3.688   7.540   3.171
11094WAT      O33523   5.152   4.009   4.272
11094WAT     H133524   5.206   4.093   4.274
11094WAT     H233525   5.059   4.030   4.240
11095WAT      O33526   2.970   1.496   5.188
11095WAT     H133527   3.000   1.515   5.281
11095WAT     H233528   2.969   1.397   5.172
11096WAT      O33529   8.614   4.297   3.513
11096WAT     H133530   8.652   4.234   3.446
11096WAT     H233531   8.684   4.319   3.582
11097WAT      O33532   4.692   5.103   3.391
11097WAT     H133533   4.699   5.155   3.476
11097WAT     H233534   4.603   5.120   3.349
11098WAT      O33535   6.451   1.049   7.518
11098WAT     H133536   6.497   0.975   7.470
11098WAT     H233537   6.459   1.034   7.617
11099WAT      O33538   3.175   2.741   9.480
11099WAT     H133539   3.252   2.688   9.517
11099WAT     H233540   3.105   2.679   9.445
11100WAT      O33541   4.605   0.923   2.183
11100WAT     H133542   4.700   0.955   2.186
11100WAT     H233543   4.579   0.885   2.271
11101WAT      O33544   1.815   3.790   6.070
11101WAT     H133545   1.810   3.738   6.155
11101WAT     H233546   1.722   3.809   6.038
11102WAT      O33547   5.478   7.476   4.150
11102WAT     H133548   5.483   7.420   4.068
11102WAT     H233549   5.567   7.478   4.195
11103WAT      O33550   3.966   4.924   2.377
11103WAT     H133551   3.941   5.020   2.369
11103WAT     H233552   3.884   4.867   2.368
11104WAT      O33553   1.930   1.109   0.435
11104WAT     H133554   1.837   1.107   0.399
11104WAT     H233555   1.996   1.112   0.360
11105WAT      O33556   0.500   7.324   6.909
11105WAT     H133557   0.559   7.265   6.964
11105WAT     H233558   0.407   7.287   6.911
11106WAT      O33559   3.327   6.306   9.858
11106WAT     H133560   3.337   6.231   9.793
11106WAT     H233561   3.232   6.338   9.857
11107WAT      O33562   6.313   7.266   1.924
11107WAT     H133563   6.379   7.223   1.862
11107WAT     H233564   6.287   7.201   1.996
11108WAT      O33565   9.029   9.283   1.567
11108WAT     H133566   9.078   9.339   1.633
11108WAT     H233567   8.972   9.216   1.615
11109WAT      O33568   8.648   3.226   5.535
11109WAT     H133569   8.581   3.264   5.471
11109WAT     H233570   8.662   3.291   5.610
11110WAT      O33571   5.120   8.259   9.236
11110WAT     H133572   5.152   8.224   9.325
11110WAT     H233573   5.186   8.234   9.165
11111WAT      O33574   8.081   7.554   2.264
11111WAT     H133575   8.143   7.602   2.327
11111WAT     H233576   8.040   7.476   2.311
11112WAT      O33577   1.542   6.238   9.836
11112WAT     H133578   1.453   6.207   9.803
11112WAT     H233579   1.545   6.231   9.936
11113WAT      O33580   0.344   3.063   8.764
11113WAT     H133581   0.409   3.090   8.693
11113WAT     H233582   0.372   2.976   8.803
11114WAT      O33583   1.496   0.784   2.981
11114WAT     H133584   1.559   0.764   2.906
11114WAT     H233585   1.403   0.795   2.945
11115WAT      O33586   4.771   6.334   4.107
11115WAT     H133587   4.684   6.332   4.156
11115WAT     H233588   4.844   6.361   4.169
11116WAT      O33589   8.040   4.711   9.669
11116WAT     H133590   8.019   4.790   9.612
11116WAT     H233591   7.958   4.685   9.721
11117WAT      O33592   1.700   4.882   2.480
11117WAT     H133593   1.627   4.817   2.461
11117WAT     H233594   1.789   4.837   2.467
11118WAT      O33595   6.135   9.359   1.703
11118WAT     H133596   6.204   9.289   1.682
11118WAT     H233597   6.054   9.315   1.740
11119WAT      O33598   5.664   6.774   9.298
11119WAT     H133599   5.702   6.809   9.213
11119WAT     H233600   5.636   6.678   9.286
11120WAT      O33601   9.048   0.622   0.183
11120WAT     H133602   9.085   0.715   0.175
11120WAT     H233603   9.085   0.578   0.265
11121WAT      O33604   2.700   8.171   5.516
11121WAT     H133605   2.772   8.239   5.531
11121WAT     H233606   2.710   8.096   5.582
11122WAT      O33607   7.266   3.490   6.755
11122WAT     H133608   7.326   3.431   6.808
11122WAT     H233609   7.263   3.458   6.660
11123WAT      O33610   2.285   7.798   6.344
11123WAT     H133611   2.235   7.775   6.427
11123WAT     H233612   2.232   7.771   6.264
11124WAT      O33613   9.653   9.742   7.321
11124WAT     H133614   9.673   9.742   7.419
11124WAT     H233615   9.554   9.743   7.307
11125WAT      O33616   6.570   2.065   9.684
11125WAT     H133617   6.607   1.993   9.743
11125WAT     H233618   6.583   2.039   9.588
11126WAT      O33619   1.799   4.463   5.216
11126WAT     H133620   1.737   4.480   5.140
11126WAT     H233621   1.857   4.385   5.195
11127WAT      O33622   7.690   4.024   7.004
11127WAT     H133623   7.678   4.011   6.905
11127WAT     H233624   7.764   3.965   7.037
11128WAT      O33625   0.399   5.612   6.028
11128WAT     H133626   0.357   5.682   5.971
11128WAT     H233627   0.350   5.525   6.015
11129WAT      O33628   9.510   6.122   3.498
11129WAT     H133629   9.590   6.182   3.502
11129WAT     H233630   9.537   6.034   3.459
11130WAT      O33631   1.725   4.167   5.751
11130WAT     H133632   1.719   4.081   5.701
11130WAT     H233633   1.811   4.213   5.729
11131WAT      O33634   4.812   5.396   8.700
11131WAT     H133635   4.902   5.438   8.685
11131WAT     H233636   4.818   5.298   8.679
11132WAT      O33637   6.462   6.451   3.425
11132WAT     H133638   6.402   6.447   3.504
11132WAT     H233639   6.472   6.546   3.396
11133WAT      O33640   7.692   8.484   2.590
11133WAT     H133641   7.613   8.453   2.538
11133WAT     H233642   7.721   8.413   2.654
11134WAT      O33643   0.338   6.246   9.879
11134WAT     H133644   0.392   6.173   9.922
11134WAT     H233645   0.245   6.244   9.915
11135WAT      O33646   6.400   8.398   1.086
11135WAT     H133647   6.374   8.437   0.997
11135WAT     H233648   6.413   8.300   1.076
11136WAT      O33649   5.412   8.481   9.611
11136WAT     H133650   5.477   8.434   9.551
11136WAT     H233651   5.427   8.579   9.606
11137WAT      O33652   1.263   2.411   4.180
11137WAT     H133653   1.321   2.330   4.172
11137WAT     H233654   1.315   2.492   4.153
11138WAT      O33655   2.496   0.580   1.953
11138WAT     H133656   2.506   0.564   2.052
11138WAT     H233657   2.398   0.581   1.929
11139WAT      O33658   8.395   7.979   5.915
11139WAT     H133659   8.429   7.971   5.821
11139WAT     H233660   8.304   7.938   5.921
11140WAT      O33661   5.323   2.954   1.467
11140WAT     H133662   5.336   3.034   1.408
11140WAT     H233663   5.261   2.978   1.542
11141WAT      O33664   4.799   4.838   8.550
11141WAT     H133665   4.831   4.912   8.490
11141WAT     H233666   4.855   4.757   8.536
11142WAT      O33667   7.358   5.482   5.885
11142WAT     H133668   7.268   5.441   5.873
11142WAT     H233669   7.418   5.454   5.810
11143WAT      O33670   0.686   8.195   4.536
11143WAT     H133671   0.736   8.272   4.496
11143WAT     H233672   0.729   8.168   4.621
11144WAT      O33673   0.006   7.703   7.525
11144WAT     H133674  -0.038   7.635   7.584
11144WAT     H233675  -0.040   7.791   7.536
11145WAT      O33676   6.132   6.221   8.210
11145WAT     H133677   6.060   6.239   8.278
11145WAT     H233678   6.149   6.304   8.157
11146WAT      O33679   7.404   3.409   4.051
11146WAT     H133680   7.461   3.360   4.117
11146WAT     H233681   7.315   3.429   4.092
11147WAT      O33682   9.250   4.284   6.102
11147WAT     H133683   9.304   4.291   6.018
11147WAT     H233684   9.266   4.365   6.159
11148WAT      O33685   1.928   1.095   7.668
11148WAT     H133686   1.960   1.058   7.755
11148WAT     H233687   1.878   1.024   7.618
11149WAT      O33688   8.429   5.105   5.931
11149WAT     H133689   8.379   5.101   6.017
11149WAT     H233690   8.388   5.041   5.865
11150WAT      O33691   1.727   3.663   6.866
11150WAT     H133692   1.746   3.609   6.948
11150WAT     H233693   1.754   3.758   6.882
11151WAT      O33694   2.366   1.420   8.045
11151WAT     H133695   2.361   1.390   7.950
11151WAT     H233696   2.284   1.473   8.067
11152WAT      O33697   8.523   1.441   4.594
11152WAT     H133698   8.526   1.357   4.540
11152WAT     H233699   8.471   1.426   4.677
11153WAT      O33700   1.432   1.354   0.973
11153WAT     H133701   1.334   1.368   0.962
11153WAT     H233702   1.448   1.297   1.054
11154WAT      O33703   1.440   0.979   8.111
11154WAT     H133704   1.508   1.041   8.074
11154WAT     H233705   1.396   0.929   8.036
11155WAT      O33706   4.911   2.334   9.741
11155WAT     H133707   4.879   2.274   9.814
11155WAT     H233708   4.988   2.291   9.694
11156WAT      O33709   6.126   3.810   5.289
11156WAT     H133710   6.089   3.835   5.378
11156WAT     H233711   6.058   3.829   5.218
11157WAT      O33712   4.773   8.698   1.859
11157WAT     H133713   4.846   8.726   1.797
11157WAT     H233714   4.695   8.665   1.807
11158WAT      O33715   5.406   4.018   2.875
11158WAT     H133716   5.387   4.101   2.823
11158WAT     H233717   5.468   4.040   2.951
11159WAT      O33718   9.201   4.111   1.339
11159WAT     H133719   9.221   4.027   1.389
11159WAT     H233720   9.184   4.089   1.243
11160WAT      O33721   5.406   1.897   7.366
11160WAT     H133722   5.437   1.980   7.412
11160WAT     H233723   5.331   1.856   7.419
11161WAT      O33724   9.571   8.361   0.720
11161WAT     H133725   9.611   8.294   0.783
11161WAT     H233726   9.487   8.397   0.759
11162WAT      O33727   8.616   3.122   2.241
11162WAT     H133728   8.646   3.214   2.218
11162WAT     H233729   8.686   3.076   2.297
11163WAT      O33730   1.783   6.583   8.937
11163WAT     H133731   1.775   6.498   8.987
11163WAT     H233732   1.711   6.588   8.867
11164WAT      O33733   0.858   3.722   8.523
11164WAT     H133734   0.930   3.791   8.521
11164WAT     H233735   0.769   3.766   8.511
11165WAT      O33736   0.278   8.707   7.688
11165WAT     H133737   0.254   8.648   7.611
11165WAT     H233738   0.237   8.798   7.676
11166WAT      O33739   3.154   5.155   3.540
11166WAT     H133740   3.141   5.243   3.494
11166WAT     H233741   3.068   5.103   3.536
11167WAT      O33742   8.243   5.463   4.030
11167WAT     H133743   8.248   5.389   4.097
11167WAT     H233744   8.188   5.434   3.952
11168WAT      O33745   2.453   8.864   4.812
11168WAT     H133746   2.380   8.800   4.789
11168WAT     H233747   2.427   8.956   4.783
11169WAT      O33748   1.891   9.709   9.787
11169WAT     H133749   1.941   9.731   9.703
11169WAT     H233750   1.818   9.644   9.766
11170WAT      O33751   4.227   8.579   5.599
11170WAT     H133752   4.139   8.540   5.627
11170WAT     H233753   4.211   8.662   5.545
11171WAT      O33754   5.098   7.108   2.886
11171WAT     H133755   5.095   7.110   2.786
11171WAT     H233756   5.181   7.059   2.915
11172WAT      O33757   2.165   3.940   8.756
11172WAT     H133758   2.142   3.843   8.755
11172WAT     H233759   2.127   3.983   8.838
11173WAT      O33760   3.814   1.253   4.999
11173WAT     H133761   3.734   1.260   5.058
11173WAT     H233762   3.881   1.323   5.025
11174WAT      O33763   6.148   5.958   0.577
11174WAT     H133764   6.095   5.875   0.598
11174WAT     H233765   6.200   5.986   0.658
11175WAT      O33766   9.671   0.119   0.151
11175WAT     H133767   9.751   0.069   0.183
11175WAT     H233768   9.697   0.212   0.128
11176WAT      O33769   7.863   3.441   0.041
11176WAT     H133770   7.818   3.377   0.103
11176WAT     H233771   7.823   3.431  -0.050
11177WAT      O33772   1.737   6.772   2.037
11177WAT     H133773   1.725   6.687   1.987
11177WAT     H233774   1.663   6.783   2.104
11178WAT      O33775   6.270   2.746   5.958
11178WAT     H133776   6.321   2.777   5.877
11178WAT     H233777   6.204   2.816   5.985
11179WAT      O33778   7.403   9.688   5.189
11179WAT     H133779   7.419   9.753   5.115
11179WAT     H233780   7.318   9.637   5.171
11180WAT      O33781   1.763   6.023   1.135
11180WAT     H133782   1.695   6.005   1.206
11180WAT     H233783   1.744   5.964   1.055
11181WAT      O33784   5.243   6.716   7.131
11181WAT     H133785   5.257   6.646   7.061
11181WAT     H233786   5.189   6.678   7.206
11182WAT      O33787   6.033   2.423   5.384
11182WAT     H133788   6.075   2.332   5.389
11182WAT     H233789   5.993   2.446   5.472
11183WAT      O33790   7.569   9.687   7.786
11183WAT     H133791   7.554   9.621   7.712
11183WAT     H233792   7.667   9.703   7.797
11184WAT      O33793   8.518   4.641   5.770
11184WAT     H133794   8.486   4.629   5.864
11184WAT     H233795   8.474   4.573   5.711
11185WAT      O33796   3.179   9.671   3.340
11185WAT     H133797   3.216   9.591   3.389
11185WAT     H233798   3.254   9.733   3.318
11186WAT      O33799   9.319   0.833   7.255
11186WAT     H133800   9.310   0.784   7.168
11186WAT     H233801   9.295   0.772   7.330
11187WAT      O33802   0.736   2.359   7.224
11187WAT     H133803   0.793   2.278   7.237
11187WAT     H233804   0.688   2.352   7.136
11188WAT      O33805   1.353   7.786   1.562
11188WAT     H133806   1.287   7.830   1.623
11188WAT     H233807   1.361   7.839   1.477
11189WAT      O33808   8.852   6.481   5.023
11189WAT     H133809   8.844   6.450   4.928
11189WAT     H233810   8.870   6.579   5.024
11190WAT      O33811   1.634   0.901   4.391
11190WAT     H133812   1.651   0.818   4.337
11190WAT     H233813   1.540   0.931   4.376
11191WAT      O33814   1.955   6.067   3.299
11191WAT     H133815   2.014   6.024   3.232
11191WAT     H233816   1.980   6.036   3.391
11192WAT      O33817   1.188   7.588   4.274
11192WAT     H133818   1.270   7.553   4.320
11192WAT     H233819   1.138   7.649   4.336
11193WAT      O33820   8.656   5.303   2.053
11193WAT     H133821   8.680   5.310   1.956
11193WAT     H233822   8.560   5.330   2.066
11194WAT      O33823   7.301   3.930   1.642
11194WAT     H133824   7.391   3.969   1.623
11194WAT     H233825   7.307   3.831   1.641
11195WAT      O33826   2.180   4.678   8.201
11195WAT     H133827   2.188   4.757   8.141
11195WAT     H233828   2.159   4.596   8.146
11196WAT      O33829   1.989   4.017   6.175
11196WAT     H133830   1.905   4.045   6.128
11196WAT     H233831   2.068   4.044   6.121
11197WAT      O33832   8.006   6.845   1.248
11197WAT     H133833   7.926   6.796   1.283
11197WAT     H233834   7.981   6.895   1.165
11198WAT      O33835   4.285   0.476   3.726
11198WAT     H133836   4.336   0.412   3.784
11198WAT     H233837   4.345   0.513   3.655
11199WAT      O33838   2.583   5.783   7.749
11199WAT     H133839   2.673   5.785   7.707
11199WAT     H233840   2.576   5.703   7.809
11200WAT      O33841   3.979   2.537   0.685
11200WAT     H133842   4.016   2.502   0.771
11200WAT     H233843   3.920   2.616   0.704
11201WAT      O33844   9.163   4.494   4.417
11201WAT     H133845   9.120   4.559   4.355
11201WAT     H233846   9.209   4.423   4.364
11202WAT      O33847   5.837   4.285   3.959
11202WAT     H133848   5.916   4.287   3.898
11202WAT     H233849   5.834   4.369   4.013
11203WAT      O33850   1.197   6.344   5.540
11203WAT     H133851   1.104   6.313   5.561
11203WAT     H233852   1.207   6.357   5.441
11204WAT      O33853   7.562   8.402   8.831
11204WAT     H133854   7.591   8.471   8.898
11204WAT     H233855   7.511   8.330   8.877
11205WAT      O33856   8.209   2.072   8.634
11205WAT     H133857   8.168   2.003   8.695
11205WAT     H233858   8.158   2.157   8.642
11206WAT      O33859   5.451   2.983   3.179
11206WAT     H133860   5.382   2.911   3.171
11206WAT     H233861   5.408   3.072   3.167
11207WAT      O33862   2.512   0.344   6.912
11207WAT     H133863   2.437   0.277   6.913
11207WAT     H233864   2.542   0.361   7.005
11208WAT      O33865   1.395   6.474   1.618
11208WAT     H133866   1.378   6.381   1.650
11208WAT     H233867   1.309   6.517   1.592
11209WAT      O33868   5.319   1.629   3.082
11209WAT     H133869   5.368   1.576   3.012
11209WAT     H233870   5.221   1.617   3.069
11210WAT      O33871   0.639   3.358   5.116
11210WAT     H133872   0.639   3.457   5.098
11210WAT     H233873   0.612   3.309   5.033
11211WAT      O33874   5.172   3.956   0.242
11211WAT     H133875   5.217   3.886   0.297
11211WAT     H233876   5.075   3.959   0.267
11212WAT      O33877   8.818   3.036   2.940
11212WAT     H133878   8.753   3.072   2.873
11212WAT     H233879   8.820   2.936   2.933
11213WAT      O33880   5.550   0.606   6.663
11213WAT     H133881   5.511   0.593   6.572
11213WAT     H233882   5.618   0.536   6.681
11214WAT      O33883   6.554   3.871   0.877
11214WAT     H133884   6.554   3.823   0.965
11214WAT     H233885   6.491   3.948   0.881
11215WAT      O33886   1.088   0.526   2.290
11215WAT     H133887   1.056   0.434   2.266
11215WAT     H233888   1.131   0.569   2.210
11216WAT      O33889   8.604   9.827   6.704
11216WAT     H133890   8.557   9.889   6.642
11216WAT     H233891   8.671   9.773   6.652
11217WAT      O33892   8.068   4.765   9.296
11217WAT     H133893   8.045   4.809   9.383
11217WAT     H233894   8.091   4.669   9.313
11218WAT      O33895   9.719   4.981   5.175
11218WAT     H133896   9.660   4.967   5.255
11218WAT     H233897   9.793   5.044   5.198
11219WAT      O33898   3.621   6.908   6.135
11219WAT     H133899   3.543   6.938   6.080
11219WAT     H233900   3.589   6.851   6.211
11220WAT      O33901   6.151   5.231   7.086
11220WAT     H133902   6.064   5.257   7.128
11220WAT     H233903   6.197   5.163   7.145
11221WAT      O33904   5.807   6.926   6.299
11221WAT     H133905   5.827   6.883   6.211
11221WAT     H233906   5.880   6.990   6.322
11222WAT      O33907   9.460   5.624   5.483
11222WAT     H133908   9.531   5.562   5.450
11222WAT     H233909   9.495   5.718   5.482
11223WAT      O33910   1.053   6.588   6.535
11223WAT     H133911   1.034   6.522   6.608
11223WAT     H233912   1.142   6.632   6.553
11224WAT      O33913   0.455   8.600   4.394
11224WAT     H133914   0.461   8.507   4.431
11224WAT     H233915   0.412   8.660   4.462
11225WAT      O33916   0.714   9.421   6.955
11225WAT     H133917   0.669   9.335   6.930
11225WAT     H233918   0.774   9.405   7.034
11226WAT      O33919   6.562   9.420   5.341
11226WAT     H133920   6.613   9.396   5.424
11226WAT     H233921   6.490   9.487   5.365
11227WAT      O33922   9.411   7.488   9.287
11227WAT     H133923   9.442   7.541   9.208
11227WAT     H233924   9.470   7.409   9.300
11228WAT      O33925   9.501   0.562   5.750
11228WAT     H133926   9.434   0.512   5.805
11228WAT     H233927   9.591   0.554   5.792
11229WAT      O33928   9.301   8.534   6.822
11229WAT     H133929   9.293   8.436   6.802
11229WAT     H233930   9.397   8.561   6.815
11230WAT      O33931   3.859   7.674   1.928
11230WAT     H133932   3.935   7.662   1.993
11230WAT     H233933   3.867   7.763   1.884
11231WAT      O33934   2.917   8.587   7.442
11231WAT     H133935   2.979   8.657   7.477
11231WAT     H233936   2.964   8.498   7.442
11232WAT      O33937   5.564   2.338   4.960
11232WAT     H133938   5.595   2.383   5.043
11232WAT     H233939   5.643   2.313   4.904
11233WAT      O33940   7.773   8.693   5.146
11233WAT     H133941   7.859   8.735   5.117
11233WAT     H233942   7.748   8.621   5.080
11234WAT      O33943   8.729   1.331   2.979
11234WAT     H133944   8.643   1.302   2.938
11234WAT     H233945   8.741   1.285   3.067
11235WAT      O33946   2.630   2.843   4.387
11235WAT     H133947   2.704   2.901   4.421
11235WAT     H233948   2.653   2.747   4.402
11236WAT      O33949   9.009   3.025   8.220
11236WAT     H133950   8.965   3.094   8.164
11236WAT     H233951   9.039   2.949   8.162
11237WAT      O33952   1.338   3.054   6.742
11237WAT     H133953   1.241   3.079   6.749
11237WAT     H233954   1.394   3.125   6.786
11238WAT      O33955   9.398   2.620   7.797
11238WAT     H133956   9.334   2.544   7.810
11238WAT     H233957   9.476   2.588   7.743
11239WAT      O33958   0.108   6.635   9.433
11239WAT     H133959   0.181   6.632   9.502
11239WAT     H233960   0.026   6.591   9.469
11240WAT      O33961   7.039   2.471   5.237
11240WAT     H133962   7.012   2.542   5.172
11240WAT     H233963   6.990   2.386   5.216
11241WAT      O33964   7.389   7.422   0.294
11241WAT     H133965   7.298   7.427   0.252
11241WAT     H233966   7.379   7.433   0.394
11242WAT      O33967   0.544   9.203   3.591
11242WAT     H133968   0.535   9.224   3.493
11242WAT     H233969   0.632   9.238   3.623
11243WAT      O33970   5.914   6.311   6.823
11243WAT     H133971   5.968   6.227   6.813
11243WAT     H233972   5.873   6.335   6.735
11244WAT      O33973   3.801   7.268   9.554
11244WAT     H133974   3.851   7.353   9.541
11244WAT     H233975   3.715   7.271   9.502
11245WAT      O33976   2.068   0.825   4.359
11245WAT     H133977   2.052   0.838   4.261
11245WAT     H233978   2.118   0.903   4.395
11246WAT      O33979   9.680   5.126   7.348
11246WAT     H133980   9.740   5.168   7.415
11246WAT     H233981   9.716   5.142   7.256
11247WAT      O33982   3.846   1.761   7.903
11247WAT     H133983   3.873   1.675   7.860
11247WAT     H233984   3.927   1.815   7.925
11248WAT      O33985   6.987   6.622   4.547
11248WAT     H133986   7.043   6.695   4.586
11248WAT     H233987   6.932   6.580   4.619
11249WAT      O33988   7.983   7.569   5.193
11249WAT     H133989   7.972   7.511   5.274
11249WAT     H233990   7.920   7.646   5.198
11250WAT      O33991   6.170   7.064   0.247
11250WAT     H133992   6.269   7.067   0.264
11250WAT     H233993   6.134   6.974   0.275
11251WAT      O33994   2.673   1.328   2.232
11251WAT     H133995   2.590   1.378   2.209
11251WAT     H233996   2.751   1.369   2.186
11252WAT      O33997   3.734   5.289   2.150
11252WAT     H133998   3.660   5.357   2.146
11252WAT     H233999   3.770   5.284   2.243
11253WAT      O34000   1.016   6.417   2.576
11253WAT     H134001   0.992   6.320   2.572
11253WAT     H234002   1.104   6.431   2.529
11254WAT      O34003   7.436   4.680   1.716
11254WAT     H134004   7.472   4.762   1.671
11254WAT     H234005   7.485   4.665   1.801
11255WAT      O34006   8.560   9.706   4.505
11255WAT     H134007   8.569   9.632   4.439
11255WAT     H234008   8.577   9.794   4.459
11256WAT      O34009   5.231   0.946   5.862
11256WAT     H134010   5.264   0.975   5.952
11256WAT     H234011   5.167   1.014   5.827
11257WAT      O34012   9.563   1.906   4.969
11257WAT     H134013   9.511   1.839   5.023
11257WAT     H234014   9.538   1.998   4.998
11258WAT      O34015   5.867   1.173   8.432
11258WAT     H134016   5.907   1.208   8.348
11258WAT     H234017   5.768   1.186   8.430
11259WAT      O34018   5.222   7.446   2.003
11259WAT     H134019   5.245   7.391   2.083
11259WAT     H234020   5.274   7.532   2.006
11260WAT      O34021   6.875   3.459   7.598
11260WAT     H134022   6.966   3.456   7.556
11260WAT     H234023   6.821   3.382   7.565
11261WAT      O34024   4.225   8.085   6.698
11261WAT     H134025   4.128   8.061   6.689
11261WAT     H234026   4.237   8.183   6.683
11262WAT      O34027   5.121   4.554   2.587
11262WAT     H134028   5.064   4.634   2.571
11262WAT     H234029   5.208   4.564   2.537
11263WAT      O34030   2.677   2.920   1.526
11263WAT     H134031   2.717   2.877   1.445
11263WAT     H234032   2.584   2.886   1.539
11264WAT      O34033   6.319   0.023   5.374
11264WAT     H134034   6.411  -0.013   5.357
11264WAT     H234035   6.319   0.077   5.459
11265WAT      O34036   0.167   4.348   9.877
11265WAT     H134037   0.215   4.307   9.955
11265WAT     H234038   0.100   4.414   9.911
11266WAT      O34039   5.976   0.832   9.738
11266WAT     H134040   5.974   0.792   9.646
11266WAT     H234041   5.926   0.772   9.800
11267WAT      O34042   9.081   3.923   3.583
11267WAT     H134043   9.072   3.823   3.583
11267WAT     H234044   9.047   3.959   3.496
11268WAT      O34045   4.687   7.383   7.138
11268WAT     H134046   4.589   7.405   7.145
11268WAT     H234047   4.700   7.308   7.072
11269WAT      O34048   3.602   0.476   1.149
11269WAT     H134049   3.595   0.482   1.050
11269WAT     H234050   3.559   0.392   1.181
11270WAT      O34051   6.848   3.765   7.733
11270WAT     H134052   6.860   3.695   7.804
11270WAT     H234053   6.758   3.754   7.690
11271WAT      O34054   9.019   5.614   4.021
11271WAT     H134055   9.080   5.539   3.998
11271WAT     H234056   8.924   5.584   4.011
11272WAT      O34057   9.647   7.099   9.207
11272WAT     H134058   9.630   7.103   9.109
11272WAT     H234059   9.585   7.163   9.254
11273WAT      O34060   7.632   7.231   1.643
11273WAT     H134061   7.590   7.243   1.733
11273WAT     H234062   7.685   7.313   1.621
11274WAT      O34063   0.216   3.829   2.959
11274WAT     H134064   0.223   3.887   3.040
11274WAT     H234065   0.264   3.873   2.882
11275WAT      O34066   4.003   3.155   9.800
11275WAT     H134067   3.952   3.185   9.881
11275WAT     H234068   4.035   3.061   9.814
11276WAT      O34069   8.548   8.394   6.913
11276WAT     H134070   8.524   8.322   6.978
11276WAT     H234071   8.614   8.457   6.955
11277WAT      O34072   5.426   7.595   9.235
11277WAT     H134073   5.471   7.616   9.321
11277WAT     H234074   5.473   7.643   9.160
11278WAT      O34075   2.753   4.164   9.647
11278WAT     H134076   2.711   4.230   9.709
11278WAT     H234077   2.815   4.105   9.699
11279WAT      O34078   1.775   3.020   3.719
11279WAT     H134079   1.801   3.097   3.662
11279WAT     H234080   1.686   3.037   3.760
11280WAT      O34081   0.518   7.382   7.724
11280WAT     H134082   0.477   7.370   7.634
11280WAT     H234083   0.565   7.470   7.728
11281WAT      O34084   5.048   1.969   5.459
11281WAT     H134085   5.007   1.891   5.410
11281WAT     H234086   5.132   1.939   5.504
11282WAT      O34087   2.121   4.034   5.607
11282WAT     H134088   2.119   4.069   5.700
11282WAT     H234089   2.193   3.964   5.599
11283WAT      O34090   7.271   1.532   1.099
11283WAT     H134091   7.313   1.461   1.042
11283WAT     H234092   7.201   1.491   1.157
11284WAT      O34093   2.781   1.106   5.773
11284WAT     H134094   2.783   1.021   5.826
11284WAT     H234095   2.783   1.184   5.834
11285WAT      O34096   0.865   4.077   4.920
11285WAT     H134097   0.957   4.086   4.884
11285WAT     H234098   0.838   4.162   4.966
11286WAT      O34099   2.368   8.755   5.225
11286WAT     H134100   2.439   8.793   5.166
11286WAT     H234101   2.327   8.828   5.279
11287WAT      O34102   0.068   0.108   8.878
11287WAT     H134103   0.152   0.082   8.831
11287WAT     H234104   0.084   0.115   8.976
11288WAT      O34105   3.522   6.616   3.964
11288WAT     H134106   3.550   6.608   3.869
11288WAT     H234107   3.429   6.580   3.974
11289WAT      O34108   0.202   4.878   8.666
11289WAT     H134109   0.197   4.931   8.581
11289WAT     H234110   0.155   4.791   8.654
11290WAT      O34111   6.078   8.277   5.831
11290WAT     H134112   5.998   8.287   5.891
11290WAT     H234113   6.090   8.360   5.776
11291WAT      O34114   3.806   5.850   6.147
11291WAT     H134115   3.870   5.906   6.200
11291WAT     H234116   3.728   5.905   6.120
11292WAT      O34117   2.636   0.622   4.161
11292WAT     H134118   2.655   0.706   4.110
11292WAT     H234119   2.565   0.570   4.115
11293WAT      O34120   2.454   4.479   2.992
11293WAT     H134121   2.398   4.438   2.920
11293WAT     H234122   2.543   4.505   2.954
11294WAT      O34123   7.608   4.199   6.178
11294WAT     H134124   7.558   4.284   6.165
11294WAT     H234125   7.701   4.219   6.209
11295WAT      O34126   8.777   8.508   2.923
11295WAT     H134127   8.736   8.582   2.977
11295WAT     H234128   8.835   8.547   2.851
11296WAT      O34129   2.125   7.971   2.956
11296WAT     H134130   2.180   7.988   2.875
11296WAT     H234131   2.179   7.920   3.023
11297WAT      O34132   7.068   1.501   0.589
11297WAT     H134133   7.106   1.580   0.637
11297WAT     H234134   7.125   1.479   0.509
11298WAT      O34135   2.175   0.709   1.420
11298WAT     H134136   2.220   0.631   1.376
11298WAT     H234137   2.194   0.792   1.367
11299WAT      O34138   8.556   4.419   1.243
11299WAT     H134139   8.578   4.456   1.153
11299WAT     H234140   8.632   4.437   1.305
11300WAT      O34141   0.953   6.469   3.738
11300WAT     H134142   1.009   6.428   3.665
11300WAT     H234143   0.991   6.445   3.827
11301WAT      O34144   3.971   7.637   5.296
11301WAT     H134145   3.939   7.720   5.250
11301WAT     H234146   4.045   7.596   5.243
11302WAT      O34147   9.226   5.366   8.039
11302WAT     H134148   9.187   5.456   8.058
11302WAT     H234149   9.164   5.295   8.073
11303WAT      O34150   1.536   3.083   3.849
11303WAT     H134151   1.455   3.037   3.812
11303WAT     H234152   1.537   3.073   3.949
11304WAT      O34153   7.224   3.408   7.749
11304WAT     H134154   7.196   3.355   7.670
11304WAT     H234155   7.160   3.394   7.824
11305WAT      O34156   9.022   8.168   6.856
11305WAT     H134157   9.082   8.094   6.887
11305WAT     H234158   8.978   8.211   6.935
11306WAT      O34159   8.047   5.780   7.493
11306WAT     H134160   8.087   5.835   7.419
11306WAT     H234161   8.082   5.687   7.488
11307WAT      O34162   5.292   6.069   5.005
11307WAT     H134163   5.209   6.062   4.951
11307WAT     H234164   5.293   5.997   5.075
11308WAT      O34165   0.935   0.798   3.370
11308WAT     H134166   0.850   0.837   3.334
11308WAT     H234167   0.931   0.799   3.470
11309WAT      O34168   4.606   6.156   7.916
11309WAT     H134169   4.695   6.198   7.930
11309WAT     H234170   4.535   6.208   7.964
11310WAT      O34171   7.669   0.795   8.631
11310WAT     H134172   7.623   0.735   8.567
11310WAT     H234173   7.753   0.832   8.590
11311WAT      O34174   4.779   6.867   0.029
11311WAT     H134175   4.733   6.912  -0.047
11311WAT     H234176   4.853   6.810  -0.007
11312WAT      O34177   0.141   5.747   4.701
11312WAT     H134178   0.042   5.745   4.711
11312WAT     H234179   0.170   5.675   4.638
11313WAT      O34180   1.347   2.425   5.923
11313WAT     H134181   1.391   2.497   5.870
11313WAT     H234182   1.270   2.463   5.974
11314WAT      O34183   0.847   3.569   3.305
11314WAT     H134184   0.779   3.627   3.260
11314WAT     H234185   0.839   3.579   3.404
11315WAT      O34186   7.082   8.519   4.192
11315WAT     H134187   7.033   8.504   4.278
11315WAT     H234188   7.066   8.612   4.160
11316WAT      O34189   7.927   3.777   0.512
11316WAT     H134190   7.958   3.789   0.606
11316WAT     H234191   7.827   3.780   0.509
11317WAT      O34192   4.603   2.141   4.490
11317WAT     H134193   4.513   2.165   4.454
11317WAT     H234194   4.665   2.122   4.414
11318WAT      O34195   6.668   1.580   4.843
11318WAT     H134196   6.605   1.560   4.767
11318WAT     H234197   6.644   1.522   4.921
11319WAT      O34198   3.162   0.549   6.780
11319WAT     H134199   3.150   0.537   6.879
11319WAT     H234200   3.201   0.639   6.762
11320WAT      O34201   8.826   6.974   8.746
11320WAT     H134202   8.856   6.884   8.715
11320WAT     H234203   8.843   6.983   8.844
11321WAT      O34204   3.350   2.237   5.435
11321WAT     H134205   3.377   2.208   5.344
11321WAT     H234206   3.430   2.267   5.486
11322WAT      O34207   3.327   5.610   0.968
11322WAT     H134208   3.351   5.705   0.992
11322WAT     H234209   3.230   5.605   0.944
11323WAT      O34210   7.484   6.298   0.785
11323WAT     H134211   7.490   6.395   0.811
11323WAT     H234212   7.427   6.289   0.703
11324WAT      O34213   1.381   1.345   1.517
11324WAT     H134214   1.473   1.360   1.481
11324WAT     H234215   1.386   1.313   1.611
11325WAT      O34216   0.213   5.034   1.989
11325WAT     H134217   0.118   5.041   2.018
11325WAT     H234218   0.267   4.989   2.059
11326WAT      O34219   7.667   5.052   3.198
11326WAT     H134220   7.685   5.144   3.234
11326WAT     H234221   7.667   5.055   3.098
11327WAT      O34222   2.424   3.303   4.228
11327WAT     H134223   2.345   3.262   4.183
11327WAT     H234224   2.492   3.232   4.247
11328WAT      O34225   6.423   8.373   5.168
11328WAT     H134226   6.441   8.338   5.076
11328WAT     H234227   6.480   8.454   5.184
11329WAT      O34228   6.691   9.233   6.072
11329WAT     H134229   6.670   9.164   6.002
11329WAT     H234230   6.605   9.269   6.108
11330WAT      O34231   0.032   8.730   4.640
11330WAT     H134232   0.088   8.663   4.688
11330WAT     H234233   0.085   8.814   4.626
11331WAT      O34234   4.453   3.020   4.793
11331WAT     H134235   4.428   3.104   4.840
11331WAT     H234236   4.389   2.948   4.818
11332WAT      O34237   4.777   1.387   2.470
11332WAT     H134238   4.745   1.333   2.549
11332WAT     H234239   4.811   1.475   2.502
11333WAT      O34240   2.165   5.134   4.875
11333WAT     H134241   2.134   5.075   4.950
11333WAT     H234242   2.197   5.221   4.912
11334WAT      O34243   9.683   6.562   2.467
11334WAT     H134244   9.658   6.556   2.370
11334WAT     H234245   9.684   6.470   2.507
11335WAT      O34246   2.125   4.964   8.794
11335WAT     H134247   2.118   5.033   8.867
11335WAT     H234248   2.095   4.876   8.829
11336WAT      O34249   4.999   9.564   6.143
11336WAT     H134250   4.902   9.550   6.125
11336WAT     H234251   5.026   9.511   6.224
11337WAT      O34252   7.722   2.984   5.257
11337WAT     H134253   7.817   3.003   5.230
11337WAT     H234254   7.695   3.048   5.329
11338WAT      O34255   7.110   4.547   9.472
11338WAT     H134256   7.147   4.477   9.534
11338WAT     H234257   7.033   4.594   9.517
11339WAT      O34258   9.327   4.922   9.638
11339WAT     H134259   9.403   4.903   9.576
11339WAT     H234260   9.324   4.851   9.709
11340WAT      O34261   4.204   9.375   9.763
11340WAT     H134262   4.185   9.310   9.838
11340WAT     H234263   4.288   9.425   9.783
11341WAT      O34264   0.346   9.468   6.702
11341WAT     H134265   0.251   9.501   6.706
11341WAT     H234266   0.347   9.376   6.663
11342WAT      O34267   9.865   6.537   8.412
11342WAT     H134268   9.844   6.444   8.381
11342WAT     H234269   9.861   6.541   8.512
11343WAT      O34270   7.209   9.198   6.484
11343WAT     H134271   7.144   9.163   6.551
11343WAT     H234272   7.198   9.298   6.476
11344WAT      O34273   0.119   6.238   6.864
11344WAT     H134274   0.074   6.245   6.953
11344WAT     H234275   0.215   6.265   6.872
11345WAT      O34276   9.420   3.868   6.038
11345WAT     H134277   9.358   3.806   6.086
11345WAT     H234278   9.514   3.847   6.061
11346WAT      O34279   9.138   3.742   8.852
11346WAT     H134280   9.098   3.790   8.774
11346WAT     H234281   9.168   3.651   8.823
11347WAT      O34282   2.340   6.134   8.687
11347WAT     H134283   2.264   6.083   8.727
11347WAT     H234284   2.308   6.226   8.662
11348WAT      O34285   9.706   9.244   1.598
11348WAT     H134286   9.639   9.236   1.672
11348WAT     H234287   9.715   9.155   1.553
11349WAT      O34288   2.275   5.143   2.220
11349WAT     H134289   2.182   5.109   2.235
11349WAT     H234290   2.298   5.132   2.124
11350WAT      O34291   6.984   9.597   4.188
11350WAT     H134292   6.992   9.499   4.208
11350WAT     H234293   7.059   9.625   4.129
11351WAT      O34294   7.640   9.529   3.457
11351WAT     H134295   7.578   9.451   3.461
11351WAT     H234296   7.735   9.497   3.455
11352WAT      O34297   0.470   2.725   7.080
11352WAT     H134298   0.390   2.722   7.021
11352WAT     H234299   0.459   2.661   7.156
11353WAT      O34300   4.963   3.325   3.230
11353WAT     H134301   4.956   3.424   3.219
11353WAT     H234302   4.906   3.280   3.160
11354WAT      O34303   0.985   4.914   2.828
11354WAT     H134304   0.921   4.851   2.872
11354WAT     H234305   0.937   4.966   2.757
11355WAT      O34306   4.026   7.801   4.661
11355WAT     H134307   4.003   7.857   4.740
11355WAT     H234308   4.083   7.854   4.598
11356WAT      O34309   9.301   8.925   7.013
11356WAT     H134310   9.366   8.965   7.077
11356WAT     H234311   9.307   8.825   7.017
11357WAT      O34312   1.736   2.806   4.164
11357WAT     H134313   1.730   2.737   4.092
11357WAT     H234314   1.719   2.763   4.252
11358WAT      O34315   5.044   5.512   2.758
11358WAT     H134316   4.989   5.503   2.841
11358WAT     H234317   5.066   5.422   2.723
11359WAT      O34318   3.080   6.353   8.954
11359WAT     H134319   3.069   6.435   8.898
11359WAT     H234320   2.992   6.307   8.963
11360WAT      O34321   7.711   4.553   2.267
11360WAT     H134322   7.635   4.593   2.318
11360WAT     H234323   7.797   4.574   2.315
11361WAT      O34324   4.509   4.796   1.706
11361WAT     H134325   4.413   4.776   1.725
11361WAT     H234326   4.565   4.718   1.732
11362WAT      O34327   6.467   2.674   0.230
11362WAT     H134328   6.386   2.690   0.174
11362WAT     H234329   6.518   2.760   0.239
11363WAT      O34330   9.841   1.414   7.168
11363WAT     H134331   9.769   1.357   7.127
11363WAT     H234332   9.841   1.504   7.125
11364WAT      O34333   5.381   7.037   4.966
11364WAT     H134334   5.389   6.979   4.884
11364WAT     H234335   5.469   7.079   4.985
11365WAT      O34336   0.066   3.812   3.368
11365WAT     H134337   0.006   3.766   3.304
11365WAT     H234338   0.012   3.868   3.431
11366WAT      O34339   8.170   7.697   7.499
11366WAT     H134340   8.186   7.758   7.577
11366WAT     H234341   8.097   7.735   7.442
11367WAT      O34342   8.427   7.814   6.818
11367WAT     H134343   8.488   7.749   6.772
11367WAT     H234344   8.482   7.881   6.868
11368WAT      O34345   2.813   5.178   2.460
11368WAT     H134346   2.910   5.177   2.483
11368WAT     H234347   2.795   5.255   2.399
11369WAT      O34348   5.189   1.477   5.082
11369WAT     H134349   5.285   1.499   5.069
11369WAT     H234350   5.132   1.543   5.033
11370WAT      O34351   0.362   5.954   8.846
11370WAT     H134352   0.396   5.974   8.938
11370WAT     H234353   0.431   5.977   8.778
11371WAT      O34354   2.558   1.657   1.925
11371WAT     H134355   2.461   1.661   1.904
11371WAT     H234356   2.592   1.564   1.909
11372WAT      O34357   9.693   3.909   9.438
11372WAT     H134358   9.733   3.911   9.530
11372WAT     H234359   9.651   3.997   9.418
11373WAT      O34360   0.481   7.641   8.344
11373WAT     H134361   0.382   7.644   8.330
11373WAT     H234362   0.524   7.588   8.271
11374WAT      O34363   0.436   5.892   7.404
11374WAT     H134364   0.518   5.897   7.346
11374WAT     H234365   0.357   5.925   7.353
11375WAT      O34366   7.654   3.641   8.343
11375WAT     H134367   7.698   3.568   8.396
11375WAT     H234368   7.693   3.729   8.369
11376WAT      O34369   3.769   4.495   4.480
11376WAT     H134370   3.770   4.431   4.403
11376WAT     H234371   3.769   4.443   4.565
11377WAT      O34372   3.081   3.967   4.864
11377WAT     H134373   2.998   3.918   4.837
11377WAT     H234374   3.129   3.913   4.933
11378WAT      O34375   2.172   5.140   9.718
11378WAT     H134376   2.127   5.070   9.773
11378WAT     H234377   2.261   5.161   9.757
11379WAT      O34378   1.167   4.004   7.084
11379WAT     H134379   1.190   3.952   7.002
11379WAT     H234380   1.160   3.943   7.162
11380WAT      O34381   9.568   3.644   8.678
11380WAT     H134382   9.572   3.679   8.772
11380WAT     H234383   9.563   3.544   8.681
11381WAT      O34384   3.961   3.091   6.402
11381WAT     H134385   3.921   3.039   6.326
11381WAT     H234386   3.944   3.043   6.488
11382WAT      O34387   8.853   5.080   1.398
11382WAT     H134388   8.812   5.021   1.328
11382WAT     H234389   8.787   5.151   1.425
11383WAT      O34390   7.662   7.125   7.527
11383WAT     H134391   7.569   7.111   7.495
11383WAT     H234392   7.664   7.124   7.627
11384WAT      O34393   0.981   2.008   9.060
11384WAT     H134394   1.044   2.023   9.137
11384WAT     H234395   1.027   2.031   8.974
11385WAT      O34396   0.317   4.557   5.610
11385WAT     H134397   0.260   4.610   5.547
11385WAT     H234398   0.389   4.511   5.558
11386WAT      O34399   8.830   2.086   1.317
11386WAT     H134400   8.772   2.027   1.373
11386WAT     H234401   8.923   2.050   1.316
11387WAT      O34402   1.138   7.915   2.804
11387WAT     H134403   1.088   7.830   2.788
11387WAT     H234404   1.087   7.972   2.869
11388WAT      O34405   2.519   2.199   1.151
11388WAT     H134406   2.575   2.115   1.148
11388WAT     H234407   2.575   2.277   1.122
11389WAT      O34408   7.757   6.965   2.012
11389WAT     H134409   7.847   6.926   2.031
11389WAT     H234410   7.731   6.942   1.918
11390WAT      O34411   0.560   7.450   5.239
11390WAT     H134412   0.561   7.406   5.328
11390WAT     H234413   0.611   7.394   5.173
11391WAT      O34414   5.383   3.000   8.609
11391WAT     H134415   5.426   2.910   8.602
11391WAT     H234416   5.413   3.058   8.533
11392WAT      O34417   4.103   1.097   5.201
11392WAT     H134418   4.072   1.053   5.285
11392WAT     H234419   4.034   1.083   5.129
11393WAT      O34420   0.085   3.766   1.484
11393WAT     H134421   0.170   3.741   1.531
11393WAT     H234422   0.093   3.743   1.387
11394WAT      O34423   1.779   7.451   5.000
11394WAT     H134424   1.778   7.353   5.023
11394WAT     H234425   1.689   7.491   5.019
11395WAT      O34426   1.868   3.976   0.349
11395WAT     H134427   1.792   3.962   0.285
11395WAT     H234428   1.923   4.054   0.319
11396WAT      O34429   6.978   5.917   3.310
11396WAT     H134430   6.955   5.969   3.392
11396WAT     H234431   7.056   5.858   3.329
11397WAT      O34432   3.234   1.775   8.799
11397WAT     H134433   3.261   1.784   8.703
11397WAT     H234434   3.275   1.850   8.851
11398WAT      O34435   2.595   7.875   4.326
11398WAT     H134436   2.523   7.837   4.384
11398WAT     H234437   2.682   7.877   4.376
11399WAT      O34438   0.809   9.676   4.749
11399WAT     H134439   0.887   9.653   4.690
11399WAT     H234440   0.826   9.763   4.795
11400WAT      O34441   5.062   0.538   0.678
11400WAT     H134442   5.002   0.487   0.739
11400WAT     H234443   5.144   0.484   0.659
11401WAT      O34444   9.702   4.160   6.637
11401WAT     H134445   9.781   4.184   6.580
11401WAT     H234446   9.665   4.072   6.607
11402WAT      O34447   9.728   4.672   7.423
11402WAT     H134448   9.711   4.633   7.514
11402WAT     H234449   9.683   4.761   7.416
11403WAT      O34450   1.616   8.269   6.987
11403WAT     H134451   1.705   8.311   7.005
11403WAT     H234452   1.611   8.180   7.033
11404WAT      O34453   6.769   2.399   9.158
11404WAT     H134454   6.715   2.362   9.233
11404WAT     H234455   6.859   2.425   9.192
11405WAT      O34456   8.797   2.237   5.569
11405WAT     H134457   8.743   2.285   5.500
11405WAT     H234458   8.883   2.207   5.530
11406WAT      O34459   8.607   5.446   6.866
11406WAT     H134460   8.581   5.532   6.912
11406WAT     H234461   8.524   5.401   6.832
11407WAT      O34462   7.899   1.089   6.346
11407WAT     H134463   7.998   1.099   6.356
11407WAT     H234464   7.876   0.993   6.334
11408WAT      O34465   0.731   4.438   9.402
11408WAT     H134466   0.665   4.413   9.332
11408WAT     H234467   0.756   4.358   9.455
11409WAT      O34468   2.616   4.517   4.045
11409WAT     H134469   2.649   4.597   3.994
11409WAT     H234470   2.667   4.508   4.130
11410WAT      O34471   6.977   3.552   8.936
11410WAT     H134472   6.983   3.550   8.836
11410WAT     H234473   6.942   3.640   8.966
11411WAT      O34474   7.257   6.777   2.779
11411WAT     H134475   7.205   6.740   2.856
11411WAT     H234476   7.258   6.711   2.704
11412WAT      O34477   9.023   4.469   5.438
11412WAT     H134478   9.068   4.450   5.525
11412WAT     H234479   9.092   4.477   5.366
11413WAT      O34480   0.365   4.817   5.135
11413WAT     H134481   0.460   4.832   5.108
11413WAT     H234482   0.305   4.870   5.076
11414WAT      O34483   0.917   4.993   8.232
11414WAT     H134484   0.891   5.025   8.323
11414WAT     H234485   1.017   4.994   8.224
11415WAT      O34486   0.501   5.674   6.534
11415WAT     H134487   0.432   5.609   6.502
11415WAT     H234488   0.458   5.762   6.552
11416WAT      O34489   3.250   0.841   5.034
11416WAT     H134490   3.160   0.866   5.000
11416WAT     H234491   3.317   0.849   4.961
11417WAT      O34492   2.143   7.567   8.304
11417WAT     H134493   2.051   7.530   8.287
11417WAT     H234494   2.151   7.657   8.262
11418WAT      O34495   9.638   0.164   6.143
11418WAT     H134496   9.696   0.117   6.210
11418WAT     H234497   9.542   0.149   6.166
11419WAT      O34498   7.936   8.323   2.749
11419WAT     H134499   7.991   8.359   2.674
11419WAT     H234500   7.945   8.383   2.828
11420WAT      O34501   9.347   5.159   7.886
11420WAT     H134502   9.297   5.229   7.937
11420WAT     H234503   9.441   5.190   7.871
11421WAT      O34504   7.456   1.422   6.929
11421WAT     H134505   7.499   1.404   6.841
11421WAT     H234506   7.364   1.382   6.931
11422WAT      O34507   2.384   1.308   3.075
11422WAT     H134508   2.421   1.240   3.138
11422WAT     H234509   2.284   1.303   3.078
11423WAT      O34510   2.430   1.943   8.165
11423WAT     H134511   2.406   2.040   8.174
11423WAT     H234512   2.348   1.888   8.180
11424WAT      O34513   5.329   2.372   9.738
11424WAT     H134514   5.362   2.455   9.692
11424WAT     H234515   5.288   2.397   9.826
11425WAT      O34516   8.566   3.636   8.212
11425WAT     H134517   8.517   3.562   8.257
11425WAT     H234518   8.655   3.603   8.180
11426WAT      O34519   2.225   6.375   8.584
11426WAT     H134520   2.309   6.359   8.534
11426WAT     H234521   2.151   6.397   8.519
11427WAT      O34522   5.075   3.899   1.272
11427WAT     H134523   5.106   3.994   1.277
11427WAT     H234524   5.147   3.843   1.231
11428WAT      O34525   8.442   7.876   1.159
11428WAT     H134526   8.364   7.824   1.125
11428WAT     H234527   8.519   7.868   1.095
11429WAT      O34528   4.802   5.409   7.483
11429WAT     H134529   4.897   5.417   7.511
11429WAT     H234530   4.797   5.407   7.383
11430WAT      O34531   4.708   3.510   5.964
11430WAT     H134532   4.716   3.595   5.912
11430WAT     H234533   4.790   3.454   5.950
11431WAT      O34534   3.967   3.549   9.672
11431WAT     H134535   4.055   3.595   9.666
11431WAT     H234536   3.922   3.551   9.583
11432WAT      O34537   9.561   3.000   8.119
11432WAT     H134538   9.482   2.948   8.152
11432WAT     H234539   9.579   3.076   8.181
11433WAT      O34540   0.744   3.592   1.726
11433WAT     H134541   0.761   3.641   1.641
11433WAT     H234542   0.658   3.624   1.766
11434WAT      O34543   3.989   5.609   3.672
11434WAT     H134544   4.041   5.544   3.728
11434WAT     H234545   3.892   5.588   3.679
11435WAT      O34546   2.911   9.503   0.211
11435WAT     H134547   2.860   9.582   0.178
11435WAT     H234548   2.985   9.533   0.272
11436WAT      O34549   6.156   8.660   1.177
11436WAT     H134550   6.114   8.570   1.181
11436WAT     H234551   6.085   8.730   1.185
11437WAT      O34552   9.332   1.377   9.232
11437WAT     H134553   9.399   1.419   9.293
11437WAT     H234554   9.325   1.280   9.252
11438WAT      O34555   8.136   6.464   4.380
11438WAT     H134556   8.206   6.526   4.345
11438WAT     H234557   8.082   6.427   4.304
11439WAT      O34558   5.352   4.526   2.439
11439WAT     H134559   5.411   4.584   2.496
11439WAT     H234560   5.407   4.454   2.397
11440WAT      O34561   4.328   5.603   6.726
11440WAT     H134562   4.342   5.610   6.824
11440WAT     H234563   4.399   5.544   6.686
11441WAT      O34564   2.204   2.598   9.311
11441WAT     H134565   2.137   2.539   9.266
11441WAT     H234566   2.209   2.575   9.408
11442WAT      O34567   1.923   5.558   9.243
11442WAT     H134568   1.970   5.597   9.322
11442WAT     H234569   1.826   5.545   9.265
11443WAT      O34570   0.167   3.741   7.488
11443WAT     H134571   0.256   3.782   7.508
11443WAT     H234572   0.145   3.675   7.560
11444WAT      O34573   7.889   5.789   9.036
11444WAT     H134574   7.935   5.798   9.124
11444WAT     H234575   7.949   5.744   8.970
11445WAT      O34576   3.769   6.280   0.960
11445WAT     H134577   3.846   6.313   0.906
11445WAT     H234578   3.803   6.239   1.045
11446WAT      O34579   2.909   0.391   1.464
11446WAT     H134580   2.928   0.334   1.544
11446WAT     H234581   2.906   0.333   1.382
11447WAT      O34582   3.609   9.162   6.895
11447WAT     H134583   3.704   9.190   6.879
11447WAT     H234584   3.583   9.095   6.825
11448WAT      O34585   2.507   3.422   8.614
11448WAT     H134586   2.600   3.423   8.651
11448WAT     H234587   2.500   3.351   8.544
11449WAT      O34588   5.292   7.228   8.708
11449WAT     H134589   5.345   7.258   8.787
11449WAT     H234590   5.257   7.136   8.725
11450WAT      O34591   2.683   8.747   8.828
11450WAT     H134592   2.599   8.794   8.857
11450WAT     H234593   2.762   8.799   8.859
11451WAT      O34594   7.017   9.117   8.232
11451WAT     H134595   6.978   9.207   8.214
11451WAT     H234596   6.950   9.046   8.208
11452WAT      O34597   3.842   1.588   7.433
11452WAT     H134598   3.873   1.620   7.522
11452WAT     H234599   3.894   1.508   7.405
11453WAT      O34600   7.915   4.288   4.281
11453WAT     H134601   8.011   4.263   4.272
11453WAT     H234602   7.876   4.304   4.190
11454WAT      O34603   7.380   1.450   5.735
11454WAT     H134604   7.383   1.470   5.637
11454WAT     H234605   7.285   1.439   5.764
11455WAT      O34606   9.206   6.428   6.334
11455WAT     H134607   9.161   6.517   6.326
11455WAT     H234608   9.251   6.405   6.247
11456WAT      O34609   9.385   8.861   1.700
11456WAT     H134610   9.410   8.864   1.603
11456WAT     H234611   9.291   8.891   1.711
11457WAT      O34612   1.144   0.174   7.186
11457WAT     H134613   1.081   0.098   7.199
11457WAT     H234614   1.161   0.187   7.088
11458WAT      O34615   7.198   2.090   9.700
11458WAT     H134616   7.106   2.128   9.710
11458WAT     H234617   7.214   2.065   9.605
11459WAT      O34618   4.676   3.422   8.829
11459WAT     H134619   4.754   3.420   8.767
11459WAT     H234620   4.645   3.516   8.842
11460WAT      O34621   2.314   8.537   7.421
11460WAT     H134622   2.362   8.624   7.410
11460WAT     H234623   2.284   8.504   7.331
11461WAT      O34624   9.430   2.110   1.720
11461WAT     H134625   9.477   2.023   1.731
11461WAT     H234626   9.449   2.147   1.629
11462WAT      O34627   4.068   9.798   0.019
11462WAT     H134628   4.073   9.820   0.117
11462WAT     H234629   3.991   9.846  -0.023
11463WAT      O34630   7.411   5.686   6.200
11463WAT     H134631   7.363   5.695   6.113
11463WAT     H234632   7.508   5.708   6.187
11464WAT      O34633   2.664   4.344   7.401
11464WAT     H134634   2.721   4.265   7.380
11464WAT     H234635   2.704   4.395   7.478
11465WAT      O34636   5.484   1.510   2.874
11465WAT     H134637   5.514   1.578   2.807
11465WAT     H234638   5.462   1.425   2.827
11466WAT      O34639   4.540   6.773   2.821
11466WAT     H134640   4.471   6.838   2.854
11466WAT     H234641   4.498   6.682   2.812
11467WAT      O34642   2.256   0.264   2.522
11467WAT     H134643   2.262   0.251   2.423
11467WAT     H234644   2.176   0.215   2.558
11468WAT      O34645   0.975   8.659   9.881
11468WAT     H134646   0.977   8.747   9.834
11468WAT     H234647   0.995   8.671   9.978
11469WAT      O34648   7.642   4.761   0.273
11469WAT     H134649   7.663   4.799   0.183
11469WAT     H234650   7.726   4.756   0.327
11470WAT      O34651   3.178   0.416   8.504
11470WAT     H134652   3.088   0.378   8.529
11470WAT     H234653   3.167   0.484   8.432
11471WAT      O34654   6.978   3.192   5.411
11471WAT     H134655   7.066   3.228   5.442
11471WAT     H234656   6.935   3.141   5.486
11472WAT      O34657   5.695   5.588   6.228
11472WAT     H134658   5.733   5.496   6.216
11472WAT     H234659   5.708   5.641   6.144
11473WAT      O34660   0.931   8.120   6.262
11473WAT     H134661   0.964   8.041   6.314
11473WAT     H234662   0.870   8.174   6.319
11474WAT      O34663   0.947   5.016   5.743
11474WAT     H134664   0.894   5.097   5.716
11474WAT     H234665   1.039   5.022   5.703
11475WAT      O34666   0.606   6.466   5.655
11475WAT     H134667   0.514   6.434   5.677
11475WAT     H234668   0.605   6.514   5.567
11476WAT      O34669   6.255   6.576   7.740
11476WAT     H134670   6.252   6.503   7.671
11476WAT     H234671   6.286   6.538   7.827
11477WAT      O34672   4.560   2.163   8.145
11477WAT     H134673   4.641   2.198   8.099
11477WAT     H234674   4.548   2.210   8.233
11478WAT      O34675   7.582   4.543   0.488
11478WAT     H134676   7.522   4.469   0.520
11478WAT     H234677   7.674   4.507   0.474
11479WAT      O34678   9.018   5.809   1.917
11479WAT     H134679   8.985   5.753   1.841
11479WAT     H234680   9.077   5.754   1.976
11480WAT      O34681   1.403   1.855   2.711
11480WAT     H134682   1.407   1.917   2.632
11480WAT     H234683   1.362   1.769   2.683
11481WAT      O34684   8.916   7.578   6.493
11481WAT     H134685   8.982   7.645   6.460
11481WAT     H234686   8.926   7.567   6.592
11482WAT      O34687   5.203   7.247   8.332
11482WAT     H134688   5.244   7.329   8.371
11482WAT     H234689   5.147   7.272   8.253
11483WAT      O34690   8.135   3.000   0.850
11483WAT     H134691   8.105   3.065   0.920
11483WAT     H234692   8.089   3.020   0.764
11484WAT      O34693   4.485   3.009   1.195
11484WAT     H134694   4.425   3.069   1.249
11484WAT     H234695   4.539   2.952   1.257
11485WAT      O34696   8.028   8.911   7.134
11485WAT     H134697   8.030   8.982   7.064
11485WAT     H234698   7.934   8.883   7.150
11486WAT      O34699   9.028   1.996   6.154
11486WAT     H134700   9.110   1.940   6.143
11486WAT     H234701   8.948   1.937   6.164
11487WAT      O34702   0.557   1.432   8.923
11487WAT     H134703   0.646   1.453   8.883
11487WAT     H234704   0.569   1.369   9.001
11488WAT      O34705   2.642   4.505   2.761
11488WAT     H134706   2.722   4.454   2.729
11488WAT     H234707   2.656   4.603   2.744
11489WAT      O34708   4.180   9.601   3.958
11489WAT     H134709   4.202   9.612   3.862
11489WAT     H234710   4.256   9.557   4.006
11490WAT      O34711   6.496   0.753   6.334
11490WAT     H134712   6.532   0.757   6.241
11490WAT     H234713   6.422   0.821   6.344
11491WAT      O34714   0.922   4.552   9.653
11491WAT     H134715   0.855   4.532   9.581
11491WAT     H234716   0.884   4.525   9.742
11492WAT      O34717   3.507   0.329   5.909
11492WAT     H134718   3.601   0.360   5.896
11492WAT     H234719   3.454   0.349   5.826
11493WAT      O34720   0.408   2.583   5.409
11493WAT     H134721   0.459   2.592   5.494
11493WAT     H234722   0.326   2.527   5.425
11494WAT      O34723   8.057   6.433   7.261
11494WAT     H134724   8.018   6.491   7.190
11494WAT     H234725   8.153   6.416   7.242
11495WAT      O34726   2.917   6.383   5.717
11495WAT     H134727   2.831   6.413   5.759
11495WAT     H234728   2.980   6.460   5.712
11496WAT      O34729   2.474   3.577   6.777
11496WAT     H134730   2.556   3.520   6.768
11496WAT     H234731   2.393   3.523   6.756
11497WAT      O34732   7.108   6.932   7.233
11497WAT     H134733   7.035   6.865   7.219
11497WAT     H234734   7.162   6.905   7.313
11498WAT      O34735   2.935   2.323   5.933
11498WAT     H134736   2.975   2.393   5.875
11498WAT     H234737   2.848   2.355   5.969
11499WAT      O34738   4.980   5.821   4.128
11499WAT     H134739   4.998   5.819   4.030
11499WAT     H234740   4.902   5.763   4.149
11500WAT      O34741   7.434   7.156   2.013
11500WAT     H134742   7.399   7.143   2.106
11500WAT     H234743   7.475   7.071   1.981
11501WAT      O34744   7.650   3.353   9.171
11501WAT     H134745   7.703   3.394   9.246
11501WAT     H234746   7.705   3.355   9.088
11502WAT      O34747   2.325   6.516   5.378
11502WAT     H134748   2.238   6.557   5.354
11502WAT     H234749   2.318   6.416   5.369
11503WAT      O34750   4.436   4.517   8.269
11503WAT     H134751   4.494   4.503   8.349
11503WAT     H234752   4.493   4.536   8.189
11504WAT      O34753   1.549   5.212   6.641
11504WAT     H134754   1.557   5.112   6.643
11504WAT     H234755   1.594   5.250   6.722
11505WAT      O34756   1.022   4.626   9.090
11505WAT     H134757   1.108   4.613   9.040
11505WAT     H234758   0.985   4.537   9.114
11506WAT      O34759   5.903   0.312   9.724
11506WAT     H134760   6.003   0.300   9.722
11506WAT     H234761   5.858   0.224   9.712
11507WAT      O34762   2.059   1.483   3.652
11507WAT     H134763   2.032   1.576   3.626
11507WAT     H234764   1.991   1.418   3.618
11508WAT      O34765   6.001   2.312   4.156
11508WAT     H134766   5.913   2.293   4.198
11508WAT     H234767   6.050   2.380   4.211
11509WAT      O34768   4.882   9.100   2.497
11509WAT     H134769   4.899   9.060   2.407
11509WAT     H234770   4.969   9.123   2.541
11510WAT      O34771   3.909   9.825   8.310
11510WAT     H134772   3.856   9.903   8.277
11510WAT     H234773   3.872   9.794   8.398
11511WAT      O34774   7.687   5.945   9.271
11511WAT     H134775   7.664   5.956   9.367
11511WAT     H234776   7.755   5.872   9.261
11512WAT      O34777   8.133   5.374   8.930
11512WAT     H134778   8.111   5.419   9.016
11512WAT     H234779   8.054   5.380   8.868
11513WAT      O34780   2.228   2.584   1.037
11513WAT     H134781   2.206   2.627   0.950
11513WAT     H234782   2.327   2.590   1.054
11514WAT      O34783   2.654   3.554   2.315
11514WAT     H134784   2.555   3.543   2.305
11514WAT     H234785   2.696   3.465   2.330
11515WAT      O34786   5.523   3.516   6.202
11515WAT     H134787   5.599   3.451   6.205
11515WAT     H234788   5.558   3.609   6.190
11516WAT      O34789   6.748   8.330   0.226
11516WAT     H134790   6.740   8.232   0.246
11516WAT     H234791   6.712   8.383   0.302
11517WAT      O34792   1.081   2.143   0.948
11517WAT     H134793   1.001   2.156   1.006
11517WAT     H234794   1.092   2.222   0.888
11518WAT      O34795   7.490   5.603   1.381
11518WAT     H134796   7.455   5.645   1.465
11518WAT     H234797   7.589   5.587   1.391
11519WAT      O34798   6.626   2.418   5.342
11519WAT     H134799   6.611   2.349   5.412
11519WAT     H234800   6.539   2.463   5.320
11520WAT      O34801   7.809   7.193   0.477
11520WAT     H134802   7.814   7.153   0.568
11520WAT     H234803   7.747   7.141   0.419
11521WAT      O34804   5.934   8.822   0.787
11521WAT     H134805   5.972   8.880   0.859
11521WAT     H234806   5.835   8.835   0.783
11522WAT      O34807   6.903   0.124   4.095
11522WAT     H134808   6.944   0.119   4.186
11522WAT     H234809   6.844   0.044   4.081
11523WAT      O34810   1.467   9.358   2.976
11523WAT     H134811   1.542   9.327   2.918
11523WAT     H234812   1.444   9.452   2.953
11524WAT      O34813   5.066   8.388   7.755
11524WAT     H134814   5.109   8.321   7.694
11524WAT     H234815   5.135   8.427   7.816
11525WAT      O34816   6.142   9.629   1.299
11525WAT     H134817   6.160   9.727   1.299
11525WAT     H234818   6.108   9.601   1.388
11526WAT      O34819   5.623   6.536   2.812
11526WAT     H134820   5.715   6.573   2.825
11526WAT     H234821   5.600   6.537   2.714
11527WAT      O34822   6.828   7.112   3.934
11527WAT     H134823   6.903   7.047   3.945
11527WAT     H234824   6.828   7.177   4.010
11528WAT      O34825   9.282   8.878   8.915
11528WAT     H134826   9.245   8.967   8.942
11528WAT     H234827   9.218   8.806   8.942
11529WAT      O34828   4.895   2.045   7.861
11529WAT     H134829   4.809   2.017   7.819
11529WAT     H234830   4.961   2.067   7.789
11530WAT      O34831   7.357   6.000   3.723
11530WAT     H134832   7.261   5.981   3.745
11530WAT     H234833   7.370   6.098   3.707
11531WAT      O34834   0.686   0.885   3.271
11531WAT     H134835   0.648   0.961   3.219
11531WAT     H234836   0.676   0.800   3.220
11532WAT      O34837   1.066   0.269   0.203
11532WAT     H134838   1.037   0.229   0.115
11532WAT     H234839   1.063   0.198   0.274
11533WAT      O34840   0.885   2.882   8.071
11533WAT     H134841   0.984   2.868   8.061
11533WAT     H234842   0.836   2.826   8.004
11534WAT      O34843   1.474   5.346   7.238
11534WAT     H134844   1.526   5.261   7.244
11534WAT     H234845   1.378   5.329   7.263
11535WAT      O34846   1.209   7.984   9.050
11535WAT     H134847   1.282   7.937   9.000
11535WAT     H234848   1.159   8.044   8.988
11536WAT      O34849   9.143   9.314   2.031
11536WAT     H134850   9.186   9.243   1.975
11536WAT     H234851   9.205   9.340   2.106
11537WAT      O34852   9.740   2.750   5.584
11537WAT     H134853   9.721   2.791   5.673
11537WAT     H234854   9.680   2.790   5.515
11538WAT      O34855   6.010   1.631   2.405
11538WAT     H134856   6.011   1.677   2.315
11538WAT     H234857   5.979   1.537   2.394
11539WAT      O34858   6.658   9.800   4.163
11539WAT     H134859   6.582   9.854   4.199
11539WAT     H234860   6.675   9.721   4.223
11540WAT      O34861   6.334   9.289   0.997
11540WAT     H134862   6.328   9.377   1.042
11540WAT     H234863   6.259   9.279   0.932
11541WAT      O34864   9.527   9.677   8.300
11541WAT     H134865   9.597   9.726   8.248
11541WAT     H234866   9.564   9.654   8.391
11542WAT      O34867   2.005   3.594   8.085
11542WAT     H134868   2.022   3.691   8.104
11542WAT     H234869   1.923   3.565   8.133
11543WAT      O34870   4.122   1.589   2.306
11543WAT     H134871   4.030   1.551   2.317
11543WAT     H234872   4.185   1.516   2.278
11544WAT      O34873   7.380   4.341   2.760
11544WAT     H134874   7.331   4.314   2.677
11544WAT     H234875   7.370   4.270   2.830
11545WAT      O34876   2.179   2.827   2.827
11545WAT     H134877   2.088   2.790   2.846
11545WAT     H234878   2.233   2.759   2.777
11546WAT      O34879   2.043   5.726   3.464
11546WAT     H134880   2.000   5.807   3.503
11546WAT     H234881   1.977   5.651   3.461
11547WAT      O34882   3.159   5.786   6.160
11547WAT     H134883   3.254   5.788   6.129
11547WAT     H234884   3.099   5.771   6.081
11548WAT      O34885   7.750   3.185   8.452
11548WAT     H134886   7.704   3.170   8.364
11548WAT     H234887   7.768   3.097   8.495
11549WAT      O34888   5.175   6.839   3.168
11549WAT     H134889   5.129   6.757   3.132
11549WAT     H234890   5.117   6.882   3.237
11550WAT      O34891   0.289   9.617   5.046
11550WAT     H134892   0.271   9.703   4.997
11550WAT     H234893   0.231   9.545   5.009
11551WAT      O34894   5.596   5.584   5.935
11551WAT     H134895   5.503   5.615   5.953
11551WAT     H234896   5.642   5.651   5.877
11552WAT      O34897   3.740   5.958   0.189
11552WAT     H134898   3.718   5.926   0.281
11552WAT     H234899   3.771   5.881   0.134
11553WAT      O34900   3.424   0.575   4.657
11553WAT     H134901   3.522   0.597   4.648
11553WAT     H234902   3.414   0.484   4.698
11554WAT      O34903   1.900   6.932   9.289
11554WAT     H134904   1.856   7.021   9.275
11554WAT     H234905   1.866   6.867   9.221
11555WAT      O34906   2.924   4.677   7.901
11555WAT     H134907   2.871   4.616   7.961
11555WAT     H234908   2.861   4.725   7.840
11556WAT      O34909   7.140   8.317   8.905
11556WAT     H134910   7.088   8.381   8.850
11556WAT     H234911   7.186   8.366   8.980
11557WAT      O34912   7.164   8.829   0.938
11557WAT     H134913   7.087   8.790   0.990
11557WAT     H234914   7.157   8.929   0.938
11558WAT      O34915   3.336   4.273   8.009
11558WAT     H134916   3.343   4.355   7.952
11558WAT     H234917   3.240   4.247   8.019
11559WAT      O34918   1.485   3.303   4.674
11559WAT     H134919   1.515   3.397   4.691
11559WAT     H234920   1.456   3.294   4.578
11560WAT      O34921   4.359   2.095   1.825
11560WAT     H134922   4.416   2.079   1.906
11560WAT     H234923   4.405   2.058   1.745
11561WAT      O34924   9.006   0.819   8.378
11561WAT     H134925   9.004   0.822   8.478
11561WAT     H234926   9.006   0.724   8.347
11562WAT      O34927   1.875   6.887   5.967
11562WAT     H134928   1.830   6.916   6.051
11562WAT     H234929   1.869   6.959   5.899
11563WAT      O34930   4.123   6.584   4.421
11563WAT     H134931   4.179   6.617   4.498
11563WAT     H234932   4.044   6.533   4.457
11564WAT      O34933   8.373   0.966   6.286
11564WAT     H134934   8.411   0.964   6.378
11564WAT     H234935   8.419   1.037   6.232
11565WAT      O34936   3.032   3.097   3.783
11565WAT     H134937   2.937   3.128   3.794
11565WAT     H234938   3.067   3.129   3.695
11566WAT      O34939   8.711   0.904   8.213
11566WAT     H134940   8.760   0.962   8.278
11566WAT     H234941   8.719   0.808   8.241
11567WAT      O34942   5.847   9.587   8.074
11567WAT     H134943   5.894   9.600   7.987
11567WAT     H234944   5.888   9.646   8.143
11568WAT      O34945   1.514   6.250   2.984
11568WAT     H134946   1.418   6.224   2.993
11568WAT     H234947   1.526   6.345   3.014
11569WAT      O34948   0.884   4.943   1.472
11569WAT     H134949   0.871   4.916   1.568
11569WAT     H234950   0.800   4.981   1.436
11570WAT      O34951   9.871   0.382   2.087
11570WAT     H134952   9.860   0.296   2.036
11570WAT     H234953   9.953   0.377   2.144
11571WAT      O34954   2.237   6.872   5.147
11571WAT     H134955   2.314   6.809   5.161
11571WAT     H234956   2.200   6.899   5.236
11572WAT      O34957   3.081   9.132   6.538
11572WAT     H134958   3.145   9.181   6.478
11572WAT     H234959   2.993   9.179   6.539
11573WAT      O34960   0.756   7.937   1.446
11573WAT     H134961   0.683   7.875   1.417
11573WAT     H234962   0.778   7.920   1.542
11574WAT      O34963   5.505   0.393   1.427
11574WAT     H134964   5.525   0.312   1.482
11574WAT     H234965   5.560   0.470   1.459
11575WAT      O34966   6.507   0.778   7.886
11575WAT     H134967   6.430   0.834   7.918
11575WAT     H234968   6.487   0.682   7.903
11576WAT      O34969   2.867   4.196   7.173
11576WAT     H134970   2.847   4.163   7.265
11576WAT     H234971   2.885   4.295   7.176
11577WAT      O34972   0.623   4.092   3.621
11577WAT     H134973   0.699   4.071   3.560
11577WAT     H234974   0.537   4.088   3.570
11578WAT      O34975   4.222   9.678   7.255
11578WAT     H134976   4.148   9.670   7.188
11578WAT     H234977   4.225   9.595   7.311
11579WAT      O34978   9.348   1.302   3.821
11579WAT     H134979   9.322   1.335   3.730
11579WAT     H234980   9.269   1.303   3.881
11580WAT      O34981   1.136   9.131   6.220
11580WAT     H134982   1.153   9.109   6.124
11580WAT     H234983   1.091   9.220   6.226
11581WAT      O34984   0.119   4.753   8.326
11581WAT     H134985   0.044   4.756   8.261
11581WAT     H234986   0.085   4.723   8.415
11582WAT      O34987   5.870   7.838   0.960
11582WAT     H134988   5.852   7.768   0.891
11582WAT     H234989   5.797   7.906   0.958
11583WAT      O34990   9.188   5.823   1.333
11583WAT     H134991   9.113   5.856   1.389
11583WAT     H234992   9.235   5.748   1.380
11584WAT      O34993   7.758   6.617   4.480
11584WAT     H134994   7.809   6.536   4.452
11584WAT     H234995   7.807   6.699   4.449
11585WAT      O34996   8.722   4.864   3.723
11585WAT     H134997   8.684   4.796   3.786
11585WAT     H234998   8.707   4.956   3.761
11586WAT      O34999   0.847   0.428   4.936
11586WAT     H135000   0.850   0.526   4.955
11586WAT     H235001   0.939   0.390   4.937
11587WAT      O35002   4.658   2.119   1.272
11587WAT     H135003   4.739   2.135   1.216
11587WAT     H235004   4.685   2.080   1.360
11588WAT      O35005   1.360   8.427   1.876
11588WAT     H135006   1.335   8.389   1.787
11588WAT     H235007   1.320   8.371   1.949
11589WAT      O35008   0.155   2.558   0.575
11589WAT     H135009   0.088   2.572   0.647
11589WAT     H235010   0.198   2.645   0.552
11590WAT      O35011   6.098   8.343   3.536
11590WAT     H135012   6.160   8.306   3.605
11590WAT     H235013   6.004   8.314   3.556
11591WAT      O35014   8.663   9.049   5.879
11591WAT     H135015   8.727   9.114   5.919
11591WAT     H235016   8.590   9.099   5.832
11592WAT      O35017   6.345   6.926   6.421
11592WAT     H135018   6.289   6.867   6.363
11592WAT     H235019   6.362   6.882   6.509
11593WAT      O35020   9.069   8.913   1.816
11593WAT     H135021   9.136   8.971   1.862
11593WAT     H235022   8.981   8.960   1.814
11594WAT      O35023   8.820   9.086   2.033
11594WAT     H135024   8.799   9.013   2.098
11594WAT     H235025   8.856   9.165   2.083
11595WAT      O35026   3.925   6.302   3.266
11595WAT     H135027   3.920   6.402   3.264
11595WAT     H235028   4.018   6.274   3.290
11596WAT      O35029   7.015   7.291   0.896
11596WAT     H135030   7.057   7.369   0.941
11596WAT     H235031   6.925   7.274   0.937
11597WAT      O35032   1.799   3.793   6.546
11597WAT     H135033   1.872   3.775   6.480
11597WAT     H235034   1.826   3.758   6.636
11598WAT      O35035   8.450   2.417   7.408
11598WAT     H135036   8.387   2.450   7.338
11598WAT     H235037   8.401   2.400   7.493
11599WAT      O35038   6.143   3.559   7.015
11599WAT     H135039   6.204   3.492   6.972
11599WAT     H235040   6.055   3.559   6.968
11600WAT      O35041   3.810   2.622   5.596
11600WAT     H135042   3.804   2.606   5.497
11600WAT     H235043   3.727   2.667   5.628
11601WAT      O35044   0.633   1.712   3.425
11601WAT     H135045   0.605   1.790   3.369
11601WAT     H235046   0.704   1.661   3.378
11602WAT      O35047   8.279   7.039   3.105
11602WAT     H135048   8.205   6.976   3.082
11602WAT     H235049   8.352   7.031   3.037
11603WAT      O35050   2.627   2.178   9.687
11603WAT     H135051   2.587   2.135   9.768
11603WAT     H235052   2.697   2.118   9.649
11604WAT      O35053   5.582   6.565   4.923
11604WAT     H135054   5.663   6.623   4.934
11604WAT     H235055   5.566   6.549   4.826
11605WAT      O35056   7.518   4.552   3.867
11605WAT     H135057   7.552   4.463   3.897
11605WAT     H235058   7.441   4.540   3.804
11606WAT      O35059   5.443   8.221   3.201
11606WAT     H135060   5.412   8.309   3.166
11606WAT     H235061   5.494   8.172   3.129
11607WAT      O35062   0.242   2.155   2.147
11607WAT     H135063   0.209   2.195   2.232
11607WAT     H235064   0.318   2.093   2.167
11608WAT      O35065   1.322   7.500   7.094
11608WAT     H135066   1.298   7.587   7.050
11608WAT     H235067   1.279   7.425   7.043
11609WAT      O35068   4.100   9.747   2.063
11609WAT     H135069   4.095   9.847   2.069
11609WAT     H235070   4.155   9.713   2.139
11610WAT      O35071   8.222   5.773   1.505
11610WAT     H135072   8.285   5.735   1.573
11610WAT     H235073   8.180   5.699   1.453
11611WAT      O35074   7.998   5.023   4.844
11611WAT     H135075   7.921   5.080   4.814
11611WAT     H235076   8.007   5.031   4.943
11612WAT      O35077   2.797   7.587   9.221
11612WAT     H135078   2.863   7.512   9.216
11612WAT     H235079   2.722   7.560   9.282
11613WAT      O35080   7.256   3.463   8.379
11613WAT     H135081   7.271   3.371   8.416
11613WAT     H235082   7.163   3.493   8.402
11614WAT      O35083   5.744   1.669   7.361
11614WAT     H135084   5.774   1.574   7.355
11614WAT     H235085   5.655   1.679   7.316
11615WAT      O35086   7.152   1.904   0.118
11615WAT     H135087   7.132   1.999   0.094
11615WAT     H235088   7.140   1.846   0.037
11616WAT      O35089   9.379   4.066   8.707
11616WAT     H135090   9.356   3.972   8.681
11616WAT     H235091   9.300   4.125   8.691
11617WAT      O35092   6.649   3.136   3.735
11617WAT     H135093   6.686   3.219   3.777
11617WAT     H235094   6.718   3.063   3.740
11618WAT      O35095   4.036   9.824   0.786
11618WAT     H135096   4.102   9.855   0.855
11618WAT     H235097   4.081   9.823   0.697
11619WAT      O35098   6.501   9.784   2.578
11619WAT     H135099   6.489   9.737   2.490
11619WAT     H235100   6.411   9.808   2.615
11620WAT      O35101   6.123   8.825   9.750
11620WAT     H135102   6.148   8.891   9.820
11620WAT     H235103   6.194   8.754   9.743
11621WAT      O35104   0.768   7.363   0.163
11621WAT     H135105   0.712   7.283   0.139
11621WAT     H235106   0.735   7.403   0.248
11622WAT      O35107   4.031   6.944   5.236
11622WAT     H135108   3.994   6.891   5.312
11622WAT     H235109   4.109   6.997   5.267
11623WAT      O35110   5.154   6.378   0.787
11623WAT     H135111   5.158   6.418   0.696
11623WAT     H235112   5.060   6.359   0.812
11624WAT      O35113   6.149   3.010   4.781
11624WAT     H135114   6.162   2.914   4.755
11624WAT     H235115   6.150   3.067   4.699
11625WAT      O35116   1.904   1.091   8.986
11625WAT     H135117   1.804   1.088   8.991
11625WAT     H235118   1.932   1.132   8.900
11626WAT      O35119   5.529   0.762   6.888
11626WAT     H135120   5.534   0.696   6.813
11626WAT     H235121   5.453   0.824   6.872
11627WAT      O35122   1.301   5.200   3.380
11627WAT     H135123   1.271   5.295   3.373
11627WAT     H235124   1.289   5.154   3.292
11628WAT      O35125   6.525   1.075   0.099
11628WAT     H135126   6.516   1.175   0.094
11628WAT     H235127   6.599   1.052   0.162
11629WAT      O35128   3.614   7.280   8.763
11629WAT     H135129   3.661   7.272   8.675
11629WAT     H235130   3.585   7.190   8.794
11630WAT      O35131   9.271   4.317   0.842
11630WAT     H135132   9.338   4.319   0.767
11630WAT     H235133   9.179   4.314   0.804
11631WAT      O35134   0.524   2.967   7.253
11631WAT     H135135   0.452   3.036   7.244
11631WAT     H235136   0.506   2.893   7.189
11632WAT      O35137   9.494   3.649   5.582
11632WAT     H135138   9.415   3.706   5.608
11632WAT     H235139   9.549   3.630   5.663
11633WAT      O35140   8.341   9.227   1.829
11633WAT     H135141   8.394   9.183   1.902
11633WAT     H235142   8.398   9.296   1.784
11634WAT      O35143   8.456   4.069   7.104
11634WAT     H135144   8.508   4.082   7.189
11634WAT     H235145   8.453   3.971   7.082
11635WAT      O35146   7.669   7.866   3.975
11635WAT     H135147   7.755   7.874   3.924
11635WAT     H235148   7.599   7.924   3.932
11636WAT      O35149   7.875   3.377   0.688
11636WAT     H135150   7.790   3.406   0.645
11636WAT     H235151   7.915   3.302   0.637
11637WAT      O35152   2.385   9.121   9.065
11637WAT     H135153   2.400   9.166   8.977
11637WAT     H235154   2.473   9.094   9.104
11638WAT      O35155   0.810   5.400   6.319
11638WAT     H135156   0.790   5.304   6.341
11638WAT     H235157   0.730   5.443   6.278
11639WAT      O35158   8.862   0.784   2.848
11639WAT     H135159   8.783   0.839   2.821
11639WAT     H235160   8.841   0.738   2.935
11640WAT      O35161   0.689   5.868   2.860
11640WAT     H135162   0.778   5.865   2.815
11640WAT     H235163   0.702   5.873   2.959
11641WAT      O35164   0.703   4.079   2.412
11641WAT     H135165   0.657   4.139   2.348
11641WAT     H235166   0.682   4.107   2.506
11642WAT      O35167   0.644   4.645   1.700
11642WAT     H135168   0.589   4.689   1.629
11642WAT     H235169   0.610   4.552   1.716
11643WAT      O35170   8.126   6.804   4.683
11643WAT     H135171   8.084   6.813   4.774
11643WAT     H235172   8.082   6.868   4.620
11644WAT      O35173   5.891   2.934   4.246
11644WAT     H135174   5.827   3.008   4.266
11644WAT     H235175   5.903   2.926   4.147
11645WAT      O35176   3.920   9.124   8.037
11645WAT     H135177   3.947   9.093   8.128
11645WAT     H235178   3.854   9.059   7.998
11646WAT      O35179   2.939   3.626   8.843
11646WAT     H135180   2.866   3.646   8.909
11646WAT     H235181   3.022   3.601   8.892
11647WAT      O35182   6.044   3.223   6.225
11647WAT     H135183   5.969   3.168   6.263
11647WAT     H235184   6.023   3.320   6.237
11648WAT      O35185   2.330   6.619   4.069
11648WAT     H135186   2.418   6.598   4.025
11648WAT     H235187   2.293   6.535   4.109
11649WAT      O35188   5.890   0.027   5.743
11649WAT     H135189   5.801   0.066   5.722
11649WAT     H235190   5.878  -0.062   5.787
11650WAT      O35191   8.881   8.384   7.519
11650WAT     H135192   8.971   8.362   7.557
11650WAT     H235193   8.819   8.412   7.593
11651WAT      O35194   0.970   2.974   2.986
11651WAT     H135195   0.878   3.005   3.011
11651WAT     H235196   1.012   2.930   3.065
11652WAT      O35197   3.267   2.870   3.453
11652WAT     H135198   3.270   2.817   3.368
11652WAT     H235199   3.355   2.863   3.500
11653WAT      O35200   2.982   6.602   6.450
11653WAT     H135201   2.946   6.566   6.537
11653WAT     H235202   3.061   6.548   6.421
11654WAT      O35203   8.911   6.019   9.186
11654WAT     H135204   8.975   5.989   9.256
11654WAT     H235205   8.925   6.117   9.167
11655WAT      O35206   1.426   6.440   9.340
11655WAT     H135207   1.515   6.435   9.294
11655WAT     H235208   1.439   6.477   9.432
11656WAT      O35209   2.346   3.778   3.775
11656WAT     H135210   2.411   3.806   3.845
11656WAT     H235211   2.370   3.688   3.740
11657WAT      O35212   8.091   3.310   0.909
11657WAT     H135213   8.035   3.392   0.896
11657WAT     H235214   8.187   3.336   0.911
11658WAT      O35215   9.852   0.397   0.315
11658WAT     H135216   9.865   0.396   0.215
11658WAT     H235217   9.909   0.470   0.354
11659WAT      O35218   8.662   5.737   5.748
11659WAT     H135219   8.666   5.809   5.680
11659WAT     H235220   8.709   5.656   5.714
11660WAT      O35221   1.909   9.034   0.945
11660WAT     H135222   2.008   9.018   0.939
11660WAT     H235223   1.887   9.119   0.896
11661WAT      O35224   6.069   6.955   4.974
11661WAT     H135225   6.032   7.045   5.000
11661WAT     H235226   6.004   6.884   5.000
11662WAT      O35227   8.610   6.075   0.104
11662WAT     H135228   8.584   6.160   0.058
11662WAT     H235229   8.552   6.000   0.072
11663WAT      O35230   6.348   4.722   4.343
11663WAT     H135231   6.389   4.630   4.346
11663WAT     H235232   6.414   4.786   4.304
11664WAT      O35233   2.959   6.691   5.996
11664WAT     H135234   2.949   6.669   5.898
11664WAT     H235235   2.900   6.631   6.049
11665WAT      O35236   0.982   4.570   0.398
11665WAT     H135237   0.904   4.630   0.418
11665WAT     H235238   1.000   4.511   0.476
11666WAT      O35239   6.687   0.683   1.454
11666WAT     H135240   6.717   0.590   1.476
11666WAT     H235241   6.596   0.680   1.414
11667WAT      O35242   9.677   7.071   8.723
11667WAT     H135243   9.630   7.116   8.800
11667WAT     H235244   9.717   6.985   8.755
11668WAT      O35245   0.018   1.219   7.539
11668WAT     H135246  -0.031   1.144   7.584
11668WAT     H235247  -0.026   1.306   7.563
11669WAT      O35248   9.817   5.363   8.864
11669WAT     H135249   9.822   5.446   8.808
11669WAT     H235250   9.723   5.349   8.895
11670WAT      O35251   5.323   3.798   4.675
11670WAT     H135252   5.317   3.833   4.582
11670WAT     H235253   5.241   3.822   4.726
11671WAT      O35254   5.744   2.967   5.987
11671WAT     H135255   5.671   2.907   6.021
11671WAT     H235256   5.832   2.934   6.020
11672WAT      O35257   2.359   8.420   2.168
11672WAT     H135258   2.454   8.414   2.197
11672WAT     H235259   2.344   8.505   2.119
11673WAT      O35260   1.023   6.304   7.642
11673WAT     H135261   0.986   6.241   7.574
11673WAT     H235262   1.119   6.282   7.659
11674WAT      O35263   3.577   6.379   0.055
11674WAT     H135264   3.589   6.383   0.154
11674WAT     H235265   3.488   6.338   0.034
11675WAT      O35266   0.639   1.178   0.092
11675WAT     H135267   0.698   1.101   0.113
11675WAT     H235268   0.573   1.191   0.166
11676WAT      O35269   0.519   8.538   4.938
11676WAT     H135270   0.560   8.629   4.944
11676WAT     H235271   0.568   8.484   4.869
11677WAT      O35272   0.212   9.488   5.711
11677WAT     H135273   0.297   9.446   5.679
11677WAT     H235274   0.139   9.420   5.711
11678WAT      O35275   0.539   2.299   9.182
11678WAT     H135276   0.636   2.313   9.161
11678WAT     H235277   0.528   2.285   9.280
11679WAT      O35278   2.842   8.692   3.932
11679WAT     H135279   2.918   8.717   3.991
11679WAT     H235280   2.764   8.751   3.951
11680WAT      O35281   0.863   4.888   0.705
11680WAT     H135282   0.930   4.895   0.780
11680WAT     H235283   0.785   4.947   0.725
11681WAT      O35284   6.342   8.175   7.333
11681WAT     H135285   6.384   8.142   7.418
11681WAT     H235286   6.280   8.105   7.297
11682WAT      O35287   1.264   6.585   4.761
11682WAT     H135288   1.311   6.581   4.673
11682WAT     H235289   1.269   6.496   4.806
11683WAT      O35290   5.890   5.246   1.103
11683WAT     H135291   5.826   5.197   1.164
11683WAT     H235292   5.885   5.344   1.121
11684WAT      O35293   7.238   4.791   1.292
11684WAT     H135294   7.315   4.728   1.304
11684WAT     H235295   7.153   4.738   1.285
11685WAT      O35296   4.861   7.474   1.147
11685WAT     H135297   4.784   7.516   1.195
11685WAT     H235298   4.879   7.383   1.186
11686WAT      O35299   3.778   4.247   4.312
11686WAT     H135300   3.693   4.223   4.359
11686WAT     H235301   3.770   4.224   4.215
11687WAT      O35302   1.100   3.113   8.024
11687WAT     H135303   1.065   3.127   7.932
11687WAT     H235304   1.092   3.198   8.076
11688WAT      O35305   7.862   2.238   6.124
11688WAT     H135306   7.829   2.143   6.127
11688WAT     H235307   7.840   2.277   6.035
11689WAT      O35308   8.672   1.597   1.956
11689WAT     H135309   8.683   1.500   1.976
11689WAT     H235310   8.619   1.641   2.029
11690WAT      O35311   8.914   5.493   7.592
11690WAT     H135312   8.925   5.401   7.554
11690WAT     H235313   8.923   5.561   7.519
11691WAT      O35314   2.062   7.002   2.352
11691WAT     H135315   2.054   7.102   2.360
11691WAT     H235316   1.994   6.959   2.411
11692WAT      O35317   2.946   4.314   6.562
11692WAT     H135318   2.894   4.394   6.531
11692WAT     H235319   2.928   4.238   6.500
11693WAT      O35320   3.795   6.458   5.073
11693WAT     H135321   3.884   6.442   5.031
11693WAT     H235322   3.794   6.548   5.116
11694WAT      O35323   5.593   9.042   9.870
11694WAT     H135324   5.619   9.137   9.886
11694WAT     H235325   5.520   9.016   9.933
11695WAT      O35326   3.641   8.245   4.765
11695WAT     H135327   3.633   8.186   4.845
11695WAT     H235328   3.735   8.243   4.732
11696WAT      O35329   9.695   1.160   9.193
11696WAT     H135330   9.641   1.224   9.139
11696WAT     H235331   9.693   1.070   9.151
11697WAT      O35332   3.402   7.660   9.144
11697WAT     H135333   3.443   7.710   9.068
11697WAT     H235334   3.470   7.598   9.184
11698WAT      O35335   5.180   3.957   3.993
11698WAT     H135336   5.213   4.006   4.073
11698WAT     H235337   5.080   3.962   3.989
11699WAT      O35338   3.463   3.510   7.358
11699WAT     H135339   3.556   3.542   7.378
11699WAT     H235340   3.452   3.417   7.392
11700WAT      O35341   9.033   9.481   1.394
11700WAT     H135342   9.003   9.556   1.454
11700WAT     H235343   9.032   9.395   1.445
11701WAT      O35344   1.193   3.563   4.911
11701WAT     H135345   1.234   3.500   4.978
11701WAT     H235346   1.194   3.656   4.947
11702WAT      O35347   6.857   7.841   1.881
11702WAT     H135348   6.853   7.868   1.785
11702WAT     H235349   6.844   7.742   1.889
11703WAT      O35350   9.610   3.558   4.016
11703WAT     H135351   9.563   3.471   4.034
11703WAT     H235352   9.600   3.618   4.095
11704WAT      O35353   9.707   5.258   0.899
11704WAT     H135354   9.780   5.321   0.927
11704WAT     H235355   9.708   5.178   0.958
11705WAT      O35356   2.548   3.645   1.723
11705WAT     H135357   2.476   3.711   1.702
11705WAT     H235358   2.596   3.675   1.805
11706WAT      O35359   7.902   1.180   1.946
11706WAT     H135360   7.883   1.274   1.919
11706WAT     H235361   7.958   1.179   2.029
11707WAT      O35362   8.791   2.517   7.697
11707WAT     H135363   8.719   2.448   7.692
11707WAT     H235364   8.856   2.493   7.769
11708WAT      O35365   6.713   7.980   2.063
11708WAT     H135366   6.764   7.928   1.995
11708WAT     H235367   6.701   8.075   2.031
11709WAT      O35368   0.591   4.470   3.566
11709WAT     H135369   0.588   4.484   3.665
11709WAT     H235370   0.673   4.419   3.542
11710WAT      O35371   8.131   3.183   9.545
11710WAT     H135372   8.213   3.132   9.568
11710WAT     H235373   8.106   3.243   9.620
11711WAT      O35374   7.691   8.186   7.746
11711WAT     H135375   7.657   8.229   7.829
11711WAT     H235376   7.648   8.097   7.734
11712WAT      O35377   6.255   5.659   1.269
11712WAT     H135378   6.340   5.608   1.258
11712WAT     H235379   6.275   5.749   1.307
11713WAT      O35380   1.298   2.757   2.696
11713WAT     H135381   1.247   2.795   2.619
11713WAT     H235382   1.271   2.662   2.711
11714WAT      O35383   6.453   1.301   9.429
11714WAT     H135384   6.531   1.295   9.492
11714WAT     H235385   6.391   1.372   9.460
11715WAT      O35386   8.093   5.552   0.696
11715WAT     H135387   8.003   5.570   0.655
11715WAT     H235388   8.133   5.472   0.651
11716WAT      O35389   1.787   1.364   6.157
11716WAT     H135390   1.756   1.350   6.251
11716WAT     H235391   1.713   1.340   6.094
11717WAT      O35392   9.863   5.721   4.299
11717WAT     H135393   9.802   5.752   4.372
11717WAT     H235394   9.927   5.794   4.275
11718WAT      O35395   7.597   6.154   2.619
11718WAT     H135396   7.582   6.135   2.717
11718WAT     H235397   7.599   6.067   2.569
11719WAT      O35398   7.989   6.350   3.683
11719WAT     H135399   8.048   6.324   3.607
11719WAT     H235400   7.894   6.350   3.653
11720WAT      O35401   9.239   6.650   9.542
11720WAT     H135402   9.196   6.572   9.497
11720WAT     H235403   9.170   6.704   9.590
11721WAT      O35404   1.475   7.309   8.940
11721WAT     H135405   1.509   7.402   8.945
11721WAT     H235406   1.546   7.245   8.971
11722WAT      O35407   0.504   1.086   4.180
11722WAT     H135408   0.526   1.154   4.110
11722WAT     H235409   0.585   1.069   4.237
11723WAT      O35410   8.114   9.352   8.768
11723WAT     H135411   8.174   9.282   8.809
11723WAT     H235412   8.170   9.428   8.734
11724WAT      O35413   4.864   8.127   0.897
11724WAT     H135414   4.890   8.173   0.812
11724WAT     H235415   4.942   8.128   0.960
11725WAT      O35416   8.327   8.630   8.953
11725WAT     H135417   8.258   8.593   8.892
11725WAT     H235418   8.292   8.630   9.047
11726WAT      O35419   4.384   9.102   4.698
11726WAT     H135420   4.329   9.019   4.707
11726WAT     H235421   4.401   9.121   4.602
11727WAT      O35422   0.728   4.020   6.405
11727WAT     H135423   0.730   4.093   6.473
11727WAT     H235424   0.779   4.048   6.324
11728WAT      O35425   0.442   5.376   1.607
11728WAT     H135426   0.409   5.288   1.641
11728WAT     H235427   0.411   5.449   1.667
11729WAT      O35428   7.752   0.626   8.342
11729WAT     H135429   7.768   0.711   8.292
11729WAT     H235430   7.661   0.628   8.383
11730WAT      O35431   1.759   3.531   7.118
11730WAT     H135432   1.844   3.512   7.167
11730WAT     H235433   1.700   3.589   7.175
11731WAT      O35434   5.834   7.735   4.157
11731WAT     H135435   5.739   7.727   4.127
11731WAT     H235436   5.841   7.809   4.224
11732WAT      O35437   3.624   8.254   3.218
11732WAT     H135438   3.612   8.315   3.140
11732WAT     H235439   3.537   8.243   3.266
11733WAT      O35440   4.591   4.649   6.842
11733WAT     H135441   4.616   4.570   6.786
11733WAT     H235442   4.616   4.632   6.937
11734WAT      O35443   1.676   2.173   5.449
11734WAT     H135444   1.607   2.131   5.508
11734WAT     H235445   1.632   2.203   5.364
11735WAT      O35446   3.177   7.314   4.226
11735WAT     H135447   3.165   7.379   4.301
11735WAT     H235448   3.174   7.362   4.139
11736WAT      O35449   9.336   4.010   4.629
11736WAT     H135450   9.396   4.071   4.681
11736WAT     H235451   9.341   3.918   4.668
11737WAT      O35452   1.430   5.392   2.952
11737WAT     H135453   1.508   5.419   2.896
11737WAT     H235454   1.370   5.471   2.967
11738WAT      O35455   6.376   7.119   3.082
11738WAT     H135456   6.442   7.089   3.013
11738WAT     H235457   6.299   7.164   3.036
11739WAT      O35458   9.239   8.908   4.349
11739WAT     H135459   9.259   9.003   4.326
11739WAT     H235460   9.158   8.905   4.408
11740WAT      O35461   5.547   3.660   7.703
11740WAT     H135462   5.598   3.597   7.762
11740WAT     H235463   5.592   3.750   7.705
11741WAT      O35464   6.841   9.032   0.240
11741WAT     H135465   6.883   9.048   0.329
11741WAT     H235466   6.748   9.070   0.240
11742WAT      O35467   5.549   5.570   6.485
11742WAT     H135468   5.549   5.505   6.561
11742WAT     H235469   5.626   5.551   6.424
11743WAT      O35470   7.952   3.902   0.259
11743WAT     H135471   7.860   3.895   0.221
11743WAT     H235472   7.956   3.853   0.346
11744WAT      O35473   9.698   2.713   7.197
11744WAT     H135474   9.652   2.781   7.254
11744WAT     H235475   9.781   2.752   7.158
11745WAT      O35476   4.397   9.633   3.334
11745WAT     H135477   4.338   9.710   3.309
11745WAT     H235478   4.386   9.560   3.267
11746WAT      O35479   9.060   8.835   9.578
11746WAT     H135480   8.988   8.804   9.639
11746WAT     H235481   9.026   8.837   9.484
11747WAT      O35482   0.748   4.328   6.171
11747WAT     H135483   0.809   4.259   6.134
11747WAT     H235484   0.784   4.419   6.152
11748WAT      O35485   4.606   7.717   8.509
11748WAT     H135486   4.539   7.789   8.491
11748WAT     H235487   4.559   7.630   8.523
11749WAT      O35488   7.942   9.055   6.559
11749WAT     H135489   8.012   9.013   6.501
11749WAT     H235490   7.940   9.153   6.543
11750WAT      O35491   4.823   0.775   9.369
11750WAT     H135492   4.821   0.816   9.460
11750WAT     H235493   4.917   0.760   9.341
11751WAT      O35494   7.413   4.391   7.447
11751WAT     H135495   7.447   4.474   7.493
11751WAT     H235496   7.462   4.311   7.483
11752WAT      O35497   1.746   8.522   2.113
11752WAT     H135498   1.729   8.620   2.105
11752WAT     H235499   1.694   8.473   2.042
11753WAT      O35500   0.516   3.697   2.328
11753WAT     H135501   0.602   3.709   2.376
11753WAT     H235502   0.521   3.618   2.268
11754WAT      O35503   7.082   9.569   9.705
11754WAT     H135504   7.093   9.569   9.805
11754WAT     H235505   6.985   9.582   9.683
11755WAT      O35506   1.118   4.811   4.037
11755WAT     H135507   1.157   4.731   3.990
11755WAT     H235508   1.137   4.893   3.984
11756WAT      O35509   2.593   6.830   5.758
11756WAT     H135510   2.509   6.818   5.706
11756WAT     H235511   2.577   6.895   5.833
11757WAT      O35512   6.992   6.791   7.786
11757WAT     H135513   7.032   6.882   7.781
11757WAT     H235514   7.050   6.731   7.841
11758WAT      O35515   5.006   5.714   0.292
11758WAT     H135516   4.989   5.618   0.272
11758WAT     H235517   4.976   5.770   0.216
11759WAT      O35518   1.121   0.888   5.981
11759WAT     H135519   1.078   0.904   6.070
11759WAT     H235520   1.051   0.883   5.910
11760WAT      O35521   2.573   9.728   3.297
11760WAT     H135522   2.580   9.628   3.292
11760WAT     H235523   2.484   9.753   3.336
11761WAT      O35524   9.203   8.255   8.313
11761WAT     H135525   9.294   8.281   8.347
11761WAT     H235526   9.138   8.256   8.390
11762WAT      O35527   2.233   9.435   3.287
11762WAT     H135528   2.294   9.363   3.252
11762WAT     H235529   2.269   9.467   3.375
11763WAT      O35530   3.075   2.024   4.431
11763WAT     H135531   3.010   2.094   4.399
11763WAT     H235532   3.168   2.060   4.426
11764WAT      O35533   6.437   2.007   4.956
11764WAT     H135534   6.471   2.096   4.985
11764WAT     H235535   6.447   1.941   5.030
11765WAT      O35536   2.280   6.106   3.454
11765WAT     H135537   2.286   6.087   3.552
11765WAT     H235538   2.249   6.200   3.440
11766WAT      O35539   9.045   1.064   2.791
11766WAT     H135540   8.962   1.103   2.750
11766WAT     H235541   9.022   0.981   2.841
11767WAT      O35542   4.218   4.239   5.884
11767WAT     H135543   4.239   4.325   5.838
11767WAT     H235544   4.119   4.232   5.897
11768WAT      O35545   3.521   2.527   5.485
11768WAT     H135546   3.542   2.587   5.563
11768WAT     H235547   3.532   2.432   5.513
11769WAT      O35548   7.777   3.641   3.903
11769WAT     H135549   7.833   3.721   3.923
11769WAT     H235550   7.716   3.660   3.827
11770WAT      O35551   2.798   3.147   6.552
11770WAT     H135552   2.760   3.181   6.638
11770WAT     H235553   2.882   3.196   6.531
11771WAT      O35554   6.918   1.472   0.995
11771WAT     H135555   6.939   1.569   0.983
11771WAT     H235556   6.849   1.461   1.066
11772WAT      O35557   0.936   2.777   0.813
11772WAT     H135558   0.884   2.694   0.795
11772WAT     H235559   1.007   2.757   0.881
11773WAT      O35560   8.124   0.696   8.984
11773WAT     H135561   8.087   0.738   9.067
11773WAT     H235562   8.061   0.625   8.952
11774WAT      O35563   0.482   8.071   9.133
11774WAT     H135564   0.580   8.067   9.154
11774WAT     H235565   0.436   7.991   9.172
11775WAT      O35566   7.046   0.008   5.040
11775WAT     H135567   6.952  -0.013   5.017
11775WAT     H235568   7.104   0.002   4.959
11776WAT      O35569   0.909   1.838   4.354
11776WAT     H135570   0.932   1.747   4.389
11776WAT     H235571   0.826   1.871   4.400
11777WAT      O35572   3.000   3.796   2.672
11777WAT     H135573   3.063   3.868   2.701
11777WAT     H235574   3.003   3.721   2.737
11778WAT      O35575   4.740   8.174   7.557
11778WAT     H135576   4.693   8.096   7.599
11778WAT     H235577   4.792   8.222   7.628
11779WAT      O35578   8.815   2.533   3.456
11779WAT     H135579   8.811   2.601   3.383
11779WAT     H235580   8.900   2.543   3.508
11780WAT      O35581   7.780   2.915   7.077
11780WAT     H135582   7.793   3.014   7.086
11780WAT     H235583   7.809   2.871   7.162
11781WAT      O35584   1.325   7.733   2.897
11781WAT     H135585   1.353   7.692   2.810
11781WAT     H235586   1.259   7.805   2.880
11782WAT      O35587   4.347   5.549   6.249
11782WAT     H135588   4.366   5.460   6.290
11782WAT     H235589   4.317   5.536   6.154
11783WAT      O35590   8.672   0.478   9.414
11783WAT     H135591   8.751   0.527   9.450
11783WAT     H235592   8.591   0.502   9.468
11784WAT      O35593   9.250   7.524   8.906
11784WAT     H135594   9.159   7.538   8.947
11784WAT     H235595   9.267   7.596   8.839
11785WAT      O35596   1.238   9.001   7.928
11785WAT     H135597   1.140   9.020   7.924
11785WAT     H235598   1.269   8.972   7.837
11786WAT      O35599   2.230   3.042   6.047
11786WAT     H135600   2.157   3.026   6.114
11786WAT     H235601   2.310   3.078   6.094
11787WAT      O35602   9.727   0.367   7.332
11787WAT     H135603   9.755   0.271   7.326
11787WAT     H235604   9.631   0.376   7.304
11788WAT      O35605   4.583   1.317   1.330
11788WAT     H135606   4.678   1.344   1.351
11788WAT     H235607   4.546   1.264   1.406
11789WAT      O35608   4.361   8.424   7.448
11789WAT     H135609   4.335   8.356   7.379
11789WAT     H235610   4.292   8.427   7.520
11790WAT      O35611   9.208   0.053   6.502
11790WAT     H135612   9.177   0.103   6.421
11790WAT     H235613   9.282   0.104   6.547
11791WAT      O35614   3.515   2.996   7.249
11791WAT     H135615   3.546   3.086   7.217
11791WAT     H235616   3.568   2.925   7.204
11792WAT      O35617   5.525   6.757   7.086
11792WAT     H135618   5.555   6.688   7.021
11792WAT     H235619   5.425   6.755   7.092
11793WAT      O35620   3.289   4.203   2.088
11793WAT     H135621   3.283   4.239   2.181
11793WAT     H235622   3.202   4.161   2.063
11794WAT      O35623   6.128   8.930   2.838
11794WAT     H135624   6.084   8.860   2.895
11794WAT     H235625   6.156   9.007   2.896
11795WAT      O35626   7.693   1.602   8.308
11795WAT     H135627   7.644   1.515   8.297
11795WAT     H235628   7.743   1.602   8.394
11796WAT      O35629   4.556   6.071   4.368
11796WAT     H135630   4.570   6.168   4.347
11796WAT     H235631   4.522   6.062   4.462
11797WAT      O35632   1.215   8.785   7.252
11797WAT     H135633   1.116   8.777   7.243
11797WAT     H235634   1.259   8.767   7.164
11798WAT      O35635   1.846   8.408   8.413
11798WAT     H135636   1.776   8.347   8.450
11798WAT     H235637   1.826   8.502   8.440
11799WAT      O35638   2.702   3.810   3.908
11799WAT     H135639   2.800   3.795   3.920
11799WAT     H235640   2.651   3.756   3.976
11800WAT      O35641   3.381   2.136   0.932
11800WAT     H135642   3.454   2.165   0.994
11800WAT     H235643   3.311   2.207   0.927
11801WAT      O35644   1.378   4.665   4.745
11801WAT     H135645   1.343   4.582   4.703
11801WAT     H235646   1.406   4.645   4.839
11802WAT      O35647   2.092   7.668   1.287
11802WAT     H135648   2.176   7.614   1.278
11802WAT     H235649   2.090   7.710   1.378
11803WAT      O35650   6.981   6.500   5.949
11803WAT     H135651   7.026   6.527   5.863
11803WAT     H235652   7.030   6.540   6.026
11804WAT      O35653   4.075   2.851   0.264
11804WAT     H135654   4.052   2.895   0.351
11804WAT     H235655   4.129   2.769   0.282
11805WAT      O35656   8.311   3.333   9.234
11805WAT     H135657   8.268   3.247   9.209
11805WAT     H235658   8.396   3.315   9.285
11806WAT      O35659   2.061   6.337   5.088
11806WAT     H135660   1.986   6.369   5.145
11806WAT     H235661   2.143   6.326   5.144
11807WAT      O35662   0.120   6.750   2.261
11807WAT     H135663   0.132   6.779   2.356
11807WAT     H235664   0.209   6.740   2.217
11808WAT      O35665   7.049   8.866   0.512
11808WAT     H135666   6.961   8.891   0.553
11808WAT     H235667   7.043   8.774   0.474
11809WAT      O35668   0.571   5.872   7.996
11809WAT     H135669   0.600   5.778   7.975
11809WAT     H235670   0.475   5.872   8.021
11810WAT      O35671   0.052   7.589   3.764
11810WAT     H135672   0.103   7.576   3.849
11810WAT     H235673   0.012   7.502   3.736
11811WAT      O35674   6.142   0.849   7.765
11811WAT     H135675   6.145   0.846   7.865
11811WAT     H235676   6.091   0.929   7.735
11812WAT      O35677   0.503   1.029   3.112
11812WAT     H135678   0.518   0.999   3.019
11812WAT     H235679   0.406   1.049   3.126
11813WAT      O35680   0.028   4.058   4.555
11813WAT     H135681  -0.051   4.004   4.585
11813WAT     H235682   0.107   4.039   4.613
11814WAT      O35683   9.732   8.111   6.847
11814WAT     H135684   9.681   8.132   6.930
11814WAT     H235685   9.826   8.143   6.857
11815WAT      O35686   7.829   1.328   6.858
11815WAT     H135687   7.760   1.343   6.929
11815WAT     H235688   7.851   1.231   6.853
11816WAT      O35689   2.940   5.749   3.050
11816WAT     H135690   2.942   5.662   3.001
11816WAT     H235691   2.851   5.793   3.036
11817WAT      O35692  -0.000   0.267   3.107
11817WAT     H135693  -0.037   0.328   3.037
11817WAT     H235694   0.052   0.320   3.173
11818WAT      O35695   0.773   7.085   9.621
11818WAT     H135696   0.796   7.157   9.686
11818WAT     H235697   0.740   7.126   9.536
11819WAT      O35698   7.791   1.561   9.710
11819WAT     H135699   7.730   1.591   9.636
11819WAT     H235700   7.801   1.635   9.777
11820WAT      O35701   2.928   8.391   5.013
11820WAT     H135702   2.910   8.467   5.076
11820WAT     H235703   2.844   8.339   4.999
11821WAT      O35704   2.071   1.244   4.696
11821WAT     H135705   2.039   1.164   4.746
11821WAT     H235706   2.056   1.230   4.598
11822WAT      O35707   7.779   9.813   9.650
11822WAT     H135708   7.761   9.891   9.710
11822WAT     H235709   7.715   9.740   9.671
11823WAT      O35710   1.330   8.872   7.715
11823WAT     H135711   1.291   8.929   7.643
11823WAT     H235712   1.304   8.777   7.700
11824WAT      O35713   2.624   7.589   8.358
11824WAT     H135714   2.582   7.526   8.294
11824WAT     H235715   2.567   7.597   8.440
11825WAT      O35716   3.915   7.136   2.672
11825WAT     H135717   3.941   7.059   2.730
11825WAT     H235718   3.956   7.125   2.581
11826WAT      O35719   5.565   8.902   9.632
11826WAT     H135720   5.581   8.958   9.713
11826WAT     H235721   5.609   8.813   9.644
11827WAT      O35722   3.548   8.080   4.974
11827WAT     H135723   3.540   8.002   4.912
11827WAT     H235724   3.458   8.106   5.007
11828WAT      O35725   2.798   8.235   2.708
11828WAT     H135726   2.867   8.168   2.735
11828WAT     H235727   2.814   8.321   2.757
11829WAT      O35728   0.691   8.422   0.511
11829WAT     H135729   0.706   8.325   0.494
11829WAT     H235730   0.659   8.435   0.604
11830WAT      O35731   9.085   1.495   7.128
11830WAT     H135732   9.007   1.440   7.157
11830WAT     H235733   9.170   1.447   7.148
11831WAT      O35734   7.278   3.865   3.133
11831WAT     H135735   7.290   3.856   3.232
11831WAT     H235736   7.217   3.794   3.099
11832WAT      O35737   3.167   6.582   2.025
11832WAT     H135738   3.171   6.680   2.047
11832WAT     H235739   3.159   6.529   2.110
11833WAT      O35740   9.206   9.779   8.985
11833WAT     H135741   9.188   9.831   9.069
11833WAT     H235742   9.259   9.697   9.008
11834WAT      O35743   4.541   5.396   6.703
11834WAT     H135744   4.627   5.415   6.751
11834WAT     H235745   4.517   5.299   6.715
11835WAT      O35746   8.888   4.497   6.367
11835WAT     H135747   8.854   4.489   6.460
11835WAT     H235748   8.867   4.414   6.315
11836WAT      O35749   0.941   1.727   5.859
11836WAT     H135750   0.981   1.804   5.809
11836WAT     H235751   1.014   1.676   5.906
11837WAT      O35752   6.560   6.031   8.576
11837WAT     H135753   6.633   5.962   8.568
11837WAT     H235754   6.555   6.084   8.492
11838WAT      O35755   3.031   1.860   5.516
11838WAT     H135756   3.085   1.776   5.521
11838WAT     H235757   2.967   1.862   5.593
11839WAT      O35758   8.341   0.580   3.747
11839WAT     H135759   8.278   0.620   3.680
11839WAT     H235760   8.359   0.485   3.722
11840WAT      O35761   1.293   3.112   7.623
11840WAT     H135762   1.333   3.183   7.563
11840WAT     H235763   1.362   3.042   7.640
11841WAT      O35764   0.478   5.196   3.958
11841WAT     H135765   0.552   5.247   4.003
11841WAT     H235766   0.420   5.153   4.028
11842WAT      O35767   7.480   7.614   8.680
11842WAT     H135768   7.506   7.660   8.595
11842WAT     H235769   7.491   7.678   8.756
11843WAT      O35770   3.043   9.415   2.777
11843WAT     H135771   3.002   9.493   2.826
11843WAT     H235772   3.135   9.398   2.812
11844WAT      O35773   5.277   9.826   2.161
11844WAT     H135774   5.278   9.744   2.104
11844WAT     H235775   5.214   9.893   2.122
11845WAT      O35776   4.276   9.284   4.118
11845WAT     H135777   4.291   9.383   4.118
11845WAT     H235778   4.354   9.239   4.074
11846WAT      O35779   0.199   5.735   5.860
11846WAT     H135780   0.220   5.751   5.764
11846WAT     H235781   0.100   5.724   5.871
11847WAT      O35782   8.579   8.346   8.412
11847WAT     H135783   8.570   8.362   8.510
11847WAT     H235784   8.490   8.324   8.373
11848WAT      O35785   1.226   4.745   5.719
11848WAT     H135786   1.178   4.689   5.652
11848WAT     H235787   1.317   4.708   5.734
11849WAT      O35788   2.185   1.443   6.959
11849WAT     H135789   2.208   1.401   6.871
11849WAT     H235790   2.136   1.528   6.943
11850WAT      O35791   7.487   1.541   3.073
11850WAT     H135792   7.563   1.476   3.079
11850WAT     H235793   7.409   1.497   3.027
11851WAT      O35794   0.082   6.379   3.326
11851WAT     H135795   0.095   6.478   3.332
11851WAT     H235796   0.142   6.334   3.392
11852WAT      O35797   7.658   6.653   1.665
11852WAT     H135798   7.618   6.641   1.574
11852WAT     H235799   7.722   6.578   1.683
11853WAT      O35800   5.171   0.987   3.422
11853WAT     H135801   5.237   0.912   3.416
11853WAT     H235802   5.206   1.057   3.486
11854WAT      O35803   5.393   1.736   4.069
11854WAT     H135804   5.443   1.776   4.145
11854WAT     H235805   5.457   1.709   3.997
11855WAT      O35806   6.274   5.262   9.203
11855WAT     H135807   6.250   5.305   9.290
11855WAT     H235808   6.323   5.328   9.146
11856WAT      O35809   4.139   3.362   6.058
11856WAT     H135810   4.079   3.372   5.979
11856WAT     H235811   4.182   3.272   6.056
11857WAT      O35812   0.353   7.931   0.082
11857WAT     H135813   0.426   7.974   0.029
11857WAT     H235814   0.388   7.851   0.129
11858WAT      O35815   9.875   6.419   5.231
11858WAT     H135816   9.824   6.441   5.148
11858WAT     H235817   9.812   6.408   5.308
11859WAT      O35818   3.419   9.071   4.725
11859WAT     H135819   3.350   9.095   4.794
11859WAT     H235820   3.419   8.972   4.711
11860WAT      O35821   2.821   3.843   4.734
11860WAT     H135822   2.744   3.779   4.743
11860WAT     H235823   2.785   3.935   4.716
11861WAT      O35824   3.963   3.258   4.290
11861WAT     H135825   3.902   3.277   4.212
11861WAT     H235826   4.036   3.196   4.261
11862WAT      O35827   4.658   7.564   4.916
11862WAT     H135828   4.640   7.559   5.014
11862WAT     H235829   4.658   7.471   4.878
11863WAT      O35830   0.314   4.510   0.370
11863WAT     H135831   0.228   4.461   0.354
11863WAT     H235832   0.391   4.447   0.359
11864WAT      O35833   7.244   6.077   8.399
11864WAT     H135834   7.275   6.119   8.313
11864WAT     H235835   7.253   6.143   8.473
11865WAT      O35836   6.533   6.821   5.581
11865WAT     H135837   6.563   6.786   5.670
11865WAT     H235838   6.460   6.762   5.545
11866WAT      O35839   1.311   2.056   6.761
11866WAT     H135840   1.236   2.068   6.827
11866WAT     H235841   1.397   2.041   6.810
11867WAT      O35842   5.960   1.306   3.184
11867WAT     H135843   6.049   1.324   3.225
11867WAT     H235844   5.891   1.298   3.256
11868WAT      O35845   3.078   0.236   4.838
11868WAT     H135846   3.092   0.303   4.910
11868WAT     H235847   3.022   0.276   4.766
11869WAT      O35848   1.910   6.951   5.492
11869WAT     H135849   1.839   6.950   5.421
11869WAT     H235850   1.869   6.979   5.579
11870WAT      O35851   9.069   7.763   1.138
11870WAT     H135852   9.109   7.847   1.102
11870WAT     H235853   9.136   7.717   1.196
11871WAT      O35854   2.452   0.102   9.612
11871WAT     H135855   2.395   0.020   9.622
11871WAT     H235856   2.541   0.076   9.575
11872WAT      O35857   5.083   0.296   3.647
11872WAT     H135858   5.011   0.274   3.713
11872WAT     H235859   5.169   0.255   3.677
11873WAT      O35860   5.223   6.111   6.788
11873WAT     H135861   5.147   6.054   6.821
11873WAT     H235862   5.265   6.158   6.865
11874WAT      O35863   3.263   8.750   5.020
11874WAT     H135864   3.181   8.784   5.065
11874WAT     H235865   3.344   8.779   5.073
11875WAT      O35866   1.424   5.139   5.667
11875WAT     H135867   1.440   5.168   5.761
11875WAT     H235868   1.509   5.107   5.626
11876WAT      O35869   8.695   0.561   2.230
11876WAT     H135870   8.736   0.597   2.314
11876WAT     H235871   8.748   0.593   2.151
11877WAT      O35872   7.458   2.180   8.878
11877WAT     H135873   7.491   2.114   8.810
11877WAT     H235874   7.359   2.167   8.891
11878WAT      O35875   0.112   9.591   0.075
11878WAT     H135876   0.108   9.525   0.149
11878WAT     H235877   0.206   9.599   0.042
11879WAT      O35878   4.156   9.832   3.309
11879WAT     H135879   4.060   9.806   3.299
11879WAT     H235880   4.161   9.922   3.352
11880WAT      O35881   7.333   4.444   8.174
11880WAT     H135882   7.389   4.487   8.245
11880WAT     H235883   7.293   4.515   8.116
11881WAT      O35884   3.268   1.379   6.110
11881WAT     H135885   3.311   1.369   6.200
11881WAT     H235886   3.338   1.375   6.039
11882WAT      O35887   1.602   3.877   9.444
11882WAT     H135888   1.582   3.907   9.537
11882WAT     H235889   1.627   3.780   9.444
11883WAT      O35890   7.333   6.394   6.246
11883WAT     H135891   7.317   6.338   6.164
11883WAT     H235892   7.302   6.344   6.327
11884WAT      O35893   4.518   8.041   6.279
11884WAT     H135894   4.455   8.114   6.306
11884WAT     H235895   4.469   7.972   6.227
11885WAT      O35896   6.429   1.086   6.095
11885WAT     H135897   6.393   1.032   6.171
11885WAT     H235898   6.521   1.118   6.117
11886WAT      O35899   3.667   3.547   7.031
11886WAT     H135900   3.570   3.521   7.035
11886WAT     H235901   3.678   3.637   7.072
11887WAT      O35902   1.561   6.617   3.877
11887WAT     H135903   1.469   6.617   3.915
11887WAT     H235904   1.578   6.529   3.831
11888WAT      O35905   9.055   9.272   3.514
11888WAT     H135906   9.086   9.178   3.522
11888WAT     H235907   8.960   9.279   3.542
11889WAT      O35908   4.200   0.801   5.290
11889WAT     H135909   4.222   0.893   5.324
11889WAT     H235910   4.283   0.746   5.288
11890WAT      O35911   4.276   3.676   6.256
11890WAT     H135912   4.366   3.652   6.219
11890WAT     H235913   4.231   3.592   6.288
11891WAT      O35914   3.060   2.996   8.288
11891WAT     H135915   3.070   3.067   8.357
11891WAT     H235916   3.110   3.023   8.205
11892WAT      O35917   9.592   2.591   8.037
11892WAT     H135918   9.504   2.615   7.996
11892WAT     H235919   9.583   2.507   8.090
11893WAT      O35920   4.443   9.093   7.812
11893WAT     H135921   4.373   9.136   7.755
11893WAT     H235922   4.403   9.017   7.862
11894WAT      O35923   0.238   2.217   5.952
11894WAT     H135924   0.175   2.141   5.936
11894WAT     H235925   0.316   2.209   5.890
11895WAT      O35926   8.126   2.774   4.306
11895WAT     H135927   8.086   2.788   4.397
11895WAT     H235928   8.170   2.684   4.302
11896WAT      O35929   5.833   3.854   0.789
11896WAT     H135930   5.799   3.947   0.773
11896WAT     H235931   5.858   3.812   0.702
11897WAT      O35932   7.669   7.208   0.943
11897WAT     H135933   7.742   7.226   1.010
11897WAT     H235934   7.654   7.290   0.887
11898WAT      O35935   9.755   7.310   3.430
11898WAT     H135936   9.755   7.319   3.529
11898WAT     H235937   9.729   7.216   3.405
11899WAT      O35938   2.902   7.854   7.551
11899WAT     H135939   2.922   7.772   7.497
11899WAT     H235940   2.871   7.827   7.642
11900WAT      O35941   7.521   9.361   1.367
11900WAT     H135942   7.589   9.325   1.431
11900WAT     H235943   7.501   9.456   1.390
11901WAT      O35944   7.010   5.477   3.980
11901WAT     H135945   7.011   5.572   4.009
11901WAT     H235946   7.076   5.463   3.906
11902WAT      O35947   5.792   3.767   4.634
11902WAT     H135948   5.778   3.708   4.713
11902WAT     H235949   5.889   3.767   4.609
11903WAT      O35950   1.285   7.576   8.659
11903WAT     H135951   1.198   7.617   8.636
11903WAT     H235952   1.357   7.613   8.600
11904WAT      O35953   3.326   0.286   4.710
11904WAT     H135954   3.396   0.217   4.727
11904WAT     H235955   3.236   0.250   4.736
11905WAT      O35956   5.468   5.730   3.725
11905WAT     H135957   5.401   5.722   3.652
11905WAT     H235958   5.551   5.680   3.701
11906WAT      O35959   7.572   7.014   0.235
11906WAT     H135960   7.495   7.069   0.202
11906WAT     H235961   7.649   7.023   0.173
11907WAT      O35962   1.399   5.779   5.425
11907WAT     H135963   1.375   5.793   5.522
11907WAT     H235964   1.482   5.830   5.404
11908WAT      O35965   1.468   8.356   6.364
11908WAT     H135966   1.494   8.436   6.416
11908WAT     H235967   1.466   8.276   6.424
11909WAT      O35968   3.583   9.066   2.374
11909WAT     H135969   3.505   9.037   2.318
11909WAT     H235970   3.555   9.073   2.470
11910WAT      O35971   6.214   9.573   1.843
11910WAT     H135972   6.181   9.491   1.796
11910WAT     H235973   6.314   9.571   1.846
11911WAT      O35974   0.923   2.177   8.748
11911WAT     H135975   0.904   2.211   8.840
11911WAT     H235976   0.858   2.104   8.725
11912WAT      O35977   7.546   8.351   6.940
11912WAT     H135978   7.556   8.362   6.841
11912WAT     H235979   7.600   8.272   6.970
11913WAT      O35980   5.898   4.791   3.464
11913WAT     H135981   5.988   4.830   3.481
11913WAT     H235982   5.843   4.797   3.548
11914WAT      O35983   1.219   2.555   3.683
11914WAT     H135984   1.152   2.541   3.755
11914WAT     H235985   1.287   2.481   3.686
11915WAT      O35986   8.889   4.208   3.098
11915WAT     H135987   8.914   4.294   3.142
11915WAT     H235988   8.937   4.201   3.011
11916WAT      O35989   6.641   5.064   8.750
11916WAT     H135990   6.648   4.996   8.677
11916WAT     H235991   6.653   5.020   8.838
11917WAT      O35992   4.319   6.429   2.856
11917WAT     H135993   4.225   6.452   2.830
11917WAT     H235994   4.318   6.351   2.919
11918WAT      O35995   0.039   6.023   2.354
11918WAT     H135996   0.097   6.091   2.400
11918WAT     H235997  -0.053   6.060   2.342
11919WAT      O35998   2.900   3.925   6.995
11919WAT     H135999   2.852   3.965   7.073
11919WAT     H236000   2.998   3.945   7.002
11920WAT      O36001   7.462   5.156   8.947
11920WAT     H136002   7.521   5.098   8.891
11920WAT     H236003   7.426   5.103   9.024
11921WAT      O36004   9.842   4.998   0.410
11921WAT     H136005   9.839   5.077   0.471
11921WAT     H236006   9.776   4.930   0.441
11922WAT      O36007   5.672   3.773   8.745
11922WAT     H136008   5.613   3.851   8.723
11922WAT     H236009   5.663   3.704   8.673
11923WAT      O36010   2.188   0.081   4.708
11923WAT     H136011   2.137   0.020   4.648
11923WAT     H236012   2.136   0.165   4.722
11924WAT      O36013   6.666   5.902   2.956
11924WAT     H136014   6.614   5.954   3.023
11924WAT     H236015   6.621   5.907   2.867
11925WAT      O36016   5.230   2.179   6.714
11925WAT     H136017   5.166   2.141   6.647
11925WAT     H236018   5.179   2.210   6.795
11926WAT      O36019   3.188   3.924   6.979
11926WAT     H136020   3.276   3.966   7.001
11926WAT     H236021   3.202   3.827   6.959
11927WAT      O36022   7.022   6.228   6.914
11927WAT     H136023   6.990   6.175   6.836
11927WAT     H236024   7.005   6.326   6.897
11928WAT      O36025   6.785   8.643   1.716
11928WAT     H136026   6.706   8.680   1.668
11928WAT     H236027   6.775   8.658   1.814
11929WAT      O36028   7.753   3.145   6.781
11929WAT     H136029   7.698   3.218   6.741
11929WAT     H236030   7.832   3.127   6.723
11930WAT      O36031   9.854   6.861   1.917
11930WAT     H136032   9.777   6.801   1.892
11930WAT     H236033   9.940   6.812   1.902
11931WAT      O36034   5.930   1.491   9.232
11931WAT     H136035   5.896   1.549   9.306
11931WAT     H236036   6.020   1.454   9.258
11932WAT      O36037   0.766   5.296   7.195
11932WAT     H136038   0.705   5.322   7.120
11932WAT     H236039   0.763   5.367   7.266
11933WAT      O36040   0.332   3.188   0.657
11933WAT     H136041   0.432   3.190   0.647
11933WAT     H236042   0.303   3.263   0.716
11934WAT      O36043   0.582   1.500   4.349
11934WAT     H136044   0.517   1.575   4.333
11934WAT     H236045   0.571   1.431   4.278
11935WAT      O36046   4.918   9.528   9.061
11935WAT     H136047   4.930   9.430   9.042
11935WAT     H236048   4.916   9.579   8.975
11936WAT      O36049   9.216   2.525   6.751
11936WAT     H136050   9.267   2.439   6.763
11936WAT     H236051   9.131   2.520   6.803
11937WAT      O36052   0.244   9.324   9.693
11937WAT     H136053   0.332   9.370   9.697
11937WAT     H236054   0.240   9.253   9.764
11938WAT      O36055   5.949   2.433   2.476
11938WAT     H136056   5.862   2.423   2.426
11938WAT     H236057   5.995   2.517   2.445
11939WAT      O36058   7.955   4.764   8.765
11939WAT     H136059   7.973   4.681   8.818
11939WAT     H236060   7.880   4.815   8.807
11940WAT      O36061   1.447   8.502   7.564
11940WAT     H136062   1.443   8.536   7.470
11940WAT     H236063   1.494   8.569   7.622
11941WAT      O36064   5.574   6.861   6.382
11941WAT     H136065   5.659   6.866   6.330
11941WAT     H236066   5.570   6.937   6.447
11942WAT      O36067   3.716   8.954   0.744
11942WAT     H136068   3.675   8.890   0.809
11942WAT     H236069   3.672   9.044   0.754
11943WAT      O36070   7.499   7.911   9.298
11943WAT     H136071   7.472   7.833   9.242
11943WAT     H236072   7.515   7.991   9.240
11944WAT      O36073   3.462   7.507   5.711
11944WAT     H136074   3.430   7.503   5.617
11944WAT     H236075   3.561   7.492   5.713
11945WAT      O36076   6.665   2.601   2.901
11945WAT     H136077   6.750   2.552   2.880
11945WAT     H236078   6.590   2.535   2.911
11946WAT      O36079   8.006   6.984   5.582
11946WAT     H136080   7.978   7.035   5.501
11946WAT     H236081   7.976   6.889   5.574
11947WAT      O36082   1.068   8.308   7.274
11947WAT     H136083   1.161   8.313   7.238
11947WAT     H236084   1.008   8.269   7.204
11948WAT      O36085   0.809   9.826   0.875
11948WAT     H136086   0.790   9.731   0.897
11948WAT     H236087   0.749   9.886   0.927
11949WAT      O36088   3.099   3.050   2.050
11949WAT     H136089   3.118   3.090   1.960
11949WAT     H236090   3.166   3.084   2.117
11950WAT      O36091   6.569   2.310   6.637
11950WAT     H136092   6.524   2.308   6.547
11950WAT     H236093   6.631   2.389   6.641
11951WAT      O36094   9.311   4.596   4.085
11951WAT     H136095   9.360   4.639   4.161
11951WAT     H236096   9.216   4.580   4.111
11952WAT      O36097   4.097   0.435   6.744
11952WAT     H136098   4.037   0.362   6.711
11952WAT     H236099   4.178   0.394   6.787
11953WAT      O36100   1.753   2.763   7.527
11953WAT     H136101   1.845   2.802   7.528
11953WAT     H236102   1.744   2.701   7.449
11954WAT      O36103   3.608   8.683   9.185
11954WAT     H136104   3.554   8.599   9.188
11954WAT     H236105   3.548   8.762   9.201
11955WAT      O36106   3.773   7.565   0.068
11955WAT     H136107   3.732   7.629   0.003
11955WAT     H236108   3.732   7.474   0.055
11956WAT      O36109   0.843   3.074   2.227
11956WAT     H136110   0.772   3.092   2.159
11956WAT     H236111   0.844   3.148   2.294
11957WAT      O36112   4.347   5.588   8.025
11957WAT     H136113   4.423   5.525   8.006
11957WAT     H236114   4.306   5.564   8.113
11958WAT      O36115   2.320   3.797   4.882
11958WAT     H136116   2.391   3.729   4.901
11958WAT     H236117   2.335   3.835   4.790
11959WAT      O36118   9.633   0.990   8.424
11959WAT     H136119   9.719   0.948   8.453
11959WAT     H236120   9.566   0.918   8.408
11960WAT      O36121   4.568   0.676   0.906
11960WAT     H136122   4.632   0.665   0.981
11960WAT     H236123   4.524   0.589   0.886
11961WAT      O36124   7.886   1.601   8.103
11961WAT     H136125   7.810   1.598   8.168
11961WAT     H236126   7.973   1.598   8.154
11962WAT      O36127   2.846   3.889   8.554
11962WAT     H136128   2.825   3.948   8.476
11962WAT     H236129   2.778   3.904   8.625
11963WAT      O36130   3.559   2.662   0.117
11963WAT     H136131   3.513   2.706   0.040
11963WAT     H236132   3.655   2.689   0.118
11964WAT      O36133   4.862   3.407   8.647
11964WAT     H136134   4.831   3.447   8.560
11964WAT     H236135   4.961   3.418   8.655
11965WAT      O36136   3.658   7.746   6.650
11965WAT     H136137   3.633   7.843   6.643
11965WAT     H236138   3.677   7.711   6.559
11966WAT      O36139   4.986   9.168   4.648
11966WAT     H136140   4.996   9.102   4.723
11966WAT     H236141   4.889   9.187   4.634
11967WAT      O36142   8.282   7.481   2.783
11967WAT     H136143   8.189   7.494   2.817
11967WAT     H236144   8.292   7.389   2.746
11968WAT      O36145   9.610   8.695   7.892
11968WAT     H136146   9.640   8.631   7.963
11968WAT     H236147   9.581   8.781   7.935
11969WAT      O36148   4.017   5.743   2.825
11969WAT     H136149   4.109   5.742   2.864
11969WAT     H236150   4.002   5.830   2.779
11970WAT      O36151   3.483   7.523   6.722
11970WAT     H136152   3.550   7.591   6.694
11970WAT     H236153   3.481   7.449   6.655
11971WAT      O36154   0.724   3.738   5.479
11971WAT     H136155   0.655   3.696   5.538
11971WAT     H236156   0.759   3.821   5.521
11972WAT      O36157   3.284   3.597   3.468
11972WAT     H136158   3.316   3.533   3.399
11972WAT     H236159   3.201   3.643   3.437
11973WAT      O36160   7.583   5.819   7.086
11973WAT     H136161   7.581   5.812   7.186
11973WAT     H236162   7.625   5.736   7.048
11974WAT      O36163   4.468   5.244   1.690
11974WAT     H136164   4.408   5.254   1.611
11974WAT     H236165   4.463   5.327   1.746
11975WAT      O36166   7.172   4.770   5.227
11975WAT     H136167   7.195   4.695   5.289
11975WAT     H236168   7.104   4.830   5.270
11976WAT      O36169   1.531   1.606   6.077
11976WAT     H136170   1.536   1.506   6.076
11976WAT     H236171   1.464   1.636   6.145
11977WAT      O36172   0.812   1.217   8.495
11977WAT     H136173   0.772   1.138   8.449
11977WAT     H236174   0.834   1.287   8.427
11978WAT      O36175   6.907   1.796   3.776
11978WAT     H136176   6.846   1.717   3.769
11978WAT     H236177   6.987   1.772   3.831
11979WAT      O36178   7.828   7.791   1.937
11979WAT     H136179   7.866   7.735   1.864
11979WAT     H236180   7.822   7.886   1.908
11980WAT      O36181   4.813   5.969   8.762
11980WAT     H136182   4.729   6.023   8.757
11980WAT     H236183   4.796   5.878   8.726
11981WAT      O36184   7.993   5.501   9.575
11981WAT     H136185   8.083   5.469   9.605
11981WAT     H236186   7.929   5.424   9.575
11982WAT      O36187   8.475   0.448   7.522
11982WAT     H136188   8.388   0.468   7.567
11982WAT     H236189   8.463   0.452   7.423
11983WAT      O36190   0.367   2.400   1.263
11983WAT     H136191   0.383   2.460   1.342
11983WAT     H236192   0.362   2.456   1.180
11984WAT      O36193   7.136   2.768   7.829
11984WAT     H136194   7.146   2.670   7.812
11984WAT     H236195   7.224   2.813   7.820
11985WAT      O36196   7.344   8.906   1.975
11985WAT     H136197   7.426   8.852   1.955
11985WAT     H236198   7.333   8.978   1.906
11986WAT      O36199   1.754   3.852   2.873
11986WAT     H136200   1.851   3.833   2.891
11986WAT     H236201   1.728   3.813   2.785
11987WAT      O36202   3.050   0.272   2.976
11987WAT     H136203   3.033   0.235   2.885
11987WAT     H236204   2.975   0.249   3.038
11988WAT      O36205   0.301   3.456   2.668
11988WAT     H136206   0.295   3.509   2.583
11988WAT     H236207   0.256   3.368   2.656
11989WAT      O36208   6.867   7.583   1.783
11989WAT     H136209   6.869   7.486   1.760
11989WAT     H236210   6.790   7.627   1.737
11990WAT      O36211   2.826   3.841   6.087
11990WAT     H136212   2.806   3.847   6.185
11990WAT     H236213   2.755   3.786   6.043
11991WAT      O36214   5.922   7.094   8.327
11991WAT     H136215   5.959   7.078   8.419
11991WAT     H236216   5.919   7.008   8.277
11992WAT      O36217   7.848   5.683   5.663
11992WAT     H136218   7.835   5.745   5.740
11992WAT     H236219   7.935   5.704   5.618
11993WAT      O36220   2.721   8.523   5.558
11993WAT     H136221   2.646   8.580   5.526
11993WAT     H236222   2.778   8.575   5.622
11994WAT      O36223   8.681   4.700   5.186
11994WAT     H136224   8.722   4.617   5.223
11994WAT     H236225   8.642   4.681   5.096
11995WAT      O36226   5.623   3.307   0.865
11995WAT     H136227   5.529   3.278   0.885
11995WAT     H236228   5.648   3.383   0.926
11996WAT      O36229   7.173   7.460   3.689
11996WAT     H136230   7.098   7.521   3.666
11996WAT     H236231   7.257   7.513   3.702
11997WAT      O36232   5.553   6.944   3.432
11997WAT     H136233   5.493   6.891   3.372
11997WAT     H236234   5.639   6.894   3.446
11998WAT      O36235   8.230   4.227   2.471
11998WAT     H136236   8.133   4.221   2.447
11998WAT     H236237   8.251   4.157   2.540
11999WAT      O36238   4.637   0.376   6.579
11999WAT     H136239   4.634   0.474   6.559
11999WAT     H236240   4.555   0.350   6.631
12000WAT      O36241   7.157   2.056   8.770
12000WAT     H136242   7.150   2.106   8.683
12000WAT     H236243   7.203   1.969   8.754
12001WAT      O36244   2.724   1.766   7.781
12001WAT     H136245   2.639   1.743   7.732
12001WAT     H236246   2.745   1.694   7.847
12002WAT      O36247   4.408   6.464   7.255
12002WAT     H136248   4.465   6.382   7.245
12002WAT     H236249   4.419   6.502   7.346
12003WAT      O36250   1.992   4.158   9.644
12003WAT     H136251   2.030   4.232   9.699
12003WAT     H236252   1.917   4.192   9.587
12004WAT      O36253   0.992   4.046   6.635
12004WAT     H136254   1.012   3.952   6.608
12004WAT     H236255   0.920   4.047   6.705
12005WAT      O36256   1.449   2.570   2.298
12005WAT     H136257   1.479   2.562   2.393
12005WAT     H236258   1.440   2.667   2.274
12006WAT      O36259   2.063   8.810   3.996
12006WAT     H136260   2.094   8.721   3.965
12006WAT     H236261   1.963   8.813   3.993
12007WAT      O36262   3.589   6.347   8.959
12007WAT     H136263   3.669   6.379   8.908
12007WAT     H236264   3.527   6.298   8.897
12008WAT      O36265   5.963   7.978   0.290
12008WAT     H136266   5.931   7.884   0.287
12008WAT     H236267   6.010   7.995   0.377
12009WAT      O36268   8.351   5.505   2.248
12009WAT     H136269   8.405   5.422   2.256
12009WAT     H236270   8.296   5.501   2.164
12010WAT      O36271   4.998   7.449   7.427
12010WAT     H136272   5.042   7.431   7.340
12010WAT     H236273   4.903   7.416   7.424
12011WAT      O36274   7.313   4.849   9.310
12011WAT     H136275   7.313   4.949   9.311
12011WAT     H236276   7.290   4.817   9.218
12012WAT      O36277   6.843   9.549   6.194
12012WAT     H136278   6.905   9.625   6.176
12012WAT     H236279   6.819   9.505   6.107
12013WAT      O36280   5.968   2.759   9.855
12013WAT     H136281   5.871   2.747   9.879
12013WAT     H236282   5.977   2.770   9.756
12014WAT      O36283   3.307   3.174   6.499
12014WAT     H136284   3.397   3.213   6.521
12014WAT     H236285   3.239   3.246   6.498
12015WAT      O36286   9.852   3.711   4.947
12015WAT     H136287   9.850   3.660   5.033
12015WAT     H236288   9.820   3.653   4.873
12016WAT      O36289   1.345   4.905   2.293
12016WAT     H136290   1.384   4.833   2.350
12016WAT     H236291   1.247   4.912   2.309
12017WAT      O36292   3.994   7.674   2.341
12017WAT     H136293   3.899   7.707   2.336
12017WAT     H236294   4.037   7.684   2.251
12018WAT      O36295   5.961   1.823   1.917
12018WAT     H136296   5.990   1.897   1.855
12018WAT     H236297   5.992   1.735   1.881
12019WAT      O36298   3.578   5.107   0.935
12019WAT     H136299   3.542   5.176   0.873
12019WAT     H236300   3.667   5.137   0.971
12020WAT      O36301   0.021   5.634   1.389
12020WAT     H136302  -0.075   5.641   1.362
12020WAT     H236303   0.078   5.676   1.319
12021WAT      O36304   7.765   0.605   2.877
12021WAT     H136305   7.780   0.521   2.825
12021WAT     H236306   7.850   0.658   2.879
12022WAT      O36307   4.425   8.243   2.551
12022WAT     H136308   4.421   8.316   2.620
12022WAT     H236309   4.478   8.167   2.587
12023WAT      O36310   2.104   0.416   8.342
12023WAT     H136311   2.058   0.362   8.413
12023WAT     H236312   2.141   0.500   8.382
12024WAT      O36313   3.096   4.469   7.487
12024WAT     H136314   3.012   4.466   7.432
12024WAT     H236315   3.174   4.491   7.429
12025WAT      O36316   5.162   2.161   4.491
12025WAT     H136317   5.202   2.170   4.582
12025WAT     H236318   5.110   2.243   4.469
12026WAT      O36319   6.978   2.043   1.825
12026WAT     H136320   6.970   1.972   1.755
12026WAT     H236321   6.977   2.133   1.782
12027WAT      O36322   9.127   5.447   5.347
12027WAT     H136323   9.056   5.377   5.344
12027WAT     H236324   9.128   5.490   5.438
12028WAT      O36325   7.842   6.312   3.253
12028WAT     H136326   7.744   6.332   3.253
12028WAT     H236327   7.893   6.397   3.264
12029WAT      O36328   2.921   9.407   8.637
12029WAT     H136329   2.905   9.353   8.555
12029WAT     H236330   2.834   9.430   8.680
12030WAT      O36331   7.204   3.069   3.538
12030WAT     H136332   7.107   3.062   3.515
12030WAT     H236333   7.225   3.162   3.569
12031WAT      O36334   6.246   6.736   8.056
12031WAT     H136335   6.172   6.758   7.993
12031WAT     H236336   6.326   6.792   8.036
12032WAT      O36337   1.848   7.831   0.898
12032WAT     H136338   1.920   7.828   0.968
12032WAT     H236339   1.807   7.922   0.898
12033WAT      O36340   6.855   4.252   2.310
12033WAT     H136341   6.756   4.259   2.313
12033WAT     H236342   6.881   4.164   2.269
12034WAT      O36343   0.561   9.546   8.693
12034WAT     H136344   0.631   9.594   8.641
12034WAT     H236345   0.539   9.459   8.649
12035WAT      O36346   0.724   7.072   4.786
12035WAT     H136347   0.823   7.087   4.790
12035WAT     H236348   0.704   6.980   4.819
12036WAT      O36349   0.165   9.662   6.478
12036WAT     H136350   0.147   9.632   6.572
12036WAT     H236351   0.082   9.653   6.424
12037WAT      O36352   9.211   5.142   6.056
12037WAT     H136353   9.301   5.133   6.097
12037WAT     H236354   9.174   5.233   6.076
12038WAT      O36355   1.700   2.694   0.355
12038WAT     H136356   1.668   2.609   0.314
12038WAT     H236357   1.624   2.738   0.404
12039WAT      O36358   6.177   8.999   7.227
12039WAT     H136359   6.099   8.967   7.279
12039WAT     H236360   6.148   9.023   7.134
12040WAT      O36361   3.864   6.143   9.671
12040WAT     H136362   3.860   6.229   9.621
12040WAT     H236363   3.818   6.153   9.759
12041WAT      O36364   1.138   0.770   5.311
12041WAT     H136365   1.199   0.715   5.369
12041WAT     H236366   1.051   0.783   5.359
12042WAT      O36367   5.822   5.910   0.521
12042WAT     H136368   5.768   5.983   0.478
12042WAT     H236369   5.880   5.868   0.452
12043WAT      O36370   5.761   9.169   0.257
12043WAT     H136371   5.839   9.152   0.197
12043WAT     H236372   5.741   9.088   0.311
12044WAT      O36373   4.932   5.414   0.663
12044WAT     H136374   4.954   5.326   0.705
12044WAT     H236375   4.988   5.485   0.705
12045WAT      O36376   9.056   8.015   9.072
12045WAT     H136377   9.077   8.009   8.974
12045WAT     H236378   9.055   8.111   9.100
12046WAT      O36379   2.395   4.038   1.198
12046WAT     H136380   2.307   4.047   1.153
12046WAT     H236381   2.440   4.127   1.202
12047WAT      O36382   6.994   7.181   2.196
12047WAT     H136383   7.011   7.277   2.175
12047WAT     H236384   6.919   7.175   2.262
12048WAT      O36385   3.922   9.191   3.657
12048WAT     H136386   3.864   9.139   3.595
12048WAT     H236387   3.950   9.276   3.613
12049WAT      O36388   1.146   6.755   9.528
12049WAT     H136389   1.162   6.804   9.614
12049WAT     H236390   1.221   6.690   9.513
12050WAT      O36391   1.485   7.847   3.237
12050WAT     H136392   1.471   7.939   3.275
12050WAT     H236393   1.569   7.845   3.183
12051WAT      O36394   1.963   0.813   6.382
12051WAT     H136395   1.982   0.903   6.344
12051WAT     H236396   1.919   0.822   6.471
12052WAT      O36397   1.128   1.720   1.230
12052WAT     H136398   1.118   1.666   1.314
12052WAT     H236399   1.224   1.743   1.216
12053WAT      O36400   1.364   3.435   8.107
12053WAT     H136401   1.368   3.364   8.177
12053WAT     H236402   1.453   3.443   8.062
12054WAT      O36403   3.803   0.396   7.464
12054WAT     H136404   3.723   0.380   7.523
12054WAT     H236405   3.885   0.365   7.511
12055WAT      O36406   6.186   2.822   6.327
12055WAT     H136407   6.141   2.735   6.306
12055WAT     H236408   6.248   2.846   6.252
12056WAT      O36409   4.953   8.443   0.142
12056WAT     H136410   5.031   8.393   0.180
12056WAT     H236411   4.944   8.531   0.188
12057WAT      O36412   3.547   3.968   5.938
12057WAT     H136413   3.595   3.934   6.019
12057WAT     H236414   3.479   4.035   5.966
12058WAT      O36415   4.185   7.123   9.712
12058WAT     H136416   4.131   7.054   9.663
12058WAT     H236417   4.188   7.207   9.657
12059WAT      O36418   3.211   4.619   0.245
12059WAT     H136419   3.256   4.569   0.171
12059WAT     H236420   3.249   4.711   0.251
12060WAT      O36421   8.880   7.488   1.453
12060WAT     H136422   8.881   7.388   1.455
12060WAT     H236423   8.797   7.521   1.498
12061WAT      O36424   9.524   4.044   4.289
12061WAT     H136425   9.617   4.052   4.254
12061WAT     H236426   9.510   3.954   4.329
12062WAT      O36427   6.129   7.590   5.233
12062WAT     H136428   6.152   7.570   5.138
12062WAT     H236429   6.072   7.516   5.270
12063WAT      O36430   4.819   4.347   8.809
12063WAT     H136431   4.735   4.366   8.758
12063WAT     H236432   4.879   4.426   8.805
12064WAT      O36433   6.863   9.106   0.920
12064WAT     H136434   6.823   9.196   0.938
12064WAT     H236435   6.963   9.113   0.924
12065WAT      O36436   3.863   6.558   8.581
12065WAT     H136437   3.908   6.647   8.593
12065WAT     H236438   3.846   6.543   8.483
12066WAT      O36439   4.379   3.574   3.697
12066WAT     H136440   4.350   3.480   3.678
12066WAT     H236441   4.357   3.597   3.792
12067WAT      O36442   0.436   5.176   4.330
12067WAT     H136443   0.509   5.244   4.338
12067WAT     H236444   0.472   5.085   4.353
12068WAT      O36445   8.486   7.785   6.085
12068WAT     H136446   8.433   7.795   6.169
12068WAT     H236447   8.451   7.849   6.016
12069WAT      O36448   7.326   4.361   0.328
12069WAT     H136449   7.426   4.367   0.326
12069WAT     H236450   7.291   4.412   0.407
12070WAT      O36451   6.270   7.407   3.509
12070WAT     H136452   6.199   7.441   3.571
12070WAT     H236453   6.269   7.307   3.508
12071WAT      O36454   5.287   3.414   1.587
12071WAT     H136455   5.227   3.482   1.545
12071WAT     H236456   5.322   3.352   1.517
12072WAT      O36457   8.804   5.506   3.381
12072WAT     H136458   8.808   5.445   3.459
12072WAT     H236459   8.724   5.484   3.325
12073WAT      O36460   6.860   9.301   4.791
12073WAT     H136461   6.780   9.298   4.732
12073WAT     H236462   6.843   9.248   4.874
12074WAT      O36463   2.121   2.584   3.162
12074WAT     H136464   2.110   2.642   3.243
12074WAT     H236465   2.149   2.492   3.191
12075WAT      O36466   3.723   6.383   3.636
12075WAT     H136467   3.693   6.416   3.726
12075WAT     H236468   3.805   6.327   3.647
12076WAT      O36469   4.447   7.722   5.876
12076WAT     H136470   4.464   7.812   5.916
12076WAT     H236471   4.359   7.722   5.829
12077WAT      O36472   8.922   6.270   8.395
12077WAT     H136473   8.909   6.356   8.345
12077WAT     H236474   8.999   6.279   8.458
12078WAT      O36475   3.313   9.409   2.892
12078WAT     H136476   3.296   9.462   2.975
12078WAT     H236477   3.406   9.426   2.860
12079WAT      O36478   3.403   1.844   9.878
12079WAT     H136479   3.327   1.814   9.820
12079WAT     H236480   3.367   1.900   9.953
12080WAT      O36481   6.327   3.779   2.992
12080WAT     H136482   6.366   3.735   3.072
12080WAT     H236483   6.228   3.786   3.002
12081WAT      O36484   4.198   4.626   0.261
12081WAT     H136485   4.293   4.602   0.243
12081WAT     H236486   4.192   4.679   0.346
12082WAT      O36487   7.535   7.150   3.775
12082WAT     H136488   7.442   7.180   3.796
12082WAT     H236489   7.568   7.197   3.693
12083WAT      O36490   2.741   3.086   8.914
12083WAT     H136491   2.659   3.117   8.866
12083WAT     H236492   2.784   3.164   8.960
12084WAT      O36493   4.233   7.782   1.221
12084WAT     H136494   4.298   7.856   1.205
12084WAT     H236495   4.255   7.705   1.161
12085WAT      O36496   0.573   5.226   7.871
12085WAT     H136497   0.571   5.155   7.800
12085WAT     H236498   0.665   5.265   7.876
12086WAT      O36499   6.845   5.456   8.676
12086WAT     H136500   6.892   5.489   8.758
12086WAT     H236501   6.859   5.357   8.666
12087WAT      O36502   7.182   1.490   8.818
12087WAT     H136503   7.216   1.520   8.907
12087WAT     H236504   7.181   1.567   8.755
12088WAT      O36505   9.832   8.334   5.145
12088WAT     H136506   9.828   8.372   5.237
12088WAT     H236507   9.774   8.388   5.084
12089WAT      O36508   9.802   2.639   9.536
12089WAT     H136509   9.789   2.569   9.467
12089WAT     H236510   9.900   2.651   9.554
12090WAT      O36511   8.564   7.198   2.480
12090WAT     H136512   8.660   7.171   2.481
12090WAT     H236513   8.556   7.294   2.453
12091WAT      O36514   4.285   5.284   2.140
12091WAT     H136515   4.299   5.339   2.222
12091WAT     H236516   4.340   5.321   2.065
12092WAT      O36517   7.829   3.721   6.416
12092WAT     H136518   7.826   3.629   6.377
12092WAT     H236519   7.827   3.716   6.516
12093WAT      O36520   4.471   8.358   1.395
12093WAT     H136521   4.406   8.287   1.369
12093WAT     H236522   4.556   8.346   1.344
12094WAT      O36523   5.589   3.795   0.036
12094WAT     H136524   5.578   3.892   0.058
12094WAT     H236525   5.678   3.764   0.069
12095WAT      O36526   4.483   8.911   0.426
12095WAT     H136527   4.473   8.990   0.487
12095WAT     H236528   4.419   8.839   0.454
12096WAT      O36529   6.192   7.983   3.519
12096WAT     H136530   6.119   7.926   3.480
12096WAT     H236531   6.224   8.047   3.450
12097WAT      O36532   5.283   8.529   8.559
12097WAT     H136533   5.186   8.552   8.565
12097WAT     H236534   5.308   8.513   8.464
12098WAT      O36535   1.748   1.228   2.740
12098WAT     H136536   1.706   1.179   2.664
12098WAT     H236537   1.808   1.300   2.704
12099WAT      O36538   7.646   8.065   1.558
12099WAT     H136539   7.570   8.030   1.503
12099WAT     H236540   7.732   8.056   1.507
12100WAT      O36541   5.539   5.920   2.367
12100WAT     H136542   5.459   5.869   2.336
12100WAT     H236543   5.541   5.921   2.467
12101WAT      O36544   2.188   6.009   4.567
12101WAT     H136545   2.191   6.102   4.601
12101WAT     H236546   2.095   5.972   4.576
12102WAT      O36547   1.904   6.228   6.224
12102WAT     H136548   1.850   6.234   6.309
12102WAT     H236549   2.000   6.246   6.245
12103WAT      O36550   9.777   3.766   2.442
12103WAT     H136551   9.871   3.745   2.467
12103WAT     H236552   9.747   3.849   2.488
12104WAT      O36553   4.084   9.049   4.451
12104WAT     H136554   4.059   9.049   4.354
12104WAT     H236555   4.083   9.143   4.485
12105WAT      O36556   5.269   9.335   0.654
12105WAT     H136557   5.288   9.354   0.558
12105WAT     H236558   5.195   9.395   0.686
12106WAT      O36559   7.235   3.009   1.365
12106WAT     H136560   7.330   2.991   1.388
12106WAT     H236561   7.219   3.107   1.361
12107WAT      O36562   3.846   7.046   2.153
12107WAT     H136563   3.915   7.073   2.085
12107WAT     H236564   3.797   6.966   2.119
12108WAT      O36565   6.686   7.571   1.354
12108WAT     H136566   6.649   7.584   1.446
12108WAT     H236567   6.767   7.628   1.342
12109WAT      O36568   1.832   7.517   9.373
12109WAT     H136569   1.744   7.502   9.327
12109WAT     H236570   1.903   7.532   9.304
12110WAT      O36571   3.987   3.237   0.920
12110WAT     H136572   3.993   3.287   1.006
12110WAT     H236573   4.055   3.163   0.920
12111WAT      O36574   1.757   6.120   3.054
12111WAT     H136575   1.669   6.160   3.028
12111WAT     H236576   1.791   6.165   3.137
12112WAT      O36577   1.733   6.484   3.114
12112WAT     H136578   1.774   6.451   3.199
12112WAT     H236579   1.802   6.482   3.041
12113WAT      O36580   0.569   3.148   1.275
12113WAT     H136581   0.570   3.087   1.196
12113WAT     H236582   0.606   3.100   1.355
12114WAT      O36583   5.842   3.353   2.582
12114WAT     H136584   5.828   3.273   2.640
12114WAT     H236585   5.935   3.350   2.544
12115WAT      O36586   6.285   5.842   5.352
12115WAT     H136587   6.365   5.783   5.350
12115WAT     H236588   6.243   5.845   5.261
12116WAT      O36589   3.793   4.008   5.144
12116WAT     H136590   3.747   3.942   5.203
12116WAT     H236591   3.739   4.092   5.138
12117WAT      O36592   6.535   1.618   2.501
12117WAT     H136593   6.510   1.536   2.551
12117WAT     H236594   6.479   1.695   2.532
12118WAT      O36595   6.891   8.942   7.830
12118WAT     H136596   6.950   8.919   7.907
12118WAT     H236597   6.817   8.875   7.823
12119WAT      O36598   3.501   0.217   1.519
12119WAT     H136599   3.427   0.284   1.516
12119WAT     H236600   3.468   0.131   1.555
12120WAT      O36601   9.424   4.730   2.026
12120WAT     H136602   9.465   4.820   2.013
12120WAT     H236603   9.479   4.661   1.979
12121WAT      O36604   8.500   5.311   5.017
12121WAT     H136605   8.579   5.250   5.028
12121WAT     H236606   8.418   5.267   5.053
12122WAT      O36607   5.155   2.036   3.169
12122WAT     H136608   5.197   2.127   3.169
12122WAT     H236609   5.218   1.971   3.211
12123WAT      O36610   9.577   4.260   1.071
12123WAT     H136611   9.626   4.295   0.991
12123WAT     H236612   9.642   4.218   1.134
12124WAT      O36613   8.988   7.370   7.583
12124WAT     H136614   9.035   7.287   7.556
12124WAT     H236615   9.046   7.423   7.646
12125WAT      O36616   5.260   3.894   6.231
12125WAT     H136617   5.289   3.962   6.298
12125WAT     H236618   5.295   3.920   6.141
12126WAT      O36619   5.122   9.255   5.637
12126WAT     H136620   5.152   9.179   5.580
12126WAT     H236621   5.102   9.334   5.578
12127WAT      O36622   0.408   3.113   3.639
12127WAT     H136623   0.388   3.131   3.735
12127WAT     H236624   0.359   3.178   3.581
12128WAT      O36625   8.644   9.733   9.403
12128WAT     H136626   8.669   9.809   9.343
12128WAT     H236627   8.595   9.664   9.350
12129WAT      O36628   0.664   0.201   4.938
12129WAT     H136629   0.698   0.131   5.002
12129WAT     H236630   0.712   0.287   4.954
12130WAT      O36631   5.436   0.596   5.696
12130WAT     H136632   5.345   0.560   5.717
12130WAT     H236633   5.451   0.594   5.597
12131WAT      O36634   1.617   3.941   3.649
12131WAT     H136635   1.583   3.853   3.615
12131WAT     H236636   1.716   3.935   3.660
12132WAT      O36637   6.246   2.678   0.961
12132WAT     H136638   6.262   2.617   0.884
12132WAT     H236639   6.281   2.769   0.939
12133WAT      O36640   1.162   1.204   6.718
12133WAT     H136641   1.074   1.186   6.760
12133WAT     H236642   1.231   1.142   6.755
12134WAT      O36643   4.520   9.527   5.712
12134WAT     H136644   4.595   9.594   5.705
12134WAT     H236645   4.557   9.439   5.741
12135WAT      O36646   0.128   3.884   0.368
12135WAT     H136647   0.059   3.953   0.389
12135WAT     H236648   0.103   3.837   0.283
12136WAT      O36649   7.022   3.832   5.146
12136WAT     H136650   7.072   3.810   5.230
12136WAT     H236651   7.034   3.929   5.124
12137WAT      O36652   6.538   7.036   4.190
12137WAT     H136653   6.569   7.131   4.182
12137WAT     H236654   6.611   6.980   4.229
12138WAT      O36655   9.177   4.993   8.359
12138WAT     H136656   9.131   5.011   8.272
12138WAT     H236657   9.115   5.014   8.435
12139WAT      O36658   7.999   3.588   2.639
12139WAT     H136659   8.054   3.655   2.590
12139WAT     H236660   7.902   3.602   2.618
12140WAT      O36661   5.851   9.714   4.562
12140WAT     H136662   5.926   9.682   4.620
12140WAT     H236663   5.884   9.726   4.469
12141WAT      O36664   5.647   7.886   5.583
12141WAT     H136665   5.617   7.887   5.487
12141WAT     H236666   5.567   7.900   5.642
12142WAT      O36667   6.942   5.077   2.164
12142WAT     H136668   6.909   5.134   2.088
12142WAT     H236669   6.915   5.119   2.251
12143WAT      O36670   0.924   4.339   1.454
12143WAT     H136671   0.889   4.431   1.470
12143WAT     H236672   1.005   4.344   1.395
12144WAT      O36673   5.464   6.726   4.353
12144WAT     H136674   5.468   6.668   4.271
12144WAT     H236675   5.457   6.668   4.434
12145WAT      O36676   4.378   8.155   0.879
12145WAT     H136677   4.452   8.150   0.946
12145WAT     H236678   4.379   8.245   0.835
12146WAT      O36679   7.851   4.463   8.635
12146WAT     H136680   7.882   4.493   8.725
12146WAT     H236681   7.860   4.538   8.569
12147WAT      O36682   8.398   7.901   0.558
12147WAT     H136683   8.342   7.818   0.560
12147WAT     H236684   8.417   7.926   0.463
12148WAT      O36685   0.037   8.405   6.960
12148WAT     H136686   0.017   8.467   6.885
12148WAT     H236687   0.124   8.431   7.003
12149WAT      O36688   2.575   0.710   5.160
12149WAT     H136689   2.522   0.647   5.216
12149WAT     H236690   2.670   0.679   5.155
12150WAT      O36691   9.828   7.132   7.285
12150WAT     H136692   9.792   7.122   7.377
12150WAT     H236693   9.808   7.224   7.251
12151WAT      O36694   2.964   8.567   2.789
12151WAT     H136695   3.009   8.657   2.782
12151WAT     H236696   2.988   8.511   2.710
12152WAT      O36697   7.672   1.528   4.788
12152WAT     H136698   7.648   1.484   4.874
12152WAT     H236699   7.640   1.623   4.788
12153WAT      O36700   7.378   3.318   9.239
12153WAT     H136701   7.311   3.334   9.167
12153WAT     H236702   7.467   3.353   9.210
12154WAT      O36703   2.416   4.723   0.963
12154WAT     H136704   2.463   4.769   0.888
12154WAT     H236705   2.399   4.788   1.037
12155WAT      O36706   2.631   1.304   0.968
12155WAT     H136707   2.639   1.212   1.007
12155WAT     H236708   2.577   1.362   1.030
12156WAT      O36709   3.284   3.273   0.145
12156WAT     H136710   3.276   3.292   0.047
12156WAT     H236711   3.367   3.316   0.181
12157WAT      O36712   2.533   4.908   6.152
12157WAT     H136713   2.472   4.848   6.100
12157WAT     H236714   2.479   4.975   6.203
12158WAT      O36715   1.282   5.420   2.309
12158WAT     H136716   1.204   5.360   2.290
12158WAT     H236717   1.334   5.383   2.386
12159WAT      O36718   6.163   1.828   9.001
12159WAT     H136719   6.130   1.878   8.921
12159WAT     H236720   6.241   1.770   8.975
12160WAT      O36721   8.459   6.225   1.749
12160WAT     H136722   8.423   6.165   1.678
12160WAT     H236723   8.440   6.320   1.724
12161WAT      O36724   5.272   8.507   1.582
12161WAT     H136725   5.360   8.536   1.619
12161WAT     H236726   5.198   8.557   1.628
12162WAT      O36727   8.656   3.038   1.517
12162WAT     H136728   8.691   3.044   1.423
12162WAT     H236729   8.572   2.983   1.518
12163WAT      O36730   0.620   2.490   0.543
12163WAT     H136731   0.661   2.430   0.474
12163WAT     H236732   0.526   2.460   0.561
12164WAT      O36733   6.279   6.947   1.817
12164WAT     H136734   6.260   6.873   1.752
12164WAT     H236735   6.372   6.938   1.852
12165WAT      O36736   1.145   4.206   7.990
12165WAT     H136737   1.139   4.306   7.981
12165WAT     H236738   1.228   4.174   7.944
12166WAT      O36739   2.545   5.736   4.535
12166WAT     H136740   2.596   5.808   4.488
12166WAT     H236741   2.462   5.775   4.576
12167WAT      O36742   7.109   4.078   3.285
12167WAT     H136743   7.023   4.059   3.236
12167WAT     H236744   7.184   4.027   3.241
12168WAT      O36745   9.413   6.818   8.754
12168WAT     H136746   9.454   6.903   8.721
12168WAT     H236747   9.407   6.821   8.854
12169WAT      O36748   2.666   9.701   6.926
12169WAT     H136749   2.746   9.706   6.865
12169WAT     H236750   2.667   9.779   6.988
12170WAT      O36751   8.093   2.796   7.693
12170WAT     H136752   8.018   2.858   7.671
12170WAT     H236753   8.178   2.847   7.699
12171WAT      O36754   1.825   5.496   4.453
12171WAT     H136755   1.896   5.434   4.487
12171WAT     H236756   1.753   5.442   4.408
12172WAT      O36757   6.706   4.966   4.014
12172WAT     H136758   6.627   5.024   3.993
12172WAT     H236759   6.745   4.993   4.102
12173WAT      O36760   0.586   0.141   8.213
12173WAT     H136761   0.553   0.076   8.281
12173WAT     H236762   0.602   0.094   8.127
12174WAT      O36763   1.645   4.396   0.563
12174WAT     H136764   1.720   4.461   0.557
12174WAT     H236765   1.622   4.363   0.471
12175WAT      O36766   3.212   7.889   3.032
12175WAT     H136767   3.288   7.830   3.058
12175WAT     H236768   3.248   7.976   2.997
12176WAT      O36769   3.801   8.334   0.059
12176WAT     H136770   3.794   8.353   0.157
12176WAT     H236771   3.895   8.305   0.038
12177WAT      O36772   5.615   8.292   2.088
12177WAT     H136773   5.695   8.327   2.040
12177WAT     H236774   5.538   8.288   2.025
12178WAT      O36775   2.702   7.619   8.021
12178WAT     H136776   2.673   7.689   8.086
12178WAT     H236777   2.646   7.537   8.032
12179WAT      O36778   6.137   4.630   8.964
12179WAT     H136779   6.095   4.601   8.877
12179WAT     H236780   6.119   4.727   8.978
12180WAT      O36781   8.072   6.281   0.408
12180WAT     H136782   8.071   6.181   0.417
12180WAT     H236783   7.993   6.309   0.353
12181WAT      O36784   5.817   8.798   0.147
12181WAT     H136785   5.847   8.744   0.068
12181WAT     H236786   5.896   8.843   0.189
12182WAT      O36787   4.169   9.330   5.710
12182WAT     H136788   4.236   9.402   5.693
12182WAT     H236789   4.137   9.293   5.623
12183WAT      O36790   0.085   7.639   4.124
12183WAT     H136791   0.073   7.644   4.224
12183WAT     H236792  -0.000   7.607   4.083
12184WAT      O36793   1.433   5.530   9.866
12184WAT     H136794   1.498   5.514   9.792
12184WAT     H236795   1.346   5.486   9.844
12185WAT      O36796   2.101   9.289   7.948
12185WAT     H136797   2.002   9.304   7.944
12185WAT     H236798   2.144   9.363   7.999
12186WAT      O36799   2.650   9.586   3.806
12186WAT     H136800   2.707   9.583   3.723
12186WAT     H236801   2.707   9.610   3.884
12187WAT      O36802   2.474   1.313   6.470
12187WAT     H136803   2.401   1.258   6.431
12187WAT     H236804   2.555   1.308   6.411
12188WAT      O36805   6.245   3.239   3.836
12188WAT     H136806   6.176   3.197   3.776
12188WAT     H236807   6.324   3.178   3.844
12189WAT      O36808   9.552   1.536   4.557
12189WAT     H136809   9.589   1.520   4.649
12189WAT     H236810   9.465   1.585   4.565
12190WAT      O36811   6.260   3.239   9.555
12190WAT     H136812   6.274   3.186   9.639
12190WAT     H236813   6.348   3.276   9.524
12191WAT      O36814   9.816   4.537   6.975
12191WAT     H136815   9.722   4.502   6.971
12191WAT     H236816   9.814   4.636   6.968
12192WAT      O36817   0.417   4.650   3.065
12192WAT     H136818   0.466   4.576   3.112
12192WAT     H236819   0.363   4.611   2.990
12193WAT      O36820   7.160   0.795   9.450
12193WAT     H136821   7.116   0.705   9.448
12193WAT     H236822   7.176   0.827   9.357
12194WAT      O36823   1.877   4.511   6.287
12194WAT     H136824   1.789   4.469   6.310
12194WAT     H236825   1.945   4.439   6.271
12195WAT      O36826   8.831   3.207   7.802
12195WAT     H136827   8.836   3.163   7.892
12195WAT     H236828   8.853   3.140   7.731
12196WAT      O36829   2.452   5.170   9.008
12196WAT     H136830   2.453   5.269   8.997
12196WAT     H236831   2.449   5.126   8.918
12197WAT      O36832   6.819   5.206   9.318
12197WAT     H136833   6.870   5.121   9.327
12197WAT     H236834   6.854   5.274   9.382
12198WAT      O36835   1.403   3.722   6.228
12198WAT     H136836   1.417   3.744   6.131
12198WAT     H236837   1.475   3.765   6.282
12199WAT      O36838   9.844   2.380   6.764
12199WAT     H136839   9.755   2.346   6.794
12199WAT     H236840   9.895   2.306   6.721
12200WAT      O36841   8.582   3.424   1.112
12200WAT     H136842   8.630   3.360   1.172
12200WAT     H236843   8.524   3.484   1.166
12201WAT      O36844   8.655   4.090   0.768
12201WAT     H136845   8.689   4.168   0.819
12201WAT     H236846   8.716   4.012   0.780
12202WAT      O36847   0.623   0.148   1.614
12202WAT     H136848   0.580   0.101   1.691
12202WAT     H236849   0.564   0.224   1.585
12203WAT      O36850   0.754   2.787   1.599
12203WAT     H136851   0.706   2.811   1.684
12203WAT     H236852   0.833   2.729   1.620
12204WAT      O36853   1.777   8.614   7.768
12204WAT     H136854   1.852   8.618   7.835
12204WAT     H236855   1.692   8.643   7.812
12205WAT      O36856   7.599   4.381   8.561
12205WAT     H136857   7.626   4.292   8.523
12205WAT     H236858   7.681   4.433   8.584
12206WAT      O36859   8.993   9.075   7.501
12206WAT     H136860   9.015   9.004   7.434
12206WAT     H236861   9.053   9.067   7.580
12207WAT      O36862   7.211   8.524   3.139
12207WAT     H136863   7.243   8.487   3.052
12207WAT     H236864   7.210   8.451   3.208
12208WAT      O36865   0.448   0.880   7.942
12208WAT     H136866   0.526   0.818   7.928
12208WAT     H236867   0.363   0.828   7.934
12209WAT      O36868   6.533   3.251   6.351
12209WAT     H136869   6.611   3.276   6.293
12209WAT     H236870   6.449   3.253   6.296
12210WAT      O36871   3.813   7.088   6.263
12210WAT     H136872   3.870   7.006   6.269
12210WAT     H236873   3.729   7.067   6.212
12211WAT      O36874   8.124   1.560   4.728
12211WAT     H136875   8.178   1.607   4.659
12211WAT     H236876   8.052   1.507   4.684
12212WAT      O36877   2.331   3.857   5.604
12212WAT     H136878   2.382   3.870   5.519
12212WAT     H236879   2.326   3.759   5.625
12213WAT      O36880   6.614   2.538   9.746
12213WAT     H136881   6.691   2.600   9.759
12213WAT     H236882   6.582   2.544   9.651
12214WAT      O36883   8.347   8.749   9.595
12214WAT     H136884   8.309   8.737   9.687
12214WAT     H236885   8.285   8.804   9.540
12215WAT      O36886   9.459   4.036   8.983
12215WAT     H136887   9.370   4.006   9.017
12215WAT     H236888   9.449   4.072   8.890
12216WAT      O36889   3.386   9.413   5.130
12216WAT     H136890   3.390   9.416   5.230
12216WAT     H236891   3.307   9.465   5.098
12217WAT      O36892   9.780   1.346   3.101
12217WAT     H136893   9.725   1.358   3.018
12217WAT     H236894   9.722   1.362   3.182
12218WAT      O36895   0.817   4.088   5.301
12218WAT     H136896   0.793   3.999   5.262
12218WAT     H236897   0.911   4.111   5.276
12219WAT      O36898   0.856   2.663   8.615
12219WAT     H136899   0.892   2.571   8.599
12219WAT     H236900   0.800   2.692   8.537
12220WAT      O36901   5.470   0.767   2.251
12220WAT     H136902   5.403   0.737   2.319
12220WAT     H236903   5.534   0.693   2.233
12221WAT      O36904   0.624   5.610   9.814
12221WAT     H136905   0.713   5.575   9.782
12221WAT     H236906   0.639   5.675   9.888
12222WAT      O36907   3.730   7.054   1.673
12222WAT     H136908   3.741   7.073   1.575
12222WAT     H236909   3.804   7.098   1.724
12223WAT      O36910   5.547   7.081   6.525
12223WAT     H136911   5.590   7.123   6.446
12223WAT     H236912   5.555   7.141   6.604
12224WAT      O36913   7.668   1.520   2.200
12224WAT     H136914   7.686   1.489   2.294
12224WAT     H236915   7.755   1.547   2.157
12225WAT      O36916   2.705   0.164   5.303
12225WAT     H136917   2.719   0.075   5.259
12225WAT     H236918   2.612   0.196   5.284
12226WAT      O36919   6.310   0.700   1.655
12226WAT     H136920   6.381   0.747   1.603
12226WAT     H236921   6.245   0.658   1.592
12227WAT      O36922   1.284   3.643   9.866
12227WAT     H136923   1.296   3.638   9.966
12227WAT     H236924   1.289   3.738   9.837
12228WAT      O36925   8.243   7.275   0.237
12228WAT     H136926   8.183   7.198   0.260
12228WAT     H236927   8.224   7.306   0.144
12229WAT      O36928   7.034   4.783   9.748
12229WAT     H136929   6.974   4.716   9.705
12229WAT     H236930   7.060   4.853   9.681
12230WAT      O36931   5.861   3.769   2.463
12230WAT     H136932   5.865   3.867   2.443
12230WAT     H236933   5.927   3.721   2.404
12231WAT      O36934   4.020   2.762   4.268
12231WAT     H136935   3.962   2.834   4.304
12231WAT     H236936   4.057   2.708   4.343
12232WAT      O36937   3.777   1.054   4.410
12232WAT     H136938   3.739   1.035   4.501
12232WAT     H236939   3.728   1.131   4.369
12233WAT      O36940   7.995   5.696   2.723
12233WAT     H136941   7.960   5.622   2.666
12233WAT     H236942   8.040   5.657   2.803
12234WAT      O36943   8.118   2.596   2.267
12234WAT     H136944   8.163   2.590   2.178
12234WAT     H236945   8.111   2.691   2.295
12235WAT      O36946   0.637   6.681   6.336
12235WAT     H136947   0.699   6.603   6.341
12235WAT     H236948   0.552   6.659   6.385
12236WAT      O36949   5.645   7.802   4.526
12236WAT     H136950   5.568   7.835   4.472
12236WAT     H236951   5.653   7.856   4.610
12237WAT      O36952   7.995   9.544   2.941
12237WAT     H136953   8.058   9.494   2.882
12237WAT     H236954   7.934   9.480   2.988
12238WAT      O36955   5.789   1.245   5.076
12238WAT     H136956   5.812   1.196   4.992
12238WAT     H236957   5.803   1.185   5.155
12239WAT      O36958   1.550   3.765   5.974
12239WAT     H136959   1.489   3.844   5.973
12239WAT     H236960   1.512   3.693   5.915
12240WAT      O36961   5.134   3.085   5.401
12240WAT     H136962   5.183   3.012   5.354
12240WAT     H236963   5.187   3.170   5.397
12241WAT      O36964   5.641   2.098   3.998
12241WAT     H136965   5.609   2.076   3.906
12241WAT     H236966   5.741   2.095   4.000
12242WAT      O36967   4.945   0.524   2.823
12242WAT     H136968   4.916   0.583   2.747
12242WAT     H236969   4.936   0.573   2.909
12243WAT      O36970   0.213   5.899   6.870
12243WAT     H136971   0.258   5.857   6.949
12243WAT     H236972   0.261   5.983   6.845
12244WAT      O36973   1.673   9.781   1.170
12244WAT     H136974   1.659   9.697   1.222
12244WAT     H236975   1.679   9.760   1.073
12245WAT      O36976   1.195   7.524   4.754
12245WAT     H136977   1.242   7.609   4.729
12245WAT     H236978   1.257   7.447   4.743
12246WAT      O36979   3.619   3.775   6.594
12246WAT     H136980   3.575   3.688   6.575
12246WAT     H236981   3.705   3.760   6.643
12247WAT      O36982   7.439   5.089   7.846
12247WAT     H136983   7.348   5.131   7.855
12247WAT     H236984   7.456   5.068   7.750
12248WAT      O36985   1.300   8.658   0.682
12248WAT     H136986   1.259   8.703   0.762
12248WAT     H236987   1.335   8.568   0.709
12249WAT      O36988   3.235   8.119   7.941
12249WAT     H136989   3.266   8.112   8.036
12249WAT     H236990   3.215   8.028   7.906
12250WAT      O36991   1.073   2.599   9.577
12250WAT     H136992   1.067   2.564   9.670
12250WAT     H236993   0.983   2.596   9.533
12251WAT      O36994   5.334   8.696   4.857
12251WAT     H136995   5.358   8.599   4.866
12251WAT     H236996   5.411   8.752   4.888
12252WAT      O36997   0.411   2.079   9.769
12252WAT     H136998   0.503   2.060   9.735
12252WAT     H236999   0.412   2.162   9.825
12253WAT      O37000   9.176   0.171   2.657
12253WAT     H137001   9.194   0.234   2.732
12253WAT     H237002   9.078   0.162   2.642
12254WAT      O37003   7.622   1.465   3.361
12254WAT     H137004   7.536   1.415   3.373
12254WAT     H237005   7.668   1.430   3.279
12255WAT      O37006   7.519   6.370   8.789
12255WAT     H137007   7.563   6.441   8.845
12255WAT     H237008   7.475   6.303   8.849
12256WAT      O37009   7.987   6.615   7.084
12256WAT     H137010   7.937   6.701   7.074
12256WAT     H237011   7.960   6.552   7.011
12257WAT      O37012   2.643   9.827   0.579
12257WAT     H137013   2.568   9.890   0.599
12257WAT     H237014   2.618   9.735   0.607
12258WAT      O37015   9.038   4.902   6.061
12258WAT     H137016   8.985   4.884   6.144
12258WAT     H237017   9.090   4.987   6.072
12259WAT      O37018   8.466   2.304   4.580
12259WAT     H137019   8.448   2.388   4.527
12259WAT     H237020   8.392   2.239   4.566
12260WAT      O37021   0.079   7.806   2.561
12260WAT     H137022  -0.000   7.866   2.551
12260WAT     H237023   0.058   7.733   2.625
12261WAT      O37024   4.799   5.428   0.048
12261WAT     H137025   4.851   5.470   0.123
12261WAT     H237026   4.788   5.495  -0.026
12262WAT      O37027   0.530   7.393   1.406
12262WAT     H137028   0.576   7.480   1.387
12262WAT     H237029   0.586   7.317   1.372
12263WAT      O37030   4.426   8.812   2.580
12263WAT     H137031   4.486   8.857   2.514
12263WAT     H237032   4.369   8.745   2.532
12264WAT      O37033   3.684   8.733   5.046
12264WAT     H137034   3.691   8.751   4.948
12264WAT     H237035   3.610   8.788   5.085
12265WAT      O37036   3.306   2.977   8.645
12265WAT     H137037   3.368   3.040   8.692
12265WAT     H237038   3.330   2.883   8.669
12266WAT      O37039   1.697   9.542   1.546
12266WAT     H137040   1.685   9.538   1.447
12266WAT     H237041   1.774   9.602   1.568
12267WAT      O37042   2.348   8.938   1.358
12267WAT     H137043   2.369   8.923   1.262
12267WAT     H237044   2.281   9.012   1.366
12268WAT      O37045   9.294   5.224   4.589
12268WAT     H137046   9.301   5.211   4.490
12268WAT     H237047   9.375   5.186   4.634
12269WAT      O37048   4.231   2.021   3.794
12269WAT     H137049   4.328   2.004   3.776
12269WAT     H237050   4.199   2.094   3.733
12270WAT      O37051   7.951   8.169   3.554
12270WAT     H137052   8.020   8.097   3.563
12270WAT     H237053   7.989   8.245   3.501
12271WAT      O37054   5.537   1.603   1.458
12271WAT     H137055   5.542   1.626   1.555
12271WAT     H237056   5.561   1.507   1.445
12272WAT      O37057   7.553   8.343   1.567
12272WAT     H137058   7.649   8.342   1.540
12272WAT     H237059   7.498   8.304   1.493
12273WAT      O37060   3.456   3.534   7.699
12273WAT     H137061   3.501   3.600   7.639
12273WAT     H237062   3.523   3.470   7.734
12274WAT      O37063   6.413   8.043   5.661
12274WAT     H137064   6.355   8.059   5.741
12274WAT     H237065   6.507   8.070   5.682
12275WAT      O37066   1.024   6.906   5.795
12275WAT     H137067   1.030   6.954   5.882
12275WAT     H237068   1.075   6.956   5.725
12276WAT      O37069   3.552   8.330   1.102
12276WAT     H137070   3.543   8.262   1.175
12276WAT     H237071   3.551   8.422   1.141
12277WAT      O37072   0.439   7.647   7.506
12277WAT     H137073   0.487   7.688   7.584
12277WAT     H237074   0.448   7.548   7.511
12278WAT      O37075   7.170   2.868   9.835
12278WAT     H137076   7.265   2.893   9.820
12278WAT     H237077   7.135   2.915   9.916
12279WAT      O37078   3.162   0.669   1.385
12279WAT     H137079   3.196   0.763   1.372
12279WAT     H237080   3.078   0.671   1.439
12280WAT      O37081   9.608   7.057   2.182
12280WAT     H137082   9.573   7.120   2.112
12280WAT     H237083   9.706   7.072   2.194
12281WAT      O37084   8.931   8.963   6.143
12281WAT     H137085   8.847   9.010   6.167
12281WAT     H237086   8.910   8.871   6.110
12282WAT      O37087   6.760   1.827   4.923
12282WAT     H137088   6.736   1.730   4.916
12282WAT     H237089   6.734   1.873   4.838
12283WAT      O37090   8.835   7.453   5.538
12283WAT     H137091   8.754   7.393   5.535
12283WAT     H237092   8.812   7.538   5.584
12284WAT      O37093   3.723   6.686   0.765
12284WAT     H137094   3.717   6.639   0.677
12284WAT     H237095   3.654   6.649   0.827
12285WAT      O37096   7.760   6.628   4.792
12285WAT     H137097   7.778   6.652   4.697
12285WAT     H237098   7.668   6.590   4.801
12286WAT      O37099   1.999   2.968   7.012
12286WAT     H137100   2.065   3.026   6.964
12286WAT     H237101   1.947   2.913   6.946
12287WAT      O37102   7.903   2.553   0.691
12287WAT     H137103   7.907   2.633   0.631
12287WAT     H237104   7.808   2.535   0.716
12288WAT      O37105   1.026   5.172   7.241
12288WAT     H137106   0.934   5.210   7.231
12288WAT     H237107   1.086   5.212   7.173
12289WAT      O37108   3.074   2.512   6.591
12289WAT     H137109   3.063   2.611   6.591
12289WAT     H237110   3.095   2.480   6.683
12290WAT      O37111   8.918   5.645   7.850
12290WAT     H137112   8.909   5.587   7.769
12290WAT     H237113   8.938   5.587   7.929
12291WAT      O37114   2.872   9.404   7.095
12291WAT     H137115   2.874   9.341   7.172
12291WAT     H237116   2.779   9.438   7.081
12292WAT      O37117   2.975   4.293   0.396
12292WAT     H137118   2.999   4.272   0.491
12292WAT     H237119   3.056   4.286   0.338
12293WAT      O37120   8.435   0.698   8.430
12293WAT     H137121   8.364   0.767   8.414
12293WAT     H237122   8.426   0.626   8.361
12294WAT      O37123   2.046   6.614   8.923
12294WAT     H137124   2.076   6.593   9.016
12294WAT     H237125   1.947   6.598   8.915
12295WAT      O37126   1.745   9.516   2.698
12295WAT     H137127   1.648   9.543   2.695
12295WAT     H237128   1.789   9.562   2.775
12296WAT      O37129   5.883   9.036   3.729
12296WAT     H137130   5.968   9.059   3.776
12296WAT     H237131   5.874   8.937   3.722
12297WAT      O37132   1.072   0.265   4.937
12297WAT     H137133   1.020   0.182   4.917
12297WAT     H237134   1.134   0.248   5.014
12298WAT      O37135   0.694   1.035   0.470
12298WAT     H137136   0.653   1.097   0.536
12298WAT     H237137   0.655   1.053   0.379
12299WAT      O37138   7.328   3.894   9.289
12299WAT     H137139   7.333   3.899   9.389
12299WAT     H237140   7.234   3.913   9.260
12300WAT      O37141   7.308   4.557   3.140
12300WAT     H137142   7.252   4.492   3.191
12300WAT     H237143   7.249   4.616   3.085
12301WAT      O37144   4.967   9.197   1.289
12301WAT     H137145   4.962   9.211   1.190
12301WAT     H237146   5.060   9.170   1.314
12302WAT      O37147   6.196   1.181   3.474
12302WAT     H137148   6.275   1.161   3.532
12302WAT     H237149   6.149   1.095   3.451
12303WAT      O37150   3.730   8.407   7.468
12303WAT     H137151   3.785   8.481   7.506
12303WAT     H237152   3.724   8.333   7.535
12304WAT      O37153   2.952   9.798   4.227
12304WAT     H137154   2.884   9.871   4.227
12304WAT     H237155   3.035   9.829   4.273
12305WAT      O37156   6.846   9.604   5.419
12305WAT     H137157   6.818   9.519   5.462
12305WAT     H237158   6.850   9.591   5.319
12306WAT      O37159   4.335   0.151   0.190
12306WAT     H137160   4.413   0.196   0.232
12306WAT     H237161   4.263   0.138   0.258
12307WAT      O37162   3.139   3.152   2.489
12307WAT     H137163   3.194   3.214   2.545
12307WAT     H237164   3.049   3.192   2.473
12308WAT      O37165   3.670   4.245   5.123
12308WAT     H137166   3.745   4.298   5.085
12308WAT     H237167   3.654   4.273   5.218
12309WAT      O37168   7.045   8.574   0.098
12309WAT     H137169   6.976   8.513   0.060
12309WAT     H237170   7.114   8.520   0.146
12310WAT      O37171   6.738   8.026   3.788
12310WAT     H137172   6.675   8.049   3.862
12310WAT     H237173   6.793   8.107   3.765
12311WAT      O37174   0.090   2.278   7.006
12311WAT     H137175   0.020   2.332   6.959
12311WAT     H237176   0.069   2.181   6.996
12312WAT      O37177   8.302   8.614   9.243
12312WAT     H137178   8.390   8.635   9.285
12312WAT     H237179   8.256   8.541   9.293
12313WAT      O37180   3.088   2.362   3.241
12313WAT     H137181   3.091   2.435   3.173
12313WAT     H237182   2.996   2.323   3.245
12314WAT      O37183   3.205   2.138   2.859
12314WAT     H137184   3.157   2.061   2.900
12314WAT     H237185   3.144   2.184   2.794
12315WAT      O37186   9.651   5.630   0.999
12315WAT     H137187   9.619   5.698   1.064
12315WAT     H237188   9.591   5.550   1.002
12316WAT      O37189   3.915   9.505   4.340
12316WAT     H137190   3.994   9.565   4.347
12316WAT     H237191   3.843   9.550   4.287
12317WAT      O37192   4.833   3.267   9.569
12317WAT     H137193   4.781   3.261   9.484
12317WAT     H237194   4.877   3.179   9.587
12318WAT      O37195   9.754   6.750   7.863
12318WAT     H137196   9.688   6.705   7.923
12318WAT     H237197   9.842   6.755   7.910
12319WAT      O37198   9.425   0.323   3.018
12319WAT     H137199   9.359   0.276   3.077
12319WAT     H237200   9.437   0.417   3.049
12320WAT      O37201   9.630   3.166   1.743
12320WAT     H137202   9.628   3.144   1.645
12320WAT     H237203   9.673   3.256   1.756
12321WAT      O37204   8.026   7.634   1.730
12321WAT     H137205   8.038   7.625   1.829
12321WAT     H237206   7.998   7.547   1.691
12322WAT      O37207   3.373   5.411   2.474
12322WAT     H137208   3.389   5.481   2.405
12322WAT     H237209   3.419   5.327   2.448
12323WAT      O37210   2.769   2.346   5.243
12323WAT     H137211   2.842   2.280   5.259
12323WAT     H237212   2.722   2.366   5.329
12324WAT      O37213   9.453   9.556   2.021
12324WAT     H137214   9.438   9.503   1.937
12324WAT     H237215   9.462   9.653   1.998
12325WAT      O37216   5.136   6.603   2.779
12325WAT     H137217   5.040   6.618   2.756
12325WAT     H237218   5.192   6.676   2.739
12326WAT      O37219   6.486   7.142   7.730
12326WAT     H137220   6.441   7.225   7.697
12326WAT     H237221   6.538   7.162   7.813
12327WAT      O37222   7.192   0.707   7.650
12327WAT     H137223   7.148   0.770   7.586
12327WAT     H237224   7.197   0.615   7.609
12328WAT      O37225   1.903   6.430   5.778
12328WAT     H137226   1.879   6.336   5.754
12328WAT     H237227   1.890   6.443   5.876
12329WAT      O37228   8.208   4.865   0.284
12329WAT     H137229   8.163   4.823   0.205
12329WAT     H237230   8.252   4.950   0.255
12330WAT      O37231   4.286   2.949   8.328
12330WAT     H137232   4.293   3.048   8.339
12330WAT     H237233   4.372   2.914   8.291
12331WAT      O37234   8.907   3.591   5.974
12331WAT     H137235   8.980   3.657   5.992
12331WAT     H237236   8.880   3.595   5.878
12332WAT      O37237   1.132   6.885   0.665
12332WAT     H137238   1.136   6.963   0.728
12332WAT     H237239   1.151   6.917   0.572
12333WAT      O37240   0.772   3.364   3.948
12333WAT     H137241   0.702   3.419   3.994
12333WAT     H237242   0.822   3.309   4.015
12334WAT      O37243   6.742   0.412   4.761
12334WAT     H137244   6.756   0.313   4.773
12334WAT     H237245   6.762   0.437   4.666
12335WAT      O37246   4.879   6.648   2.700
12335WAT     H137247   4.864   6.558   2.742
12335WAT     H237248   4.793   6.679   2.658
12336WAT      O37249   5.099   2.302   0.841
12336WAT     H137250   5.193   2.336   0.841
12336WAT     H237251   5.037   2.377   0.861
12337WAT      O37252   1.761   7.342   6.028
12337WAT     H137253   1.749   7.260   6.084
12337WAT     H237254   1.673   7.386   6.014
12338WAT      O37255   1.115   2.501   6.054
12338WAT     H137256   1.070   2.589   6.035
12338WAT     H237257   1.098   2.476   6.150
12339WAT      O37258   8.160   4.543   1.803
12339WAT     H137259   8.182   4.474   1.873
12339WAT     H237260   8.104   4.501   1.732
12340WAT      O37261   2.074   6.810   8.731
12340WAT     H137262   2.062   6.733   8.794
12340WAT     H237263   2.158   6.797   8.678
12341WAT      O37264   2.192   8.373   4.526
12341WAT     H137265   2.230   8.293   4.480
12341WAT     H237266   2.252   8.401   4.601
12342WAT      O37267   7.719   2.131   4.783
12342WAT     H137268   7.798   2.153   4.840
12342WAT     H237269   7.641   2.110   4.842
12343WAT      O37270   0.257   6.542   7.881
12343WAT     H137271   0.240   6.495   7.968
12343WAT     H237272   0.265   6.475   7.808
12344WAT      O37273   2.813   6.522   6.695
12344WAT     H137274   2.779   6.594   6.755
12344WAT     H237275   2.751   6.512   6.617
12345WAT      O37276   9.516   5.683   2.949
12345WAT     H137277   9.590   5.617   2.963
12345WAT     H237278   9.434   5.635   2.918
12346WAT      O37279   4.556   9.005   0.803
12346WAT     H137280   4.527   9.030   0.710
12346WAT     H237281   4.640   9.053   0.826
12347WAT      O37282   1.691   3.544   2.500
12347WAT     H137283   1.689   3.574   2.405
12347WAT     H237284   1.785   3.549   2.535
12348WAT      O37285   1.798   6.994   6.190
12348WAT     H137286   1.812   6.953   6.280
12348WAT     H237287   1.708   7.038   6.187
12349WAT      O37288   7.453   3.905   4.067
12349WAT     H137289   7.358   3.926   4.087
12349WAT     H237290   7.457   3.835   3.995
12350WAT      O37291   4.037   7.621   6.248
12350WAT     H137292   4.054   7.523   6.236
12350WAT     H237293   4.082   7.652   6.332
12351WAT      O37294   9.394   2.758   1.077
12351WAT     H137295   9.302   2.722   1.090
12351WAT     H237296   9.443   2.700   1.011
12352WAT      O37297   6.209   4.384   1.795
12352WAT     H137298   6.231   4.376   1.892
12352WAT     H237299   6.110   4.388   1.783
12353WAT      O37300   2.129   0.742   7.726
12353WAT     H137301   2.143   0.822   7.784
12353WAT     H237302   2.041   0.700   7.748
12354WAT      O37303   3.821   2.899   7.667
12354WAT     H137304   3.888   2.826   7.655
12354WAT     H237305   3.766   2.881   7.748
12355WAT      O37306   1.559   3.689   0.981
12355WAT     H137307   1.602   3.777   0.997
12355WAT     H237308   1.607   3.618   1.033
12356WAT      O37309   2.394   1.878   6.232
12356WAT     H137310   2.309   1.865   6.181
12356WAT     H237311   2.460   1.927   6.175
12357WAT      O37312   2.335   9.366   5.083
12357WAT     H137313   2.314   9.462   5.064
12357WAT     H237314   2.333   9.315   4.997
12358WAT      O37315   6.359   8.876   6.898
12358WAT     H137316   6.407   8.954   6.858
12358WAT     H237317   6.267   8.905   6.927
12359WAT      O37318   3.266   9.061   1.351
12359WAT     H137319   3.276   9.160   1.337
12359WAT     H237320   3.205   9.044   1.429
12360WAT      O37321   6.493   2.486   3.506
12360WAT     H137322   6.542   2.445   3.583
12360WAT     H237323   6.448   2.570   3.535
12361WAT      O37324   7.191   8.565   4.658
12361WAT     H137325   7.264   8.570   4.589
12361WAT     H237326   7.230   8.540   4.746
12362WAT      O37327   1.568   1.842   2.047
12362WAT     H137328   1.608   1.799   1.966
12362WAT     H237329   1.474   1.810   2.058
12363WAT      O37330   6.884   3.461   5.289
12363WAT     H137331   6.790   3.462   5.254
12363WAT     H237332   6.913   3.366   5.303
12364WAT      O37333   0.171   6.130   9.510
12364WAT     H137334   0.128   6.100   9.424
12364WAT     H237335   0.221   6.215   9.493
12365WAT      O37336   3.104   6.029   7.509
12365WAT     H137337   3.119   6.111   7.565
12365WAT     H237338   3.008   6.003   7.514
12366WAT      O37339   7.255   4.491   7.648
12366WAT     H137340   7.288   4.466   7.557
12366WAT     H237341   7.209   4.580   7.643
12367WAT      O37342   0.628   7.513   6.119
12367WAT     H137343   0.566   7.565   6.178
12367WAT     H237344   0.586   7.426   6.095
12368WAT      O37345   3.346   3.432   5.445
12368WAT     H137346   3.270   3.392   5.393
12368WAT     H237347   3.312   3.465   5.533
12369WAT      O37348   7.950   7.830   7.401
12369WAT     H137349   7.872   7.886   7.431
12369WAT     H237350   7.925   7.782   7.317
12370WAT      O37351   7.318   7.483   0.816
12370WAT     H137352   7.244   7.550   0.812
12370WAT     H237353   7.390   7.516   0.877
12371WAT      O37354   1.412   8.561   4.659
12371WAT     H137355   1.402   8.631   4.730
12371WAT     H237356   1.422   8.605   4.570
12372WAT      O37357   5.915   0.459   0.857
12372WAT     H137358   5.982   0.518   0.900
12372WAT     H237359   5.949   0.428   0.768
12373WAT      O37360   6.058   7.059   6.915
12373WAT     H137361   6.107   6.976   6.890
12373WAT     H237362   5.984   7.037   6.979
12374WAT      O37363   1.553   9.674   4.293
12374WAT     H137364   1.557   9.747   4.361
12374WAT     H237365   1.552   9.714   4.201
12375WAT      O37366   4.006   3.789   2.479
12375WAT     H137367   3.934   3.724   2.500
12375WAT     H237368   3.968   3.866   2.428
12376WAT      O37369   7.912   8.736   5.799
12376WAT     H137370   7.935   8.647   5.838
12376WAT     H237371   7.986   8.765   5.737
12377WAT      O37372   8.795   4.016   2.330
12377WAT     H137373   8.706   4.048   2.364
12377WAT     H237374   8.856   4.094   2.320
12378WAT      O37375   4.941   1.737   1.436
12378WAT     H137376   4.945   1.747   1.535
12378WAT     H237377   4.846   1.733   1.407
12379WAT      O37378   6.029   5.563   1.998
12379WAT     H137379   6.044   5.600   1.907
12379WAT     H237380   5.962   5.489   1.994
12380WAT      O37381   9.133   0.666   3.218
12380WAT     H137382   9.058   0.632   3.275
12380WAT     H237383   9.200   0.713   3.275
12381WAT      O37384   0.504   7.641   9.700
12381WAT     H137385   0.448   7.719   9.673
12381WAT     H237386   0.446   7.572   9.744
12382WAT      O37387   2.918   0.333   8.590
12382WAT     H137388   2.922   0.393   8.670
12382WAT     H237389   2.831   0.285   8.589
12383WAT      O37390   8.795   0.246   8.854
12383WAT     H137391   8.870   0.183   8.833
12383WAT     H237392   8.829   0.321   8.911
12384WAT      O37393   0.973   6.826   2.918
12384WAT     H137394   0.888   6.816   2.867
12384WAT     H237395   1.027   6.900   2.877
12385WAT      O37396   1.251   5.414   8.264
12385WAT     H137397   1.227   5.318   8.280
12385WAT     H237398   1.289   5.453   8.347
12386WAT      O37399   8.542   2.922   3.122
12386WAT     H137400   8.454   2.905   3.079
12386WAT     H237401   8.529   2.942   3.219
12387WAT      O37402   4.605   0.174   2.182
12387WAT     H137403   4.554   0.175   2.096
12387WAT     H237404   4.625   0.080   2.208
12388WAT      O37405   0.537   1.409   6.032
12388WAT     H137406   0.620   1.379   5.986
12388WAT     H237407   0.560   1.459   6.115
12389WAT      O37408   6.529   0.132   8.848
12389WAT     H137409   6.479   0.160   8.766
12389WAT     H237410   6.604   0.070   8.823
12390WAT      O37411   2.985   3.269   0.274
12390WAT     H137412   3.079   3.266   0.239
12390WAT     H237413   2.982   3.228   0.365
12391WAT      O37414   8.685   8.168   0.405
12391WAT     H137415   8.679   8.267   0.421
12391WAT     H237416   8.779   8.144   0.380
12392WAT      O37417   5.297   6.942   1.177
12392WAT     H137418   5.331   6.849   1.187
12392WAT     H237419   5.295   6.966   1.079
12393WAT      O37420   5.127   4.094   9.136
12393WAT     H137421   5.167   4.024   9.077
12393WAT     H237422   5.044   4.131   9.094
12394WAT      O37423   1.666   2.111   6.797
12394WAT     H137424   1.717   2.193   6.772
12394WAT     H237425   1.570   2.135   6.813
12395WAT      O37426   5.506   7.876   9.231
12395WAT     H137427   5.416   7.880   9.186
12395WAT     H237428   5.495   7.850   9.327
12396WAT      O37429   1.184   6.598   4.188
12396WAT     H137430   1.085   6.584   4.183
12396WAT     H237431   1.204   6.679   4.242
12397WAT      O37432   7.681   1.225   2.759
12397WAT     H137433   7.701   1.186   2.669
12397WAT     H237434   7.695   1.324   2.755
12398WAT      O37435   8.393   0.452   9.527
12398WAT     H137436   8.361   0.500   9.446
12398WAT     H237437   8.335   0.476   9.605
12399WAT      O37438   3.170   4.252   0.243
12399WAT     H137439   3.252   4.292   0.201
12399WAT     H237440   3.159   4.158   0.212
12400WAT      O37441   4.537   4.532   2.270
12400WAT     H137442   4.596   4.575   2.202
12400WAT     H237443   4.547   4.578   2.358
12401WAT      O37444   7.236   4.235   6.250
12401WAT     H137445   7.253   4.139   6.271
12401WAT     H237446   7.142   4.247   6.219
12402WAT      O37447   7.735   9.239   8.614
12402WAT     H137448   7.828   9.225   8.580
12402WAT     H237449   7.704   9.157   8.662
12403WAT      O37450   4.592   5.572   2.945
12403WAT     H137451   4.517   5.578   3.011
12403WAT     H237452   4.645   5.657   2.947
12404WAT      O37453   7.881   8.013   1.407
12404WAT     H137454   7.926   7.928   1.381
12404WAT     H237455   7.947   8.088   1.408
12405WAT      O37456   2.001   4.816   2.701
12405WAT     H137457   2.004   4.762   2.617
12405WAT     H237458   1.906   4.827   2.731
12406WAT      O37459   4.461   7.306   5.615
12406WAT     H137460   4.405   7.345   5.688
12406WAT     H237461   4.463   7.206   5.624
12407WAT      O37462   2.757   6.831   0.182
12407WAT     H137463   2.748   6.829   0.082
12407WAT     H237464   2.717   6.748   0.220
12408WAT      O37465   4.140   5.075   0.374
12408WAT     H137466   4.239   5.066   0.368
12408WAT     H237467   4.100   5.061   0.283
12409WAT      O37468   0.363   9.760   3.478
12409WAT     H137469   0.331   9.713   3.396
12409WAT     H237470   0.459   9.787   3.466
12410WAT      O37471   5.117   4.063   9.611
12410WAT     H137472   5.186   4.055   9.684
12410WAT     H237473   5.162   4.086   9.525
12411WAT      O37474   3.770   4.382   7.061
12411WAT     H137475   3.693   4.325   7.033
12411WAT     H237476   3.855   4.330   7.052
12412WAT      O37477   7.497   4.514   9.124
12412WAT     H137478   7.460   4.536   9.214
12412WAT     H237479   7.422   4.498   9.060
12413WAT      O37480   0.183   3.865   5.922
12413WAT     H137481   0.129   3.853   5.839
12413WAT     H237482   0.170   3.787   5.983
12414WAT      O37483   2.601   0.535   8.371
12414WAT     H137484   2.569   0.447   8.407
12414WAT     H237485   2.548   0.609   8.410
12415WAT      O37486   1.589   6.570   8.758
12415WAT     H137487   1.565   6.649   8.702
12415WAT     H237488   1.538   6.490   8.726
12416WAT      O37489   3.965   0.959   3.318
12416WAT     H137490   4.058   0.930   3.339
12416WAT     H237491   3.912   0.881   3.286
12417WAT      O37492   8.058   9.437   2.019
12417WAT     H137493   8.052   9.537   2.016
12417WAT     H237494   7.985   9.397   1.964
12418WAT      O37495   3.332   2.163   6.856
12418WAT     H137496   3.402   2.152   6.785
12418WAT     H237497   3.249   2.113   6.830
12419WAT      O37498   2.649   9.584   5.926
12419WAT     H137499   2.618   9.669   5.970
12419WAT     H237500   2.731   9.550   5.973
12420WAT      O37501   1.796   8.871   9.722
12420WAT     H137502   1.874   8.849   9.781
12420WAT     H237503   1.802   8.967   9.694
12421WAT      O37504   1.647   6.150   3.385
12421WAT     H137505   1.652   6.051   3.396
12421WAT     H237506   1.740   6.188   3.381
12422WAT      O37507   6.202   4.521   1.099
12422WAT     H137508   6.292   4.544   1.136
12422WAT     H237509   6.161   4.601   1.057
12423WAT      O37510   1.853   2.700   1.925
12423WAT     H137511   1.802   2.731   2.005
12423WAT     H237512   1.794   2.644   1.867
12424WAT      O37513   5.830   2.236   2.167
12424WAT     H137514   5.776   2.210   2.088
12424WAT     H237515   5.875   2.155   2.205
12425WAT      O37516   6.343   8.336   9.780
12425WAT     H137517   6.336   8.338   9.680
12425WAT     H237518   6.252   8.329   9.820
12426WAT      O37519   2.973   1.908   4.012
12426WAT     H137520   2.883   1.882   3.976
12426WAT     H237521   3.045   1.869   3.955
12427WAT      O37522   4.697   0.214   5.919
12427WAT     H137523   4.685   0.117   5.897
12427WAT     H237524   4.668   0.230   6.014
12428WAT      O37525   5.813   8.190   3.928
12428WAT     H137526   5.755   8.180   4.009
12428WAT     H237527   5.859   8.279   3.932
12429WAT      O37528   5.082   9.553   4.137
12429WAT     H137529   5.132   9.638   4.122
12429WAT     H237530   5.114   9.510   4.221
12430WAT      O37531   0.459   5.399   0.223
12430WAT     H137532   0.446   5.478   0.283
12430WAT     H237533   0.403   5.410   0.140
12431WAT      O37534   7.121   2.146   5.419
12431WAT     H137535   7.052   2.104   5.478
12431WAT     H237536   7.125   2.097   5.332
12432WAT      O37537   4.109   4.194   9.549
12432WAT     H137538   4.034   4.135   9.521
12432WAT     H237539   4.095   4.223   9.644
12433WAT      O37540   8.536   4.538   7.472
12433WAT     H137541   8.609   4.470   7.468
12433WAT     H237542   8.447   4.492   7.478
12434WAT      O37543   6.407   1.420   6.493
12434WAT     H137544   6.360   1.339   6.527
12434WAT     H237545   6.369   1.502   6.538
12435WAT      O37546   4.195   3.320   9.082
12435WAT     H137547   4.199   3.418   9.103
12435WAT     H237548   4.285   3.289   9.051
12436WAT      O37549   2.879   2.554   6.961
12436WAT     H137550   2.884   2.642   6.912
12436WAT     H237551   2.935   2.486   6.913
12437WAT      O37552   3.098   9.483   0.413
12437WAT     H137553   3.149   9.419   0.357
12437WAT     H237554   3.159   9.555   0.447
12438WAT      O37555   5.342   0.187   7.234
12438WAT     H137556   5.306   0.232   7.316
12438WAT     H237557   5.265   0.160   7.175
12439WAT      O37558   1.057   9.627   2.655
12439WAT     H137559   1.021   9.549   2.706
12439WAT     H237560   0.988   9.699   2.651
12440WAT      O37561   8.500   8.873   0.076
12440WAT     H137562   8.588   8.861   0.121
12440WAT     H237563   8.439   8.928   0.134
12441WAT      O37564   0.454   1.879   3.609
12441WAT     H137565   0.366   1.849   3.645
12441WAT     H237566   0.506   1.799   3.577
12442WAT      O37567   4.101   2.326   2.165
12442WAT     H137568   4.052   2.412   2.173
12442WAT     H237569   4.191   2.343   2.124
12443WAT      O37570   1.915   1.584   4.202
12443WAT     H137571   1.905   1.588   4.103
12443WAT     H237572   1.858   1.655   4.244
12444WAT      O37573   9.271   8.584   9.381
12444WAT     H137574   9.202   8.627   9.324
12444WAT     H237575   9.311   8.507   9.332
12445WAT      O37576   1.915   0.606   4.379
12445WAT     H137577   1.971   0.686   4.356
12445WAT     H237578   1.974   0.527   4.393
12446WAT      O37579   2.784   8.480   9.430
12446WAT     H137580   2.882   8.496   9.421
12446WAT     H237581   2.766   8.416   9.505
12447WAT      O37582   8.096   1.192   9.431
12447WAT     H137583   8.084   1.173   9.529
12447WAT     H237584   8.150   1.275   9.421
12448WAT      O37585   4.409   9.237   1.466
12448WAT     H137586   4.501   9.275   1.454
12448WAT     H237587   4.395   9.162   1.402
12449WAT      O37588   3.069   6.005   5.727
12449WAT     H137589   3.134   6.053   5.785
12449WAT     H237590   3.116   5.963   5.650
12450WAT      O37591   3.235   7.341   0.543
12450WAT     H137592   3.288   7.288   0.609
12450WAT     H237593   3.298   7.390   0.482
12451WAT      O37594   2.607   9.306   6.436
12451WAT     H137595   2.575   9.357   6.517
12451WAT     H237596   2.532   9.249   6.401
12452WAT      O37597   6.474   0.100   4.299
12452WAT     H137598   6.476   0.162   4.378
12452WAT     H237599   6.381   0.094   4.263
12453WAT      O37600   1.759   1.066   7.039
12453WAT     H137601   1.819   1.011   7.098
12453WAT     H237602   1.666   1.065   7.077
12454WAT      O37603   5.698   7.694   6.286
12454WAT     H137604   5.637   7.739   6.221
12454WAT     H237605   5.654   7.611   6.321
12455WAT      O37606   0.618   3.280   9.151
12455WAT     H137607   0.687   3.327   9.095
12455WAT     H237608   0.546   3.244   9.092
12456WAT      O37609   8.545   4.719   4.919
12456WAT     H137610   8.521   4.799   4.865
12456WAT     H237611   8.609   4.661   4.867
12457WAT      O37612   1.740   4.975   2.107
12457WAT     H137613   1.680   5.053   2.093
12457WAT     H237614   1.835   5.004   2.101
12458WAT      O37615   7.419   6.602   4.188
12458WAT     H137616   7.343   6.626   4.249
12458WAT     H237617   7.476   6.683   4.173
12459WAT      O37618   5.442   6.498   4.129
12459WAT     H137619   5.429   6.528   4.034
12459WAT     H237620   5.360   6.517   4.182
12460WAT      O37621   4.278   4.746   8.611
12460WAT     H137622   4.257   4.649   8.595
12460WAT     H237623   4.215   4.803   8.559
12461WAT      O37624   3.302   6.720   8.715
12461WAT     H137625   3.382   6.764   8.676
12461WAT     H237626   3.315   6.621   8.717
12462WAT      O37627   4.436   1.199   9.760
12462WAT     H137628   4.431   1.296   9.735
12462WAT     H237629   4.355   1.173   9.813
12463WAT      O37630   4.599   0.029   9.722
12463WAT     H137631   4.552   0.095   9.663
12463WAT     H237632   4.693   0.058   9.737
12464WAT      O37633   7.527   4.014   8.630
12464WAT     H137634   7.512   3.918   8.653
12464WAT     H237635   7.547   4.065   8.714
12465WAT      O37636   9.069   1.018   1.143
12465WAT     H137637   9.053   1.042   1.238
12465WAT     H237638   9.058   0.919   1.131
12466WAT      O37639   6.971   1.202   8.622
12466WAT     H137640   6.879   1.183   8.588
12466WAT     H237641   6.966   1.231   8.718
12467WAT      O37642   7.864   7.745   3.598
12467WAT     H137643   7.895   7.791   3.681
12467WAT     H237644   7.772   7.710   3.613
12468WAT      O37645   9.872   0.438   1.331
12468WAT     H137646   9.941   0.510   1.340
12468WAT     H237647   9.783   0.473   1.361
12469WAT      O37648   3.419   9.228   1.600
12469WAT     H137649   3.462   9.273   1.679
12469WAT     H237650   3.348   9.166   1.632
12470WAT      O37651   8.043   2.833   4.861
12470WAT     H137652   7.985   2.915   4.857
12470WAT     H237653   7.993   2.759   4.905
12471WAT      O37654   8.766   2.765   3.704
12471WAT     H137655   8.833   2.699   3.737
12471WAT     H237656   8.784   2.784   3.607
12472WAT      O37657   5.627   2.135   7.217
12472WAT     H137658   5.677   2.048   7.218
12472WAT     H237659   5.650   2.187   7.299
12473WAT      O37660   2.104   4.662   3.910
12473WAT     H137661   2.178   4.729   3.921
12473WAT     H237662   2.020   4.699   3.948
12474WAT      O37663   0.648   1.209   0.850
12474WAT     H137664   0.631   1.143   0.923
12474WAT     H237665   0.734   1.186   0.804
12475WAT      O37666   1.436   2.144   0.340
12475WAT     H137667   1.428   2.237   0.305
12475WAT     H237668   1.408   2.142   0.436
12476WAT      O37669   4.164   8.701   7.520
12476WAT     H137670   4.221   8.715   7.602
12476WAT     H237671   4.157   8.603   7.501
12477WAT      O37672   9.433   8.268   3.056
12477WAT     H137673   9.361   8.327   3.021
12477WAT     H237674   9.448   8.288   3.153
12478WAT      O37675   3.767   2.054   5.634
12478WAT     H137676   3.723   1.968   5.658
12478WAT     H237677   3.865   2.047   5.649
12479WAT      O37678   5.310   8.408   5.788
12479WAT     H137679   5.386   8.390   5.726
12479WAT     H237680   5.345   8.417   5.881
12480WAT      O37681   4.359   9.547   2.755
12480WAT     H137682   4.283   9.601   2.719
12480WAT     H237683   4.336   9.450   2.753
12481WAT      O37684   6.696   0.332   8.958
12481WAT     H137685   6.635   0.409   8.977
12481WAT     H237686   6.641   0.254   8.927
12482WAT      O37687   5.111   3.671   6.324
12482WAT     H137688   5.165   3.737   6.272
12482WAT     H237689   5.033   3.717   6.366
12483WAT      O37690   2.433   6.018   9.565
12483WAT     H137691   2.412   5.960   9.644
12483WAT     H237692   2.467   5.961   9.490
12484WAT      O37693   2.387   8.513   8.185
12484WAT     H137694   2.294   8.479   8.199
12484WAT     H237695   2.415   8.567   8.264
12485WAT      O37696   7.798   9.405   0.252
12485WAT     H137697   7.706   9.393   0.216
12485WAT     H237698   7.858   9.440   0.180
12486WAT      O37699   3.160   2.430   1.758
12486WAT     H137700   3.118   2.443   1.847
12486WAT     H237701   3.090   2.429   1.687
12487WAT      O37702   8.868   5.447   7.188
12487WAT     H137703   8.795   5.515   7.194
12487WAT     H237704   8.869   5.406   7.097
12488WAT      O37705   3.346   5.635   1.375
12488WAT     H137706   3.330   5.565   1.444
12488WAT     H237707   3.335   5.726   1.415
12489WAT      O37708   3.664   4.721   0.041
12489WAT     H137709   3.711   4.678  -0.036
12489WAT     H237710   3.633   4.651   0.105
12490WAT      O37711   9.554   5.194   0.682
12490WAT     H137712   9.603   5.216   0.766
12490WAT     H237713   9.457   5.180   0.702
12491WAT      O37714   5.272   1.996   4.285
12491WAT     H137715   5.242   2.052   4.362
12491WAT     H237716   5.215   2.017   4.205
12492WAT      O37717   1.123   7.632   9.119
12492WAT     H137718   1.056   7.698   9.083
12492WAT     H237719   1.078   7.544   9.134
12493WAT      O37720   6.323   2.119   8.915
12493WAT     H137721   6.321   2.060   8.995
12493WAT     H237722   6.412   2.165   8.909
12494WAT      O37723   2.734   0.052   9.436
12494WAT     H137724   2.684  -0.005   9.370
12494WAT     H237725   2.732   0.008   9.526
12495WAT      O37726   9.287   8.588   8.008
12495WAT     H137727   9.278   8.648   7.929
12495WAT     H237728   9.290   8.644   8.091
12496WAT      O37729   3.894   8.468   5.344
12496WAT     H137730   3.872   8.566   5.342
12496WAT     H237731   3.826   8.419   5.398
12497WAT      O37732   4.949   6.441   8.585
12497WAT     H137733   4.990   6.361   8.542
12497WAT     H237734   5.015   6.483   8.648
12498WAT      O37735   6.981   2.164   6.835
12498WAT     H137736   6.961   2.070   6.862
12498WAT     H237737   7.061   2.166   6.775
12499WAT      O37738   9.410   0.297   9.784
12499WAT     H137739   9.425   0.207   9.743
12499WAT     H237740   9.313   0.321   9.778
12500WAT      O37741   0.046   9.117   3.838
12500WAT     H137742   0.004   9.139   3.750
12500WAT     H237743  -0.003   9.040   3.880
12501WAT      O37744   6.506   3.351   5.964
12501WAT     H137745   6.600   3.326   5.987
12501WAT     H237746   6.457   3.271   5.931
12502WAT      O37747   4.083   2.893   7.283
12502WAT     H137748   3.998   2.930   7.321
12502WAT     H237749   4.066   2.857   7.191
12503WAT      O37750   1.032   9.104   3.126
12503WAT     H137751   0.947   9.072   3.083
12503WAT     H237752   1.095   9.027   3.138
12504WAT      O37753   8.773   0.611   6.608
12504WAT     H137754   8.696   0.676   6.615
12504WAT     H237755   8.750   0.541   6.540
12505WAT      O37756   2.568   3.825   6.682
12505WAT     H137757   2.655   3.864   6.714
12505WAT     H237758   2.555   3.736   6.724
12506WAT      O37759   5.027   3.286   5.197
12506WAT     H137760   5.035   3.293   5.098
12506WAT     H237761   5.115   3.306   5.240
12507WAT      O37762   0.897   8.537   8.611
12507WAT     H137763   0.920   8.614   8.552
12507WAT     H237764   0.905   8.565   8.707
12508WAT      O37765   4.237   8.785   8.812
12508WAT     H137766   4.240   8.817   8.907
12508WAT     H237767   4.187   8.699   8.807
12509WAT      O37768   8.923   5.703   7.407
12509WAT     H137769   8.851   5.761   7.445
12509WAT     H237770   8.979   5.757   7.344
12510WAT      O37771   7.606   3.208   5.129
12510WAT     H137772   7.549   3.281   5.092
12510WAT     H237773   7.548   3.135   5.166
12511WAT      O37774   0.462   8.948   2.038
12511WAT     H137775   0.408   8.958   2.122
12511WAT     H237776   0.501   9.037   2.013
12512WAT      O37777   8.608   0.846   6.640
12512WAT     H137778   8.513   0.873   6.623
12512WAT     H237779   8.621   0.831   6.738
12513WAT      O37780   6.989   6.773   2.344
12513WAT     H137781   7.062   6.814   2.399
12513WAT     H237782   6.943   6.702   2.398
12514WAT      O37783   0.322   8.948   9.434
12514WAT     H137784   0.338   8.901   9.521
12514WAT     H237785   0.249   9.016   9.445
12515WAT      O37786   5.660   8.944   2.887
12515WAT     H137787   5.588   8.938   2.957
12515WAT     H237788   5.727   9.012   2.915
12516WAT      O37789   2.655   2.034   5.523
12516WAT     H137790   2.647   1.954   5.582
12516WAT     H237791   2.731   2.091   5.554
12517WAT      O37792   8.793   2.989   9.748
12517WAT     H137793   8.885   3.025   9.732
12517WAT     H237794   8.735   3.062   9.786
12518WAT      O37795   4.380   0.104   7.141
12518WAT     H137796   4.297   0.109   7.085
12518WAT     H237797   4.429   0.019   7.121
12519WAT      O37798   7.977   5.160   0.607
12519WAT     H137799   7.997   5.070   0.567
12519WAT     H237800   8.026   5.169   0.694
12520WAT      O37801   8.166   3.589   3.116
12520WAT     H137802   8.230   3.542   3.056
12520WAT     H237803   8.077   3.597   3.071
12521WAT      O37804   8.079   2.325   5.761
12521WAT     H137805   8.140   2.312   5.682
12521WAT     H237806   8.020   2.244   5.770
12522WAT      O37807   8.906   0.132   2.664
12522WAT     H137808   8.815   0.104   2.632
12522WAT     H237809   8.904   0.229   2.687
12523WAT      O37810   9.268   8.805   2.078
12523WAT     H137811   9.280   8.749   1.997
12523WAT     H237812   9.180   8.785   2.121
12524WAT      O37813   3.530   5.994   2.501
12524WAT     H137814   3.491   5.968   2.589
12524WAT     H237815   3.580   5.917   2.462
12525WAT      O37816   2.591   8.177   0.990
12525WAT     H137817   2.598   8.170   0.890
12525WAT     H237818   2.504   8.219   1.015
12526WAT      O37819   1.773   6.423   7.551
12526WAT     H137820   1.813   6.502   7.598
12526WAT     H237821   1.760   6.349   7.617
12527WAT      O37822   2.378   4.725   3.393
12527WAT     H137823   2.293   4.711   3.443
12527WAT     H237824   2.370   4.683   3.302
12528WAT      O37825   3.251   7.699   5.320
12528WAT     H137826   3.328   7.741   5.369
12528WAT     H237827   3.223   7.759   5.245
12529WAT      O37828   3.804   5.274   0.547
12529WAT     H137829   3.801   5.221   0.463
12529WAT     H237830   3.887   5.252   0.598
12530WAT      O37831   1.304   3.849   5.618
12530WAT     H137832   1.275   3.875   5.526
12530WAT     H237833   1.227   3.856   5.681
12531WAT      O37834   5.442   1.562   5.846
12531WAT     H137835   5.539   1.546   5.864
12531WAT     H237836   5.417   1.655   5.871
12532WAT      O37837   5.626   7.735   3.300
12532WAT     H137838   5.571   7.657   3.330
12532WAT     H237839   5.579   7.820   3.325
12533WAT      O37840   7.494   2.252   2.305
12533WAT     H137841   7.495   2.185   2.380
12533WAT     H237842   7.555   2.328   2.328
12534WAT      O37843   1.629   3.350   6.342
12534WAT     H137844   1.559   3.298   6.295
12534WAT     H237845   1.711   3.294   6.353
12535WAT      O37846   1.139   8.096   0.008
12535WAT     H137847   1.063   8.114   0.069
12535WAT     H237848   1.225   8.114   0.056
12536WAT      O37849   5.849   2.298   8.886
12536WAT     H137850   5.804   2.381   8.919
12536WAT     H237851   5.852   2.300   8.786
12537WAT      O37852   2.898   7.205   2.682
12537WAT     H137853   2.800   7.184   2.681
12537WAT     H237854   2.911   7.303   2.698
12538WAT      O37855   5.833   2.904   3.477
12538WAT     H137856   5.893   2.849   3.418
12538WAT     H237857   5.869   2.997   3.484
12539WAT      O37858   8.757   5.111   7.580
12539WAT     H137859   8.804   5.055   7.649
12539WAT     H237860   8.824   5.170   7.535
12540WAT      O37861   2.394   4.551   8.884
12540WAT     H137862   2.384   4.519   8.978
12540WAT     H237863   2.433   4.642   8.883
12541WAT      O37864   6.325   3.267   1.418
12541WAT     H137865   6.252   3.332   1.394
12541WAT     H237866   6.414   3.310   1.403
12542WAT      O37867   5.168   2.051   5.215
12542WAT     H137868   5.096   2.076   5.151
12542WAT     H237869   5.130   1.994   5.287
12543WAT      O37870   9.710   7.634   0.621
12543WAT     H137871   9.735   7.723   0.583
12543WAT     H237872   9.693   7.643   0.719
12544WAT      O37873   2.805   8.397   8.995
12544WAT     H137874   2.841   8.311   9.031
12544WAT     H237875   2.780   8.456   9.071
12545WAT      O37876   6.347   1.834   2.617
12545WAT     H137877   6.391   1.807   2.702
12545WAT     H237878   6.320   1.930   2.622
12546WAT      O37879   8.833   4.464   5.267
12546WAT     H137880   8.871   4.383   5.222
12546WAT     H237881   8.893   4.491   5.343
12547WAT      O37882   9.193   5.174   9.677
12547WAT     H137883   9.180   5.185   9.775
12547WAT     H237884   9.264   5.105   9.660
12548WAT      O37885   9.447   3.627   6.829
12548WAT     H137886   9.493   3.538   6.833
12548WAT     H237887   9.411   3.650   6.919
12549WAT      O37888   5.784   0.456   7.813
12549WAT     H137889   5.769   0.539   7.866
12549WAT     H237890   5.715   0.388   7.837
12550WAT      O37891   4.857   2.625   9.044
12550WAT     H137892   4.813   2.655   9.129
12550WAT     H237893   4.790   2.629   8.970
12551WAT      O37894   6.525   8.730   3.527
12551WAT     H137895   6.482   8.781   3.602
12551WAT     H237896   6.480   8.642   3.517
12552WAT      O37897   9.694   5.894   7.775
12552WAT     H137898   9.737   5.916   7.688
12552WAT     H237899   9.642   5.973   7.808
12553WAT      O37900   5.087   5.448   8.602
12553WAT     H137901   5.114   5.381   8.672
12553WAT     H237902   5.169   5.481   8.556
12554WAT      O37903   7.506   3.636   9.579
12554WAT     H137904   7.426   3.592   9.539
12554WAT     H237905   7.500   3.630   9.679
12555WAT      O37906   4.005   4.404   3.559
12555WAT     H137907   3.938   4.399   3.484
12555WAT     H237908   4.019   4.500   3.584
12556WAT      O37909   4.581   9.316   9.354
12556WAT     H137910   4.487   9.295   9.380
12556WAT     H237911   4.599   9.414   9.365
12557WAT      O37912   1.877   5.498   3.465
12557WAT     H137913   1.947   5.460   3.405
12557WAT     H237914   1.875   5.446   3.551
12558WAT      O37915   4.746   1.940   7.150
12558WAT     H137916   4.661   1.890   7.164
12558WAT     H237917   4.811   1.917   7.223
12559WAT      O37918   2.484   6.343   8.457
12559WAT     H137919   2.579   6.315   8.461
12559WAT     H237920   2.472   6.412   8.386
12560WAT      O37921   2.476   5.171   4.182
12560WAT     H137922   2.565   5.126   4.190
12560WAT     H237923   2.437   5.151   4.092
12561WAT      O37924   9.491   8.115   1.381
12561WAT     H137925   9.403   8.148   1.415
12561WAT     H237926   9.516   8.165   1.298
12562WAT      O37927   6.401   5.313   4.483
12562WAT     H137928   6.303   5.295   4.486
12562WAT     H237929   6.420   5.402   4.523
12563WAT      O37930   3.407   2.497   8.378
12563WAT     H137931   3.479   2.546   8.329
12563WAT     H237932   3.427   2.399   8.379
12564WAT      O37933   1.783   8.308   3.672
12564WAT     H137934   1.824   8.235   3.727
12564WAT     H237935   1.856   8.365   3.633
12565WAT      O37936   2.979   9.303   2.542
12565WAT     H137937   3.008   9.352   2.623
12565WAT     H237938   2.923   9.224   2.568
12566WAT      O37939   2.399   7.412   1.483
12566WAT     H137940   2.448   7.425   1.570
12566WAT     H237941   2.381   7.315   1.469
12567WAT      O37942   8.037   7.611   5.461
12567WAT     H137943   8.112   7.545   5.452
12567WAT     H237944   8.058   7.692   5.406
12568WAT      O37945   4.890   7.750   1.079
12568WAT     H137946   4.871   7.659   1.116
12568WAT     H237947   4.877   7.818   1.151
12569WAT      O37948   4.876   2.675   2.296
12569WAT     H137949   4.866   2.576   2.295
12569WAT     H237950   4.791   2.718   2.327
12570WAT      O37951   6.809   6.140   6.714
12570WAT     H137952   6.824   6.074   6.639
12570WAT     H237953   6.752   6.215   6.681
12571WAT      O37954   8.721   2.573   4.315
12571WAT     H137955   8.793   2.638   4.340
12571WAT     H237956   8.673   2.606   4.233
12572WAT      O37957   0.979   8.445   4.103
12572WAT     H137958   0.905   8.417   4.041
12572WAT     H237959   1.021   8.529   4.069
12573WAT      O37960   1.800   6.910   6.437
12573WAT     H137961   1.730   6.845   6.466
12573WAT     H237962   1.803   6.987   6.501
12574WAT      O37963   1.810   0.457   6.037
12574WAT     H137964   1.843   0.481   6.128
12574WAT     H237965   1.858   0.376   6.003
12575WAT      O37966   2.224   5.843   0.404
12575WAT     H137967   2.323   5.851   0.419
12575WAT     H237968   2.177   5.914   0.456
12576WAT      O37969   7.919   4.509   8.900
12576WAT     H137970   8.016   4.493   8.919
12576WAT     H237971   7.866   4.491   8.983
12577WAT      O37972   7.129   2.073   3.721
12577WAT     H137973   7.113   2.075   3.820
12577WAT     H237974   7.078   2.146   3.677
12578WAT      O37975   8.147   0.308   5.248
12578WAT     H137976   8.090   0.310   5.166
12578WAT     H237977   8.091   0.279   5.326
12579WAT      O37978   5.474   8.154   2.279
12579WAT     H137979   5.509   8.062   2.299
12579WAT     H237980   5.534   8.199   2.213
12580WAT      O37981   5.412   8.783   6.748
12580WAT     H137982   5.331   8.780   6.689
12580WAT     H237983   5.405   8.862   6.809
12581WAT      O37984   7.951   1.428   5.978
12581WAT     H137985   7.883   1.444   6.050
12581WAT     H237986   8.031   1.383   6.017
12582WAT      O37987   6.689   9.366   2.579
12582WAT     H137988   6.708   9.374   2.677
12582WAT     H237989   6.590   9.369   2.565
12583WAT      O37990   0.040   1.496   5.057
12583WAT     H137991   0.108   1.554   5.102
12583WAT     H237992   0.087   1.422   5.008
12584WAT      O37993   9.191   9.253   0.012
12584WAT     H137994   9.258   9.327   0.007
12584WAT     H237995   9.172   9.219  -0.080
12585WAT      O37996   0.818   8.794   2.844
12585WAT     H137997   0.819   8.893   2.839
12585WAT     H237998   0.741   8.764   2.899
12586WAT      O37999   0.187   0.075   9.410
12586WAT     H138000   0.130   0.019   9.471
12586WAT     H238001   0.173   0.172   9.431
12587WAT      O38002   6.065   0.046   9.439
12587WAT     H138003   6.025  -0.026   9.382
12587WAT     H238004   6.009   0.058   9.522
12588WAT      O38005   8.144   3.269   6.544
12588WAT     H138006   8.215   3.320   6.495
12588WAT     H238007   8.055   3.310   6.525
12589WAT      O38008   6.039   2.751   9.558
12589WAT     H138009   6.005   2.819   9.494
12589WAT     H238010   6.042   2.661   9.514
12590WAT      O38011   0.324   8.559   7.449
12590WAT     H138012   0.362   8.504   7.524
12590WAT     H238013   0.256   8.505   7.399
12591WAT      O38014   1.620   2.119   1.323
12591WAT     H138015   1.541   2.110   1.262
12591WAT     H238016   1.670   2.033   1.327
12592WAT      O38017   0.385   9.235   6.572
12592WAT     H138018   0.424   9.299   6.506
12592WAT     H238019   0.437   9.150   6.572
12593WAT      O38020   0.923   7.906   5.218
12593WAT     H138021   0.998   7.845   5.192
12593WAT     H238022   0.951   7.962   5.296
12594WAT      O38023   2.838   5.772   7.658
12594WAT     H138024   2.869   5.695   7.602
12594WAT     H238025   2.865   5.858   7.615
12595WAT      O38026   2.264   4.624   6.847
12595WAT     H138027   2.193   4.611   6.917
12595WAT     H238028   2.348   4.577   6.876
12596WAT      O38029   8.344   2.734   9.348
12596WAT     H138030   8.389   2.823   9.355
12596WAT     H238031   8.279   2.735   9.273
12597WAT      O38032   3.869   0.716   2.532
12597WAT     H138033   3.849   0.667   2.446
12597WAT     H238034   3.841   0.811   2.523
12598WAT      O38035   0.436   9.375   5.352
12598WAT     H138036   0.359   9.315   5.330
12598WAT     H238037   0.457   9.369   5.450
12599WAT      O38038   1.050   3.128   2.759
12599WAT     H138039   1.022   3.055   2.822
12599WAT     H238040   1.140   3.107   2.721
12600WAT      O38041   8.044   7.574   6.659
12600WAT     H138042   8.112   7.621   6.715
12600WAT     H238043   8.083   7.489   6.624
12601WAT      O38044   5.491   1.039   2.172
12601WAT     H138045   5.574   1.079   2.210
12601WAT     H238046   5.500   0.940   2.168
12602WAT      O38047   5.201   1.569   5.402
12602WAT     H138048   5.145   1.486   5.415
12602WAT     H238049   5.279   1.566   5.465
12603WAT      O38050   5.324   4.384   7.494
12603WAT     H138051   5.226   4.401   7.509
12603WAT     H238052   5.376   4.418   7.572
12604WAT      O38053   7.128   0.429   7.614
12604WAT     H138054   7.061   0.474   7.554
12604WAT     H238055   7.188   0.371   7.559
12605WAT      O38056   8.589   5.406   4.257
12605WAT     H138057   8.679   5.402   4.300
12605WAT     H238058   8.518   5.406   4.328
12606WAT      O38059   9.358   1.628   3.132
12606WAT     H138060   9.439   1.607   3.076
12606WAT     H238061   9.284   1.657   3.072
12607WAT      O38062   9.767   7.811   3.456
12607WAT     H138063   9.764   7.890   3.517
12607WAT     H238064   9.853   7.762   3.470
12608WAT      O38065   8.937   7.525   6.155
12608WAT     H138066   8.981   7.579   6.083
12608WAT     H238067   8.857   7.573   6.189
12609WAT      O38068   2.238   9.746   3.207
12609WAT     H138069   2.173   9.806   3.162
12609WAT     H238070   2.193   9.661   3.235
12610WAT      O38071   1.503   1.209   1.770
12610WAT     H138072   1.541   1.128   1.725
12610WAT     H238073   1.576   1.277   1.782
12611WAT      O38074   7.568   0.260   7.855
12611WAT     H138075   7.528   0.325   7.791
12611WAT     H238076   7.495   0.213   7.904
12612WAT      O38077   5.894   4.812   0.577
12612WAT     H138078   5.927   4.810   0.483
12612WAT     H238079   5.909   4.722   0.619
12613WAT      O38080   9.247   0.596   4.420
12613WAT     H138081   9.169   0.628   4.474
12613WAT     H238082   9.214   0.538   4.346
12614WAT      O38083   1.965   1.254   1.513
12614WAT     H138084   1.996   1.344   1.485
12614WAT     H238085   2.027   1.217   1.582
12615WAT      O38086   0.400   6.284   1.540
12615WAT     H138087   0.301   6.286   1.553
12615WAT     H238088   0.431   6.189   1.532
12616WAT      O38089   9.768   1.894   0.800
12616WAT     H138090   9.843   1.832   0.777
12616WAT     H238091   9.697   1.888   0.729
12617WAT      O38092   1.946   1.198   5.046
12617WAT     H138093   1.925   1.102   5.061
12617WAT     H238094   2.009   1.231   5.117
12618WAT      O38095   3.167   7.721   8.104
12618WAT     H138096   3.113   7.804   8.117
12618WAT     H238097   3.106   7.642   8.099
12619WAT      O38098   4.710   6.547   0.375
12619WAT     H138099   4.730   6.468   0.316
12619WAT     H238100   4.700   6.629   0.318
12620WAT      O38101   6.927   1.026   7.936
12620WAT     H138102   6.876   0.949   7.972
12620WAT     H238103   6.880   1.064   7.856
12621WAT      O38104   3.441   0.291   6.699
12621WAT     H138105   3.533   0.261   6.671
12621WAT     H238106   3.388   0.317   6.619
12622WAT      O38107   3.279   6.214   3.285
12622WAT     H138108   3.204   6.157   3.316
12622WAT     H238109   3.244   6.301   3.250
12623WAT      O38110   2.086   8.225   9.187
12623WAT     H138111   2.112   8.138   9.228
12623WAT     H238112   2.136   8.299   9.233
12624WAT      O38113   5.290   7.198   6.728
12624WAT     H138114   5.316   7.155   6.814
12624WAT     H238115   5.295   7.130   6.654
12625WAT      O38116   3.211   0.601   3.611
12625WAT     H138117   3.115   0.601   3.641
12625WAT     H238118   3.236   0.511   3.576
12626WAT      O38119   5.590   7.981   2.925
12626WAT     H138120   5.611   8.070   2.885
12626WAT     H238121   5.673   7.927   2.933
12627WAT      O38122   0.911   8.170   8.274
12627WAT     H138123   0.872   8.187   8.364
12627WAT     H238124   0.841   8.136   8.212
12628WAT      O38125   1.167   2.218   3.482
12628WAT     H138126   1.071   2.241   3.467
12628WAT     H238127   1.181   2.190   3.577
12629WAT      O38128   0.180   8.431   5.829
12629WAT     H138129   0.249   8.362   5.806
12629WAT     H238130   0.090   8.388   5.832
12630WAT      O38131   6.178   4.417   9.698
12630WAT     H138132   6.117   4.351   9.655
12630WAT     H238133   6.124   4.484   9.750
12631WAT      O38134   3.765   5.224   6.265
12631WAT     H138135   3.698   5.235   6.192
12631WAT     H238136   3.743   5.288   6.339
12632WAT      O38137   4.909   0.300   2.649
12632WAT     H138138   4.985   0.292   2.584
12632WAT     H238139   4.926   0.375   2.712
12633WAT      O38140   3.525   7.341   6.476
12633WAT     H138141   3.512   7.262   6.536
12633WAT     H238142   3.477   7.325   6.390
12634WAT      O38143   0.777   6.883   9.338
12634WAT     H138144   0.756   6.980   9.351
12634WAT     H238145   0.874   6.873   9.316
12635WAT      O38146   0.857   0.076   2.425
12635WAT     H138147   0.892  -0.006   2.379
12635WAT     H238148   0.757   0.077   2.418
12636WAT      O38149   7.196  -0.002   2.449
12636WAT     H138150   7.120  -0.036   2.505
12636WAT     H238151   7.187   0.096   2.437
12637WAT      O38152   2.448   2.099   1.427
12637WAT     H138153   2.448   2.194   1.459
12637WAT     H238154   2.486   2.094   1.335
12638WAT      O38155   0.742   1.458   0.528
12638WAT     H138156   0.816   1.444   0.462
12638WAT     H238157   0.780   1.463   0.621
12639WAT      O38158   2.794   5.757   1.292
12639WAT     H138159   2.814   5.759   1.390
12639WAT     H238160   2.814   5.847   1.252
12640WAT      O38161   2.944   6.390   0.902
12640WAT     H138162   2.892   6.452   0.844
12640WAT     H238163   3.008   6.442   0.958
12641WAT      O38164   9.821   2.375   7.437
12641WAT     H138165   9.844   2.463   7.480
12641WAT     H238166   9.902   2.340   7.390
12642WAT      O38167   3.109   2.448   4.306
12642WAT     H138168   3.129   2.486   4.396
12642WAT     H238169   3.048   2.369   4.316
12643WAT      O38170   0.338   7.489   2.560
12643WAT     H138171   0.421   7.538   2.535
12643WAT     H238172   0.309   7.516   2.652
12644WAT      O38173   1.939   5.478   7.369
12644WAT     H138174   1.993   5.413   7.316
12644WAT     H238175   1.871   5.521   7.310
12645WAT      O38176   4.171   6.908   6.756
12645WAT     H138177   4.266   6.899   6.727
12645WAT     H238178   4.128   6.818   6.758
12646WAT      O38179   6.256   7.796   8.063
12646WAT     H138180   6.261   7.896   8.058
12646WAT     H238181   6.225   7.760   7.976
12647WAT      O38182   1.436   4.930   8.785
12647WAT     H138183   1.339   4.915   8.805
12647WAT     H238184   1.472   5.004   8.841
12648WAT      O38185   1.242   5.893   0.650
12648WAT     H138186   1.172   5.930   0.710
12648WAT     H238187   1.200   5.857   0.567
12649WAT      O38188   2.176   7.246   4.439
12649WAT     H138189   2.214   7.154   4.450
12649WAT     H238190   2.236   7.312   4.486
12650WAT      O38191   0.625   8.865   0.480
12650WAT     H138192   0.679   8.948   0.465
12650WAT     H238193   0.531   8.881   0.452
12651WAT      O38194   4.361   6.925   3.186
12651WAT     H138195   4.335   7.020   3.200
12651WAT     H238196   4.353   6.875   3.273
12652WAT      O38197   5.238   7.982   2.002
12652WAT     H138198   5.203   7.926   1.927
12652WAT     H238199   5.187   8.068   2.005
12653WAT      O38200   7.803   9.001   1.480
12653WAT     H138201   7.879   8.979   1.541
12653WAT     H238202   7.772   9.094   1.498
12654WAT      O38203   4.682   8.618   7.092
12654WAT     H138204   4.647   8.671   7.015
12654WAT     H238205   4.632   8.642   7.175
12655WAT      O38206   5.850   0.811   1.753
12655WAT     H138207   5.840   0.749   1.675
12655WAT     H238208   5.941   0.801   1.792
12656WAT      O38209   4.765   0.014   5.439
12656WAT     H138210   4.825  -0.013   5.514
12656WAT     H238211   4.673   0.031   5.475
12657WAT      O38212   7.518   3.701   5.164
12657WAT     H138213   7.494   3.659   5.252
12657WAT     H238214   7.519   3.800   5.174
12658WAT      O38215   5.489   0.693   7.763
12658WAT     H138216   5.439   0.678   7.677
12658WAT     H238217   5.470   0.617   7.826
12659WAT      O38218   0.526   2.656   9.773
12659WAT     H138219   0.457   2.634   9.842
12659WAT     H238220   0.481   2.689   9.690
12660WAT      O38221   0.524   2.114   0.794
12660WAT     H138222   0.583   2.083   0.869
12660WAT     H238223   0.468   2.191   0.825
12661WAT      O38224   1.382   4.077   7.922
12661WAT     H138225   1.376   3.982   7.951
12661WAT     H238226   1.460   4.089   7.861
12662WAT      O38227   1.962   4.274   0.483
12662WAT     H138228   1.975   4.293   0.580
12662WAT     H238229   2.049   4.241   0.444
12663WAT      O38230   4.610   7.938   5.018
12663WAT     H138231   4.677   7.909   5.087
12663WAT     H238232   4.652   8.002   4.954
12664WAT      O38233   1.145   5.770   4.360
12664WAT     H138234   1.237   5.763   4.400
12664WAT     H238235   1.153   5.796   4.264
12665WAT      O38236   7.936   7.816   3.870
12665WAT     H138237   7.999   7.877   3.918
12665WAT     H238238   7.976   7.724   3.864
12666WAT      O38239   1.899   9.048   3.456
12666WAT     H138240   1.996   9.030   3.439
12666WAT     H238241   1.844   8.975   3.414
12667WAT      O38242   6.765   2.283   1.805
12667WAT     H138243   6.789   2.291   1.902
12667WAT     H238244   6.848   2.275   1.750
12668WAT      O38245   6.071   1.584   8.044
12668WAT     H138246   6.048   1.671   8.086
12668WAT     H238247   6.164   1.587   8.009
12669WAT      O38248   8.457   2.986   9.374
12669WAT     H138249   8.450   3.015   9.469
12669WAT     H238250   8.547   3.009   9.338
12670WAT      O38251   1.470   8.132   6.537
12670WAT     H138252   1.426   8.182   6.612
12670WAT     H238253   1.563   8.107   6.564
12671WAT      O38254   9.648   4.913   7.838
12671WAT     H138255   9.610   4.837   7.892
12671WAT     H238256   9.686   4.981   7.899
12672WAT      O38257   8.899   3.669   6.510
12672WAT     H138258   8.969   3.603   6.536
12672WAT     H238259   8.818   3.621   6.477
12673WAT      O38260   7.395   2.147   3.591
12673WAT     H138261   7.471   2.094   3.630
12673WAT     H238262   7.309   2.116   3.631
12674WAT      O38263   4.429   6.139   3.590
12674WAT     H138264   4.348   6.099   3.632
12674WAT     H238265   4.510   6.092   3.623
12675WAT      O38266   6.755   0.404   0.160
12675WAT     H138267   6.681   0.469   0.143
12675WAT     H238268   6.840   0.454   0.178
12676WAT      O38269   7.273   3.441   8.741
12676WAT     H138270   7.182   3.463   8.704
12676WAT     H238271   7.285   3.342   8.742
12677WAT      O38272   2.496   0.229   0.371
12677WAT     H138273   2.457   0.320   0.353
12677WAT     H238274   2.580   0.218   0.318
12678WAT      O38275   7.865   6.845   9.041
12678WAT     H138276   7.896   6.796   9.123
12678WAT     H238277   7.908   6.935   9.038
12679WAT      O38278   4.922   3.374   5.606
12679WAT     H138279   4.905   3.404   5.512
12679WAT     H238280   5.010   3.407   5.637
12680WAT      O38281   7.625   4.356   6.588
12680WAT     H138282   7.633   4.369   6.687
12680WAT     H238283   7.652   4.440   6.541
12681WAT      O38284   6.621   5.652   6.695
12681WAT     H138285   6.705   5.702   6.672
12681WAT     H238286   6.595   5.672   6.789
12682WAT      O38287   2.095   8.615   9.631
12682WAT     H138288   2.178   8.598   9.684
12682WAT     H238289   2.024   8.652   9.691
12683WAT      O38290   0.691   5.708   1.404
12683WAT     H138291   0.685   5.618   1.447
12683WAT     H238292   0.764   5.708   1.335
12684WAT      O38293   7.364   4.937   9.031
12684WAT     H138294   7.393   4.881   8.953
12684WAT     H238295   7.270   4.967   9.016
12685WAT      O38296   8.325   7.568   8.713
12685WAT     H138297   8.415   7.597   8.680
12685WAT     H238298   8.316   7.591   8.810
12686WAT      O38299   8.128   6.238   1.027
12686WAT     H138300   8.170   6.210   1.113
12686WAT     H238301   8.035   6.270   1.044
12687WAT      O38302   7.815   2.309   6.637
12687WAT     H138303   7.814   2.336   6.541
12687WAT     H238304   7.835   2.212   6.644
12688WAT      O38305   3.238   4.833   9.546
12688WAT     H138306   3.222   4.923   9.586
12688WAT     H238307   3.265   4.769   9.618
12689WAT      O38308   2.149   5.891   6.100
12689WAT     H138309   2.196   5.947   6.169
12689WAT     H238310   2.052   5.912   6.102
12690WAT      O38311   0.333   4.564   2.818
12690WAT     H138312   0.277   4.618   2.755
12690WAT     H238313   0.294   4.472   2.826
12691WAT      O38314   0.955   0.015   1.498
12691WAT     H138315   0.861  -0.004   1.471
12691WAT     H238316   0.977  -0.037   1.581
12692WAT      O38317   0.100   0.005   2.808
12692WAT     H138318   0.155   0.037   2.885
12692WAT     H238319   0.003   0.011   2.832
12693WAT      O38320   1.964   8.756   0.562
12693WAT     H138321   1.940   8.738   0.467
12693WAT     H238322   1.958   8.854   0.580
12694WAT      O38323   1.754   3.496   5.949
12694WAT     H138324   1.678   3.452   5.997
12694WAT     H238325   1.763   3.590   5.983
12695WAT      O38326   7.903   6.848   0.375
12695WAT     H138327   7.947   6.784   0.311
12695WAT     H238328   7.804   6.839   0.367
12696WAT      O38329   7.513   5.928   6.857
12696WAT     H138330   7.421   5.889   6.848
12696WAT     H238331   7.553   5.899   6.944
12697WAT      O38332   6.218   0.785   2.473
12697WAT     H138333   6.190   0.723   2.547
12697WAT     H238334   6.153   0.860   2.466
12698WAT      O38335   0.213   5.977   6.447
12698WAT     H138336   0.194   5.887   6.408
12698WAT     H238337   0.288   5.970   6.513
12699WAT      O38338   2.176   8.315   2.323
12699WAT     H138339   2.255   8.342   2.268
12699WAT     H238340   2.106   8.386   2.318
12700WAT      O38341   4.313   2.970   3.843
12700WAT     H138342   4.304   2.963   3.744
12700WAT     H238343   4.222   2.965   3.885
12701WAT      O38344   7.791   3.396   8.946
12701WAT     H138345   7.794   3.310   8.895
12701WAT     H238346   7.835   3.468   8.893
12702WAT      O38347   9.716   9.829   1.191
12702WAT     H138348   9.747   9.744   1.235
12702WAT     H238349   9.794   9.889   1.177
12703WAT      O38350   1.444   1.765   0.319
12703WAT     H138351   1.516   1.796   0.382
12703WAT     H238352   1.475   1.685   0.269
12704WAT      O38353   1.977   3.727   2.200
12704WAT     H138354   2.058   3.669   2.209
12704WAT     H238355   1.895   3.671   2.217
12705WAT      O38356   6.184   8.032   0.985
12705WAT     H138357   6.188   7.946   0.935
12705WAT     H238358   6.151   8.016   1.078
12706WAT      O38359   9.542   1.172   7.310
12706WAT     H138360   9.582   1.108   7.245
12706WAT     H238361   9.542   1.132   7.401
12707WAT      O38362   6.831   2.060   2.167
12707WAT     H138363   6.762   2.073   2.096
12707WAT     H238364   6.793   2.084   2.256
12708WAT      O38365   4.158   3.843   1.281
12708WAT     H138366   4.167   3.896   1.196
12708WAT     H238367   4.113   3.900   1.350
12709WAT      O38368   1.347   1.714   5.835
12709WAT     H138369   1.443   1.737   5.850
12709WAT     H238370   1.315   1.759   5.752
12710WAT      O38371   0.343   2.470   3.644
12710WAT     H138372   0.403   2.546   3.668
12710WAT     H238373   0.344   2.402   3.718
12711WAT      O38374   1.664   8.196   0.437
12711WAT     H138375   1.717   8.218   0.519
12711WAT     H238376   1.594   8.265   0.423
12712WAT      O38377   9.689   3.594   5.784
12712WAT     H138378   9.640   3.541   5.853
12712WAT     H238379   9.768   3.541   5.752
12713WAT      O38380   0.871   2.821   3.687
12713WAT     H138381   0.832   2.862   3.770
12713WAT     H238382   0.811   2.842   3.609
12714WAT      O38383   2.674   3.755   2.819
12714WAT     H138384   2.772   3.758   2.800
12714WAT     H238385   2.638   3.664   2.796
12715WAT      O38386   0.973   0.050   5.565
12715WAT     H138387   0.924   0.116   5.621
12715WAT     H238388   0.931  -0.040   5.575
12716WAT      O38389   7.860   3.246   5.051
12716WAT     H138390   7.877   3.329   4.998
12716WAT     H238391   7.775   3.255   5.102
12717WAT      O38392   8.648   3.569   5.221
12717WAT     H138393   8.660   3.668   5.213
12717WAT     H238394   8.734   3.528   5.251
12718WAT      O38395   3.314   0.796   9.645
12718WAT     H138396   3.370   0.861   9.696
12718WAT     H238397   3.219   0.827   9.644
12719WAT      O38398   5.675   6.062   0.887
12719WAT     H138399   5.766   6.050   0.849
12719WAT     H238400   5.621   5.979   0.873
12720WAT      O38401   8.694   2.742   5.209
12720WAT     H138402   8.749   2.674   5.258
12720WAT     H238403   8.754   2.796   5.149
12721WAT      O38404   3.813   1.465   4.432
12721WAT     H138405   3.806   1.407   4.512
12721WAT     H238406   3.908   1.493   4.419
12722WAT      O38407   8.721   9.822   3.130
12722WAT     H138408   8.628   9.790   3.113
12722WAT     H238409   8.731   9.846   3.227
12723WAT      O38410   4.681   7.640   6.962
12723WAT     H138411   4.656   7.551   7.000
12723WAT     H238412   4.608   7.706   6.980
12724WAT      O38413   5.141   0.271   7.441
12724WAT     H138414   5.155   0.187   7.493
12724WAT     H238415   5.055   0.314   7.470
12725WAT      O38416   4.850   2.583   9.761
12725WAT     H138417   4.868   2.484   9.757
12725WAT     H238418   4.754   2.600   9.739
12726WAT      O38419   8.128   1.876   8.820
12726WAT     H138420   8.046   1.835   8.861
12726WAT     H238421   8.199   1.885   8.889
12727WAT      O38422   8.290   2.175   2.606
12727WAT     H138423   8.324   2.152   2.697
12727WAT     H238424   8.224   2.250   2.614
12728WAT      O38425   8.259   6.409   1.573
12728WAT     H138426   8.220   6.407   1.665
12728WAT     H238427   8.354   6.442   1.578
12729WAT      O38428   8.360   1.923   1.689
12729WAT     H138429   8.354   1.930   1.590
12729WAT     H238430   8.351   1.828   1.717
12730WAT      O38431   1.766   3.997   7.519
12730WAT     H138432   1.851   4.048   7.526
12730WAT     H238433   1.784   3.907   7.478
12731WAT      O38434   9.356   7.706   8.736
12731WAT     H138435   9.374   7.790   8.786
12731WAT     H238436   9.440   7.675   8.691
12732WAT      O38437   6.250   5.358   0.589
12732WAT     H138438   6.249   5.258   0.582
12732WAT     H238439   6.167   5.395   0.547
12733WAT      O38440   7.015   5.912   0.120
12733WAT     H138441   6.972   6.001   0.139
12733WAT     H238442   6.962   5.840   0.164
12734WAT      O38443   0.098   4.238   3.949
12734WAT     H138444   0.072   4.288   4.032
12734WAT     H238445   0.040   4.266   3.873
12735WAT      O38446   7.362   6.305   7.545
12735WAT     H138447   7.322   6.396   7.531
12735WAT     H238448   7.350   6.251   7.462
12736WAT      O38449   2.440   3.043   6.215
12736WAT     H138450   2.495   3.098   6.277
12736WAT     H238451   2.487   2.957   6.195
12737WAT      O38452   3.141   0.471   7.031
12737WAT     H138453   3.047   0.441   7.046
12737WAT     H238454   3.174   0.519   7.113
12738WAT      O38455   4.273   3.602   9.112
12738WAT     H138456   4.309   3.646   9.194
12738WAT     H238457   4.295   3.658   9.032
12739WAT      O38458   1.051   2.229   1.942
12739WAT     H138459   0.970   2.228   1.883
12739WAT     H238460   1.126   2.275   1.895
12740WAT      O38461   8.720   6.433   6.660
12740WAT     H138462   8.749   6.405   6.752
12740WAT     H238463   8.651   6.368   6.627
12741WAT      O38464   1.890   5.597   0.653
12741WAT     H138465   1.842   5.683   0.636
12741WAT     H238466   1.983   5.603   0.617
12742WAT      O38467   9.142   5.359   5.081
12742WAT     H138468   9.131   5.272   5.130
12742WAT     H238469   9.148   5.434   5.147
12743WAT      O38470   4.507   3.650   7.776
12743WAT     H138471   4.596   3.632   7.817
12743WAT     H238472   4.454   3.711   7.835
12744WAT      O38473   6.987   5.653   7.223
12744WAT     H138474   7.080   5.632   7.251
12744WAT     H238475   6.932   5.676   7.304
12745WAT      O38476   1.883   3.960   3.670
12745WAT     H138477   1.926   3.872   3.688
12745WAT     H238478   1.873   4.011   3.756
12746WAT      O38479   3.494   6.822   0.186
12746WAT     H138480   3.492   6.920   0.206
12746WAT     H238481   3.577   6.800   0.135
12747WAT      O38482   0.147   7.477   5.844
12747WAT     H138483   0.205   7.496   5.764
12747WAT     H238484   0.051   7.491   5.819
12748WAT      O38485   3.339   2.455   0.520
12748WAT     H138486   3.350   2.504   0.433
12748WAT     H238487   3.366   2.359   0.508
12749WAT      O38488   4.102   4.177   2.928
12749WAT     H138489   4.134   4.146   2.838
12749WAT     H238490   4.029   4.244   2.916
12750WAT      O38491   2.608   0.092   6.608
12750WAT     H138492   2.695   0.051   6.579
12750WAT     H238493   2.620   0.190   6.623
12751WAT      O38494   0.042   2.556   0.841
12751WAT     H138495   0.067   2.461   0.860
12751WAT     H238496  -0.022   2.588   0.911
12752WAT      O38497   5.510   2.428   2.531
12752WAT     H138498   5.550   2.491   2.597
12752WAT     H238499   5.570   2.420   2.451
12753WAT      O38500   7.902   2.463   0.308
12753WAT     H138501   7.928   2.398   0.237
12753WAT     H238502   7.846   2.417   0.377
12754WAT      O38503   9.608   3.464   3.120
12754WAT     H138504   9.627   3.550   3.167
12754WAT     H238505   9.684   3.442   3.058
12755WAT      O38506   4.246   8.463   4.177
12755WAT     H138507   4.335   8.420   4.189
12755WAT     H238508   4.207   8.486   4.267
12756WAT      O38509   7.720   4.062   1.440
12756WAT     H138510   7.762   4.126   1.505
12756WAT     H238511   7.656   4.112   1.382
12757WAT      O38512   4.379   8.067   4.898
12757WAT     H138513   4.454   8.003   4.881
12757WAT     H238514   4.413   8.161   4.889
12758WAT      O38515   3.018   1.197   8.156
12758WAT     H138516   3.047   1.172   8.063
12758WAT     H238517   2.936   1.146   8.180
12759WAT      O38518   9.633   6.594   0.009
12759WAT     H138519   9.708   6.534  -0.017
12759WAT     H238520   9.577   6.614  -0.071
12760WAT      O38521   2.487   8.838   1.574
12760WAT     H138522   2.488   8.739   1.563
12760WAT     H238523   2.437   8.879   1.498
12761WAT      O38524   4.770   6.078   1.065
12761WAT     H138525   4.815   6.167   1.081
12761WAT     H238526   4.671   6.089   1.069
12762WAT      O38527   6.172   6.279   1.453
12762WAT     H138528   6.104   6.224   1.502
12762WAT     H238529   6.181   6.244   1.360
12763WAT      O38530   6.208   2.537   3.054
12763WAT     H138531   6.275   2.605   3.083
12763WAT     H238532   6.227   2.509   2.960
12764WAT      O38533   6.243   0.971   9.548
12764WAT     H138534   6.332   0.967   9.595
12764WAT     H238535   6.191   0.889   9.569
12765WAT      O38536   4.763   5.060   5.677
12765WAT     H138537   4.814   5.113   5.745
12765WAT     H238538   4.721   5.122   5.611
12766WAT      O38539   0.662   6.115   8.053
12766WAT     H138540   0.707   6.150   7.971
12766WAT     H238541   0.621   6.026   8.034
12767WAT      O38542   3.273   2.275   0.174
12767WAT     H138543   3.328   2.308   0.096
12767WAT     H238544   3.177   2.275   0.148
12768WAT      O38545   4.586   8.933   3.410
12768WAT     H138546   4.607   8.946   3.312
12768WAT     H238547   4.504   8.986   3.433
12769WAT      O38548   3.593   1.269   5.161
12769WAT     H138549   3.556   1.201   5.098
12769WAT     H238550   3.529   1.281   5.238
12770WAT      O38551   2.990   7.160   7.562
12770WAT     H138552   2.996   7.103   7.481
12770WAT     H238553   2.951   7.107   7.638
12771WAT      O38554   9.055   6.674   5.782
12771WAT     H138555   8.964   6.667   5.821
12771WAT     H238556   9.068   6.765   5.743
12772WAT      O38557   6.419   9.511   7.032
12772WAT     H138558   6.320   9.503   7.040
12772WAT     H238559   6.449   9.594   7.079
12773WAT      O38560   3.674   8.080   1.388
12773WAT     H138561   3.754   8.123   1.428
12773WAT     H238562   3.698   8.042   1.298
12774WAT      O38563   0.191   0.485   2.659
12774WAT     H138564   0.182   0.399   2.608
12774WAT     H238565   0.176   0.562   2.597
12775WAT      O38566   5.487   5.246   3.391
12775WAT     H138567   5.522   5.161   3.431
12775WAT     H238568   5.530   5.324   3.437
12776WAT      O38569   6.771   7.356   1.682
12776WAT     H138570   6.688   7.406   1.657
12776WAT     H238571   6.773   7.268   1.634
12777WAT      O38572   1.411   9.033   4.563
12777WAT     H138573   1.367   9.011   4.650
12777WAT     H238574   1.476   9.108   4.576
12778WAT      O38575   1.470   4.558   1.667
12778WAT     H138576   1.521   4.611   1.600
12778WAT     H238577   1.446   4.616   1.745
12779WAT      O38578   6.320   0.725   4.696
12779WAT     H138579   6.338   0.645   4.639
12779WAT     H238580   6.371   0.803   4.661
12780WAT      O38581   0.071   5.398   7.106
12780WAT     H138582   0.036   5.443   7.189
12780WAT     H238583   0.039   5.447   7.026
12781WAT      O38584   6.936   1.892   0.605
12781WAT     H138585   7.015   1.831   0.606
12781WAT     H238586   6.856   1.844   0.641
12782WAT      O38587   4.326   7.807   6.242
12782WAT     H138588   4.237   7.822   6.285
12782WAT     H238589   4.343   7.709   6.235
12783WAT      O38590   0.591   5.059   5.370
12783WAT     H138591   0.492   5.057   5.382
12783WAT     H238592   0.636   5.030   5.455
12784WAT      O38593   5.104   1.510   1.327
12784WAT     H138594   5.187   1.495   1.380
12784WAT     H238595   5.058   1.592   1.361
12785WAT      O38596   7.146   6.792   4.722
12785WAT     H138597   7.087   6.752   4.792
12785WAT     H238598   7.242   6.776   4.746
12786WAT      O38599   6.564   7.056   6.308
12786WAT     H138600   6.576   7.144   6.354
12786WAT     H238601   6.483   7.010   6.345
12787WAT      O38602   1.476   7.765   4.940
12787WAT     H138603   1.378   7.748   4.931
12787WAT     H238604   1.518   7.691   4.992
12788WAT      O38605   8.995   8.921   0.584
12788WAT     H138606   9.037   8.991   0.527
12788WAT     H238607   9.046   8.836   0.576
12789WAT      O38608   4.948   9.094   2.938
12789WAT     H138609   5.021   9.162   2.931
12789WAT     H238610   4.945   9.058   3.031
12790WAT      O38611   3.559   5.521   9.670
12790WAT     H138612   3.465   5.503   9.642
12790WAT     H238613   3.618   5.530   9.589
12791WAT      O38614   1.766   8.761   1.985
12791WAT     H138615   1.705   8.830   1.948
12791WAT     H238616   1.850   8.804   2.018
12792WAT      O38617   3.363   1.994   8.926
12792WAT     H138618   3.319   2.083   8.910
12792WAT     H238619   3.431   2.003   8.999
12793WAT      O38620   9.236   1.204   1.846
12793WAT     H138621   9.156   1.149   1.870
12793WAT     H238622   9.209   1.276   1.782
12794WAT      O38623   6.166   8.835   3.785
12794WAT     H138624   6.128   8.772   3.853
12794WAT     H238625   6.191   8.783   3.703
12795WAT      O38626   6.505   4.774   6.157
12795WAT     H138627   6.578   4.727   6.206
12795WAT     H238628   6.427   4.711   6.146
12796WAT      O38629   5.610   4.601   6.823
12796WAT     H138630   5.654   4.678   6.776
12796WAT     H238631   5.525   4.578   6.776
12797WAT      O38632   6.503   3.944   7.820
12797WAT     H138633   6.504   3.844   7.829
12797WAT     H238634   6.496   3.986   7.910
12798WAT      O38635   2.248   9.060   5.807
12798WAT     H138636   2.159   9.039   5.850
12798WAT     H238637   2.317   8.996   5.841
12799WAT      O38638   2.506   3.767   6.221
12799WAT     H138639   2.416   3.780   6.180
12799WAT     H238640   2.529   3.845   6.279
12800WAT      O38641   8.010   8.071   2.514
12800WAT     H138642   7.992   8.090   2.611
12800WAT     H238643   8.077   7.997   2.507
12801WAT      O38644   7.858   4.700   0.655
12801WAT     H138645   7.907   4.703   0.742
12801WAT     H238646   7.881   4.616   0.606
12802WAT      O38647   9.508   6.991   4.157
12802WAT     H138648   9.435   6.961   4.095
12802WAT     H238649   9.596   6.963   4.120
12803WAT      O38650   8.999   3.099   6.823
12803WAT     H138651   8.941   3.032   6.868
12803WAT     H238652   9.064   3.137   6.889
12804WAT      O38653   3.931   7.431   3.863
12804WAT     H138654   3.865   7.393   3.928
12804WAT     H238655   4.014   7.375   3.863
12805WAT      O38656   5.657   0.330   4.780
12805WAT     H138657   5.675   0.316   4.877
12805WAT     H238658   5.700   0.256   4.727
12806WAT      O38659   8.343   9.060   1.021
12806WAT     H138660   8.306   8.967   1.018
12806WAT     H238661   8.442   9.056   1.039
12807WAT      O38662   3.797   8.493   5.908
12807WAT     H138663   3.867   8.472   5.976
12807WAT     H238664   3.706   8.477   5.948
12808WAT      O38665   3.620   3.662   6.143
12808WAT     H138666   3.654   3.755   6.157
12808WAT     H238667   3.522   3.658   6.164
12809WAT      O38668   4.069   0.683   1.129
12809WAT     H138669   4.053   0.762   1.069
12809WAT     H238670   3.982   0.650   1.165
12810WAT      O38671   4.774   6.078   5.984
12810WAT     H138672   4.776   6.138   5.903
12810WAT     H238673   4.757   6.133   6.065
12811WAT      O38674   2.409   0.501   3.651
12811WAT     H138675   2.432   0.553   3.732
12811WAT     H238676   2.452   0.410   3.656
12812WAT      O38677   7.754   7.901   6.505
12812WAT     H138678   7.783   7.938   6.593
12812WAT     H238679   7.655   7.915   6.494
12813WAT      O38680   8.908   4.706   5.594
12813WAT     H138681   8.809   4.711   5.609
12813WAT     H238682   8.941   4.615   5.617
12814WAT      O38683   1.741   3.080   6.940
12814WAT     H138684   1.823   3.095   6.995
12814WAT     H238685   1.725   2.981   6.931
12815WAT      O38686   5.780   7.060   7.923
12815WAT     H138687   5.752   7.055   8.019
12815WAT     H238688   5.733   7.137   7.879
12816WAT      O38689   1.104   0.498   1.496
12816WAT     H138690   1.128   0.401   1.500
12816WAT     H238691   1.135   0.537   1.410
12817WAT      O38692   2.519   5.872   3.987
12817WAT     H138693   2.532   5.970   3.969
12817WAT     H238694   2.434   5.859   4.037
12818WAT      O38695   1.525   0.366   9.053
12818WAT     H138696   1.486   0.289   9.103
12818WAT     H238697   1.493   0.365   8.959
12819WAT      O38698   8.765   8.275   7.302
12819WAT     H138699   8.714   8.203   7.348
12819WAT     H238700   8.833   8.313   7.364
12820WAT      O38701   5.703   3.002   6.518
12820WAT     H138702   5.773   3.024   6.585
12820WAT     H238703   5.665   2.911   6.537
12821WAT      O38704   6.127   2.798   7.180
12821WAT     H138705   6.198   2.859   7.215
12821WAT     H238706   6.037   2.842   7.190
12822WAT      O38707   3.569   0.970   9.270
12822WAT     H138708   3.585   1.059   9.313
12822WAT     H238709   3.530   0.907   9.336
12823WAT      O38710   8.881   4.518   0.310
12823WAT     H138711   8.874   4.614   0.339
12823WAT     H238712   8.845   4.459   0.382
12824WAT      O38713   9.657   1.216   1.774
12824WAT     H138714   9.611   1.174   1.852
12824WAT     H238715   9.737   1.268   1.805
12825WAT      O38716   2.895   5.045   9.584
12825WAT     H138717   2.843   4.968   9.621
12825WAT     H238718   2.833   5.109   9.541
12826WAT      O38719   5.599   6.538   6.958
12826WAT     H138720   5.659   6.465   6.991
12826WAT     H238721   5.642   6.585   6.882
12827WAT      O38722   6.547   7.515   4.830
12827WAT     H138723   6.622   7.573   4.800
12827WAT     H238724   6.542   7.515   4.930
12828WAT      O38725   8.002   0.818   3.197
12828WAT     H138726   7.958   0.753   3.259
12828WAT     H238727   8.096   0.834   3.227
12829WAT      O38728   6.545   5.384   2.530
12829WAT     H138729   6.477   5.378   2.603
12829WAT     H238730   6.507   5.435   2.453
12830WAT      O38731   8.881   7.197   9.496
12830WAT     H138732   8.917   7.104   9.491
12830WAT     H238733   8.956   7.262   9.496
12831WAT      O38734   8.069   9.344   3.269
12831WAT     H138735   8.015   9.334   3.186
12831WAT     H238736   8.025   9.409   3.330
12832WAT      O38737   9.765   3.457   7.560
12832WAT     H138738   9.708   3.538   7.574
12832WAT     H238739   9.774   3.440   7.462
12833WAT      O38740   7.148   3.833   7.095
12833WAT     H138741   7.083   3.817   7.169
12833WAT     H238742   7.123   3.778   7.015
12834WAT      O38743   6.857   1.896   6.788
12834WAT     H138744   6.768   1.936   6.766
12834WAT     H238745   6.872   1.901   6.887
12835WAT      O38746   8.227   7.389   3.194
12835WAT     H138747   8.293   7.342   3.253
12835WAT     H238748   8.144   7.408   3.246
12836WAT      O38749   3.511   9.770   8.461
12836WAT     H138750   3.465   9.708   8.397
12836WAT     H238751   3.448   9.842   8.489
12837WAT      O38752   5.412   7.983   7.390
12837WAT     H138753   5.429   7.897   7.440
12837WAT     H238754   5.314   8.004   7.394
12838WAT      O38755   5.222   6.040   9.174
12838WAT     H138756   5.292   6.001   9.233
12838WAT     H238757   5.145   6.071   9.230
12839WAT      O38758   8.495   6.505   7.861
12839WAT     H138759   8.414   6.463   7.901
12839WAT     H238760   8.471   6.550   7.775
12840WAT      O38761   2.183   9.629   7.095
12840WAT     H138762   2.118   9.621   7.170
12840WAT     H238763   2.260   9.687   7.123
12841WAT      O38764   8.246   0.439   7.628
12841WAT     H138765   8.220   0.535   7.638
12841WAT     H238766   8.172   0.389   7.583
12842WAT      O38767   0.287   6.064   5.437
12842WAT     H138768   0.382   6.049   5.464
12842WAT     H238769   0.274   6.160   5.414
12843WAT      O38770   1.456   8.098   3.330
12843WAT     H138771   1.362   8.129   3.312
12843WAT     H238772   1.464   8.071   3.426
12844WAT      O38773   1.036   4.246   5.256
12844WAT     H138774   1.024   4.264   5.159
12844WAT     H238775   0.983   4.312   5.309
12845WAT      O38776   0.938   7.319   0.527
12845WAT     H138777   0.976   7.261   0.599
12845WAT     H238778   1.010   7.379   0.491
12846WAT      O38779   7.356   0.849   5.689
12846WAT     H138780   7.312   0.861   5.601
12846WAT     H238781   7.386   0.754   5.700
12847WAT      O38782   1.631   7.218   6.798
12847WAT     H138783   1.542   7.188   6.834
12847WAT     H238784   1.683   7.262   6.871
12848WAT      O38785   7.539   0.564   2.155
12848WAT     H138786   7.503   0.503   2.084
12848WAT     H238787   7.612   0.517   2.204
12849WAT      O38788   6.081   4.218   7.669
12849WAT     H138789   6.091   4.120   7.688
12849WAT     H238790   6.002   4.233   7.610
12850WAT      O38791   5.840   5.383   2.152
12850WAT     H138792   5.841   5.389   2.252
12850WAT     H238793   5.756   5.336   2.123
12851WAT      O38794   4.571   8.530   7.627
12851WAT     H138795   4.503   8.463   7.596
12851WAT     H238796   4.659   8.485   7.641
12852WAT      O38797   9.513   2.871   8.544
12852WAT     H138798   9.451   2.868   8.623
12852WAT     H238799   9.607   2.861   8.574
12853WAT      O38800   8.584   4.871   9.445
12853WAT     H138801   8.538   4.798   9.394
12853WAT     H238802   8.598   4.840   9.539
12854WAT      O38803   0.154   8.865   6.508
12854WAT     H138804   0.215   8.830   6.579
12854WAT     H238805   0.203   8.869   6.421
12855WAT      O38806   2.577   3.629   8.392
12855WAT     H138807   2.558   3.577   8.475
12855WAT     H238808   2.635   3.576   8.331
12856WAT      O38809   4.408   6.476   4.511
12856WAT     H138810   4.507   6.473   4.523
12856WAT     H238811   4.372   6.560   4.552
12857WAT      O38812   7.731   1.209   6.175
12857WAT     H138813   7.732   1.308   6.182
12857WAT     H238814   7.804   1.170   6.231
12858WAT      O38815   0.467   4.921   3.096
12858WAT     H138816   0.565   4.937   3.104
12858WAT     H238817   0.451   4.823   3.083
12859WAT      O38818   7.813   8.439   1.451
12859WAT     H138819   7.754   8.503   1.402
12859WAT     H238820   7.877   8.490   1.509
12860WAT      O38821   7.049   1.724   2.643
12860WAT     H138822   7.069   1.809   2.693
12860WAT     H238823   6.953   1.723   2.616
12861WAT      O38824   9.002   5.625   6.796
12861WAT     H138825   8.914   5.672   6.803
12861WAT     H238826   9.011   5.585   6.705
12862WAT      O38827   8.786   6.345   0.087
12862WAT     H138828   8.862   6.369   0.026
12862WAT     H238829   8.701   6.341   0.034
12863WAT      O38830   1.716   2.102   4.358
12863WAT     H138831   1.807   2.061   4.365
12863WAT     H238832   1.718   2.194   4.397
12864WAT      O38833   0.885   1.094   0.761
12864WAT     H138834   0.827   1.019   0.795
12864WAT     H238835   0.972   1.093   0.810
12865WAT      O38836   1.832   7.848   7.081
12865WAT     H138837   1.929   7.840   7.060
12865WAT     H238838   1.793   7.756   7.092
12866WAT      O38839   4.630   4.665   3.131
12866WAT     H138840   4.667   4.748   3.172
12866WAT     H238841   4.544   4.686   3.086
12867WAT      O38842   7.961   7.495   0.759
12867WAT     H138843   7.954   7.479   0.661
12867WAT     H238844   7.989   7.411   0.805
12868WAT      O38845   8.526   9.551   8.887
12868WAT     H138846   8.606   9.518   8.838
12868WAT     H238847   8.532   9.651   8.897
12869WAT      O38848   2.385   2.303   3.210
12869WAT     H138849   2.368   2.208   3.185
12869WAT     H238850   2.436   2.348   3.137
12870WAT      O38851   6.581   1.539   8.340
12870WAT     H138852   6.489   1.574   8.325
12870WAT     H238853   6.623   1.587   8.418
12871WAT      O38854   2.571   5.282   0.340
12871WAT     H138855   2.565   5.300   0.242
12871WAT     H238856   2.482   5.249   0.373
12872WAT      O38857   7.121   3.061   7.402
12872WAT     H138858   7.087   2.994   7.335
12872WAT     H238859   7.218   3.043   7.420
12873WAT      O38860   4.645   6.736   2.576
12873WAT     H138861   4.593   6.750   2.660
12873WAT     H238862   4.585   6.697   2.506
12874WAT      O38863   6.538   8.354   5.527
12874WAT     H138864   6.440   8.337   5.534
12874WAT     H238865   6.586   8.303   5.599
12875WAT      O38866   4.431   3.710   7.136
12875WAT     H138867   4.487   3.720   7.218
12875WAT     H238868   4.454   3.783   7.071
12876WAT      O38869   5.577   6.884   1.825
12876WAT     H138870   5.568   6.972   1.779
12876WAT     H238871   5.653   6.888   1.890
12877WAT      O38872   3.765   3.132   3.210
12877WAT     H138873   3.701   3.056   3.202
12877WAT     H238874   3.854   3.104   3.174
12878WAT      O38875   2.805   5.561   8.319
12878WAT     H138876   2.819   5.509   8.404
12878WAT     H238877   2.826   5.657   8.335
12879WAT      O38878   3.920   9.215   7.583
12879WAT     H138879   3.936   9.119   7.607
12879WAT     H238880   3.833   9.223   7.534
12880WAT      O38881   3.537   5.655   0.511
12880WAT     H138882   3.463   5.653   0.443
12880WAT     H238883   3.544   5.566   0.555
12881WAT      O38884   4.680   3.369   4.967
12881WAT     H138885   4.630   3.453   4.983
12881WAT     H238886   4.748   3.383   4.894
12882WAT      O38887   3.411   8.463   3.629
12882WAT     H138888   3.347   8.531   3.664
12882WAT     H238889   3.453   8.415   3.706
12883WAT      O38890   0.781   0.159   3.483
12883WAT     H138891   0.876   0.131   3.493
12883WAT     H238892   0.770   0.253   3.517
12884WAT      O38893   7.547   3.460   8.760
12884WAT     H138894   7.592   3.435   8.846
12884WAT     H238895   7.448   3.465   8.775
12885WAT      O38896   7.985   1.510   3.043
12885WAT     H138897   7.977   1.425   3.096
12885WAT     H238898   8.081   1.534   3.031
12886WAT      O38899   6.380   1.292   3.025
12886WAT     H138900   6.431   1.213   3.058
12886WAT     H238901   6.442   1.353   2.976
12887WAT      O38902   0.581   7.513   9.481
12887WAT     H138903   0.570   7.561   9.568
12887WAT     H238904   0.634   7.571   9.419
12888WAT      O38905   8.984   7.257   5.100
12888WAT     H138906   8.948   7.332   5.155
12888WAT     H238907   8.987   7.283   5.004
12889WAT      O38908   7.393   9.212   9.697
12889WAT     H138909   7.363   9.300   9.661
12889WAT     H238910   7.342   9.139   9.652
12890WAT      O38911   5.914   8.022   2.776
12890WAT     H138912   5.935   7.930   2.808
12890WAT     H238913   5.958   8.037   2.687
12891WAT      O38914   3.205   9.367   6.815
12891WAT     H138915   3.165   9.276   6.818
12891WAT     H238916   3.295   9.362   6.771
12892WAT      O38917   2.059   4.112   2.036
12892WAT     H138918   2.021   4.045   1.973
12892WAT     H238919   1.996   4.189   2.045
12893WAT      O38920   2.151   4.408   2.803
12893WAT     H138921   2.238   4.386   2.759
12893WAT     H238922   2.103   4.324   2.827
12894WAT      O38923   4.519   6.883   5.114
12894WAT     H138924   4.495   6.786   5.111
12894WAT     H238925   4.573   6.900   5.196
12895WAT      O38926   4.138   3.007   0.947
12895WAT     H138927   4.218   3.040   0.897
12895WAT     H238928   4.169   2.958   1.029
12896WAT      O38929   5.505   6.499   3.366
12896WAT     H138930   5.600   6.509   3.397
12896WAT     H238931   5.460   6.588   3.369
12897WAT      O38932   3.778   8.974   9.683
12897WAT     H138933   3.694   9.024   9.663
12897WAT     H238934   3.786   8.896   9.621
12898WAT      O38935   2.287   8.567   3.071
12898WAT     H138936   2.371   8.527   3.034
12898WAT     H238937   2.281   8.547   3.169
12899WAT      O38938   8.161   5.346   0.012
12899WAT     H138939   8.131   5.424   0.066
12899WAT     H238940   8.162   5.370  -0.085
12900WAT      O38941   3.680   7.889   9.121
12900WAT     H138942   3.639   7.819   9.062
12900WAT     H238943   3.734   7.952   9.066
12901WAT      O38944   6.919   0.910   9.559
12901WAT     H138945   7.001   0.853   9.549
12901WAT     H238946   6.873   0.918   9.471
12902WAT      O38947   4.136   8.155   8.001
12902WAT     H138948   4.068   8.203   8.056
12902WAT     H238949   4.109   8.059   7.991
12903WAT      O38950   7.978   1.467   7.239
12903WAT     H138951   7.932   1.532   7.300
12903WAT     H238952   8.037   1.517   7.176
12904WAT      O38953   4.356   2.870   6.542
12904WAT     H138954   4.321   2.778   6.560
12904WAT     H238955   4.298   2.915   6.474
12905WAT      O38956   3.373   5.976   3.051
12905WAT     H138957   3.321   5.907   3.102
12905WAT     H238958   3.416   6.039   3.116
12906WAT      O38959   7.771   0.890   8.219
12906WAT     H138960   7.681   0.933   8.225
12906WAT     H238961   7.841   0.956   8.246
12907WAT      O38962   7.417   8.897   6.542
12907WAT     H138963   7.468   8.872   6.460
12907WAT     H238964   7.467   8.967   6.593
12908WAT      O38965   4.634   0.903   4.801
12908WAT     H138966   4.594   0.971   4.739
12908WAT     H238967   4.698   0.845   4.749
12909WAT      O38968   7.008   4.776   3.279
12909WAT     H138969   6.989   4.698   3.338
12909WAT     H238970   6.922   4.814   3.246
12910WAT      O38971   1.741   4.523   4.927
12910WAT     H138972   1.710   4.560   4.839
12910WAT     H238973   1.751   4.424   4.920
12911WAT      O38974   5.391   7.827   3.066
12911WAT     H138975   5.446   7.745   3.087
12911WAT     H238976   5.448   7.894   3.019
12912WAT      O38977   5.812   7.418   1.635
12912WAT     H138978   5.829   7.497   1.693
12912WAT     H238979   5.714   7.408   1.620
12913WAT      O38980   2.353   6.634   1.746
12913WAT     H138981   2.261   6.674   1.739
12913WAT     H238982   2.362   6.586   1.833
12914WAT      O38983   7.352   5.198   6.147
12914WAT     H138984   7.418   5.260   6.188
12914WAT     H238985   7.380   5.103   6.162
12915WAT      O38986   3.205   9.052   4.899
12915WAT     H138987   3.136   8.985   4.927
12915WAT     H238988   3.264   9.073   4.977
12916WAT      O38989   1.185   1.213   2.982
12916WAT     H138990   1.274   1.207   2.936
12916WAT     H238991   1.191   1.278   3.057
12917WAT      O38992   8.429   9.679   3.091
12917WAT     H138993   8.367   9.601   3.100
12917WAT     H238994   8.458   9.709   3.182
12918WAT      O38995   3.399   1.352   5.871
12918WAT     H138996   3.434   1.261   5.849
12918WAT     H238997   3.476   1.414   5.887
12919WAT      O38998   3.005   7.677   9.844
12919WAT     H138999   2.956   7.669   9.757
12919WAT     H239000   2.939   7.686   9.919
12920WAT      O39001   0.508   1.479   0.619
12920WAT     H139002   0.455   1.546   0.566
12920WAT     H239003   0.599   1.471   0.580
12921WAT      O39004   8.048   8.252   7.728
12921WAT     H139005   8.041   8.200   7.813
12921WAT     H239006   7.966   8.236   7.672
12922WAT      O39007   2.363   5.543   4.285
12922WAT     H139008   2.375   5.498   4.373
12922WAT     H239009   2.438   5.518   4.224
12923WAT      O39010   6.150   4.430   4.674
12923WAT     H139011   6.149   4.529   4.690
12923WAT     H239012   6.202   4.411   4.591
12924WAT      O39013   5.842   6.915   0.291
12924WAT     H139014   5.928   6.869   0.268
12924WAT     H239015   5.772   6.846   0.311
12925WAT      O39016   5.665   2.394   6.392
12925WAT     H139017   5.746   2.447   6.367
12925WAT     H239018   5.599   2.453   6.439
12926WAT      O39019   1.190   8.714   1.429
12926WAT     H139020   1.173   8.742   1.524
12926WAT     H239021   1.246   8.631   1.429
12927WAT      O39022   7.842   8.811   3.225
12927WAT     H139023   7.791   8.731   3.254
12927WAT     H239024   7.929   8.782   3.185
12928WAT      O39025   9.054   1.311   8.742
12928WAT     H139026   9.086   1.337   8.834
12928WAT     H239027   8.991   1.234   8.749
12929WAT      O39028   7.405   6.624   5.939
12929WAT     H139029   7.349   6.674   5.873
12929WAT     H239030   7.423   6.532   5.905
12930WAT      O39031   2.994   5.700   0.250
12930WAT     H139032   2.937   5.771   0.208
12930WAT     H239033   3.022   5.634   0.180
12931WAT      O39034   7.041   0.070   1.819
12931WAT     H139035   6.994  -0.016   1.840
12931WAT     H239036   7.086   0.062   1.731
12932WAT      O39037   2.338   6.157   8.037
12932WAT     H139038   2.429   6.127   8.065
12932WAT     H239039   2.271   6.086   8.061
12933WAT      O39040   0.776   5.464   5.867
12933WAT     H139041   0.858   5.438   5.917
12933WAT     H239042   0.696   5.418   5.908
12934WAT      O39043   7.900   4.670   1.509
12934WAT     H139044   7.942   4.580   1.519
12934WAT     H239045   7.845   4.691   1.590
12935WAT      O39046   2.650   3.514   7.182
12935WAT     H139047   2.675   3.610   7.168
12935WAT     H239048   2.554   3.500   7.156
12936WAT      O39049   9.824   5.014   6.355
12936WAT     H139050   9.898   4.988   6.417
12936WAT     H239051   9.862   5.039   6.266
12937WAT      O39052   2.903   4.964   1.512
12937WAT     H139053   2.839   4.948   1.588
12937WAT     H239054   2.965   5.039   1.536
12938WAT      O39055   3.763   7.091   6.783
12938WAT     H139056   3.771   7.113   6.686
12938WAT     H239057   3.668   7.106   6.813
12939WAT      O39058   3.032   2.780   6.544
12939WAT     H139059   3.093   2.851   6.578
12939WAT     H239060   2.961   2.823   6.487
12940WAT      O39061   2.630   0.692   5.914
12940WAT     H139062   2.717   0.741   5.906
12940WAT     H239063   2.556   0.750   5.879
12941WAT      O39064   0.314   2.465   4.261
12941WAT     H139065   0.218   2.487   4.242
12941WAT     H239066   0.373   2.533   4.219
12942WAT      O39067   4.214   0.679   2.216
12942WAT     H139068   4.289   0.615   2.201
12942WAT     H239069   4.191   0.682   2.313
12943WAT      O39070   9.282   6.150   1.721
12943WAT     H139071   9.244   6.089   1.791
12943WAT     H239072   9.325   6.095   1.650
12944WAT      O39073   3.977   6.251   3.010
12944WAT     H139074   3.921   6.275   3.089
12944WAT     H239075   4.073   6.271   3.031
12945WAT      O39076   0.400   9.638   5.294
12945WAT     H139077   0.361   9.649   5.203
12945WAT     H239078   0.407   9.541   5.316
12946WAT      O39079   3.860   9.610   8.117
12946WAT     H139080   3.899   9.676   8.181
12946WAT     H239081   3.765   9.633   8.099
12947WAT      O39082   7.516   2.463   6.529
12947WAT     H139083   7.467   2.434   6.611
12947WAT     H239084   7.594   2.519   6.555
12948WAT      O39085   8.969   9.433   3.904
12948WAT     H139086   9.008   9.355   3.855
12948WAT     H239087   8.985   9.423   4.002
12949WAT      O39088   1.811   3.029   4.944
12949WAT     H139089   1.815   2.934   4.975
12949WAT     H239090   1.835   3.089   5.021
12950WAT      O39091   9.239   8.358   2.255
12950WAT     H139092   9.207   8.288   2.191
12950WAT     H239093   9.328   8.392   2.226
12951WAT      O39094   8.908   1.913   3.207
12951WAT     H139095   8.899   1.822   3.167
12951WAT     H239096   8.895   1.908   3.306
12952WAT      O39097   4.870   9.751   7.528
12952WAT     H139098   4.936   9.698   7.475
12952WAT     H239099   4.814   9.806   7.466
12953WAT      O39100   7.897   0.736   2.267
12953WAT     H139101   7.870   0.641   2.251
12953WAT     H239102   7.996   0.742   2.277
12954WAT      O39103   9.226   3.491   8.773
12954WAT     H139104   9.317   3.485   8.815
12954WAT     H239105   9.218   3.423   8.700
12955WAT      O39106   6.459   6.745   1.057
12955WAT     H139107   6.488   6.764   1.151
12955WAT     H239108   6.359   6.737   1.054
12956WAT      O39109   5.491   4.013   5.295
12956WAT     H139110   5.437   4.089   5.257
12956WAT     H239111   5.444   3.976   5.375
12957WAT      O39112   2.784   4.073   8.343
12957WAT     H139113   2.772   4.159   8.292
12957WAT     H239114   2.739   3.999   8.293
12958WAT      O39115   5.070   8.062   7.649
12958WAT     H139116   5.069   8.032   7.554
12958WAT     H239117   5.096   7.985   7.707
12959WAT      O39118   0.194   8.881   9.216
12959WAT     H139119   0.250   8.908   9.295
12959WAT     H239120   0.250   8.829   9.152
12960WAT      O39121   3.211   6.039   3.831
12960WAT     H139122   3.253   6.063   3.744
12960WAT     H239123   3.144   6.109   3.856
12961WAT      O39124   8.224   7.675   2.461
12961WAT     H139125   8.192   7.618   2.536
12961WAT     H239126   8.315   7.711   2.483
12962WAT      O39127   3.266   6.557   4.018
12962WAT     H139128   3.299   6.496   4.090
12962WAT     H239129   3.185   6.606   4.051
12963WAT      O39130   9.203   1.219   6.332
12963WAT     H139131   9.299   1.217   6.304
12963WAT     H239132   9.164   1.127   6.321
12964WAT      O39133   8.898   8.992   6.652
12964WAT     H139134   8.820   8.932   6.672
12964WAT     H239135   8.969   8.939   6.606
12965WAT      O39136   2.685   6.736   6.786
12965WAT     H139137   2.642   6.756   6.697
12965WAT     H239138   2.642   6.792   6.856
12966WAT      O39139   9.697   4.186   8.468
12966WAT     H139140   9.635   4.224   8.399
12966WAT     H239141   9.663   4.210   8.559
12967WAT      O39142   7.038   0.710   5.750
12967WAT     H139143   7.104   0.639   5.726
12967WAT     H239144   6.945   0.675   5.741
12968WAT      O39145   9.754   6.057   4.921
12968WAT     H139146   9.854   6.069   4.916
12968WAT     H239147   9.732   5.960   4.917
12969WAT      O39148   4.933   0.819   9.811
12969WAT     H139149   4.845   0.799   9.768
12969WAT     H239150   4.955   0.916   9.798
12970WAT      O39151   6.547   1.969   3.196
12970WAT     H139152   6.642   1.940   3.186
12970WAT     H239153   6.522   1.967   3.293
12971WAT      O39154   0.802   8.061   4.742
12971WAT     H139155   0.812   8.072   4.840
12971WAT     H239156   0.835   7.970   4.716
12972WAT      O39157   6.051   1.577   1.771
12972WAT     H139158   5.985   1.525   1.716
12972WAT     H239159   6.092   1.516   1.839
12973WAT      O39160   5.283   9.101   8.589
12973WAT     H139161   5.359   9.164   8.573
12973WAT     H239162   5.275   9.084   8.687
12974WAT      O39163   1.739   2.884  -0.003
12974WAT     H139164   1.807   2.831   0.046
12974WAT     H239165   1.648   2.848   0.018
12975WAT      O39166   4.180   3.697   7.239
12975WAT     H139167   4.163   3.795   7.244
12975WAT     H239168   4.267   3.680   7.193
12976WAT      O39169   6.962   8.933   1.748
12976WAT     H139170   7.059   8.948   1.765
12976WAT     H239171   6.942   8.950   1.651
12977WAT      O39172   6.550   1.197   6.902
12977WAT     H139173   6.477   1.130   6.889
12977WAT     H239174   6.639   1.153   6.886
12978WAT      O39175   2.608   7.519   4.017
12978WAT     H139176   2.695   7.473   4.001
12978WAT     H239177   2.604   7.551   4.112
12979WAT      O39178   5.185   1.317   8.959
12979WAT     H139179   5.278   1.342   8.931
12979WAT     H239180   5.179   1.217   8.969
12980WAT      O39181   4.896   3.346   4.464
12980WAT     H139182   4.916   3.382   4.373
12980WAT     H239183   4.820   3.281   4.458
12981WAT      O39184   0.075   0.028   3.656
12981WAT     H139185   0.071  -0.029   3.574
12981WAT     H239186   0.154   0.002   3.711
12982WAT      O39187   6.770   0.145   2.273
12982WAT     H139188   6.734   0.126   2.182
12982WAT     H239189   6.707   0.205   2.322
12983WAT      O39190   2.025   2.221   5.797
12983WAT     H139191   1.928   2.239   5.805
12983WAT     H239192   2.059   2.257   5.710
12984WAT      O39193   7.473   1.803   1.937
12984WAT     H139194   7.450   1.738   1.865
12984WAT     H239195   7.420   1.887   1.926
12985WAT      O39196   6.202   3.729   1.881
12985WAT     H139197   6.159   3.653   1.833
12985WAT     H239198   6.157   3.744   1.969
12986WAT      O39199   7.380   8.448   6.603
12986WAT     H139200   7.333   8.524   6.649
12986WAT     H239201   7.478   8.453   6.622
12987WAT      O39202   3.948   2.982   5.192
12987WAT     H139203   4.020   3.045   5.223
12987WAT     H239204   3.981   2.888   5.198
12988WAT      O39205   0.779   8.448   0.253
12988WAT     H139206   0.754   8.430   0.349
12988WAT     H239207   0.779   8.546   0.237
12989WAT      O39208   3.091   8.041   7.408
12989WAT     H139209   3.096   8.011   7.313
12989WAT     H239210   3.015   7.995   7.454
12990WAT      O39211   5.314   8.612   3.755
12990WAT     H139212   5.323   8.621   3.656
12990WAT     H239213   5.375   8.676   3.800
12991WAT      O39214   7.698   8.441   0.165
12991WAT     H139215   7.783   8.468   0.120
12991WAT     H239216   7.654   8.368   0.112
12992WAT      O39217   6.473   2.894   1.160
12992WAT     H139218   6.485   2.868   1.064
12992WAT     H239219   6.535   2.840   1.217
12993WAT      O39220   9.610   8.445   9.057
12993WAT     H139221   9.547   8.467   9.132
12993WAT     H239222   9.670   8.371   9.085
12994WAT      O39223   8.044   5.620   8.295
12994WAT     H139224   8.105   5.621   8.374
12994WAT     H239225   8.041   5.710   8.252
12995WAT      O39226   2.369   4.924   5.457
12995WAT     H139227   2.326   5.011   5.484
12995WAT     H239228   2.309   4.876   5.393
12996WAT      O39229   4.222   0.304   4.151
12996WAT     H139230   4.138   0.299   4.097
12996WAT     H239231   4.219   0.384   4.210
12997WAT      O39232   4.966   5.035   7.122
12997WAT     H139233   4.898   5.038   7.195
12997WAT     H239234   4.963   4.946   7.077
12998WAT      O39235   2.151   6.644   2.439
12998WAT     H139236   2.122   6.651   2.343
12998WAT     H239237   2.249   6.663   2.446
12999WAT      O39238   9.390   0.479   3.378
12999WAT     H139239   9.393   0.495   3.280
12999WAT     H239240   9.483   0.472   3.414
13000WAT      O39241   8.082   9.792   1.696
13000WAT     H139242   8.162   9.851   1.692
13000WAT     H239243   8.106   9.700   1.664
13001WAT      O39244   7.016   8.216   3.766
13001WAT     H139245   6.968   8.278   3.703
13001WAT     H239246   7.102   8.259   3.795
13002WAT      O39247   1.444   0.268   5.970
13002WAT     H139248   1.354   0.303   5.994
13002WAT     H239249   1.492   0.238   6.052
13003WAT      O39250   9.093   5.351   2.674
13003WAT     H139251   9.002   5.313   2.661
13003WAT     H239252   9.087   5.451   2.680
13004WAT      O39253   0.812   3.092   9.238
13004WAT     H139254   0.878   3.130   9.302
13004WAT     H239255   0.744   3.161   9.214
13005WAT      O39256   6.237   2.207   1.327
13005WAT     H139257   6.247   2.292   1.377
13005WAT     H239258   6.309   2.200   1.257
13006WAT      O39259   3.707   6.341   5.750
13006WAT     H139260   3.747   6.431   5.735
13006WAT     H239261   3.744   6.301   5.833
13007WAT      O39262   4.151   2.265   7.354
13007WAT     H139263   4.093   2.187   7.330
13007WAT     H239264   4.114   2.348   7.312
13008WAT      O39265   6.457   2.901   7.017
13008WAT     H139266   6.423   2.962   7.088
13008WAT     H239267   6.492   2.817   7.059
13009WAT      O39268   0.797   0.706   7.590
13009WAT     H139269   0.851   0.778   7.635
13009WAT     H239270   0.822   0.617   7.628
13010WAT      O39271   8.870   2.221   0.082
13010WAT     H139272   8.883   2.128   0.116
13010WAT     H239273   8.857   2.284   0.159
13011WAT      O39274   2.033   3.548   4.204
13011WAT     H139275   1.984   3.628   4.239
13011WAT     H239276   1.969   3.471   4.196
13012WAT      O39277   5.993   7.095   6.403
13012WAT     H139278   6.084   7.134   6.389
13012WAT     H239279   5.989   7.050   6.492
13013WAT      O39280   0.679   1.994   3.722
13013WAT     H139281   0.733   1.910   3.721
13013WAT     H239282   0.593   1.978   3.675
13014WAT      O39283   1.475   2.147   9.333
13014WAT     H139284   1.470   2.049   9.351
13014WAT     H239285   1.484   2.196   9.419
13015WAT      O39286   4.874   8.142   4.381
13015WAT     H139287   4.818   8.061   4.362
13015WAT     H239288   4.825   8.224   4.352
13016WAT      O39289   9.040   5.722   8.259
13016WAT     H139290   9.003   5.685   8.343
13016WAT     H239291   9.005   5.815   8.244
13017WAT      O39292   1.346   6.801   2.709
13017WAT     H139293   1.366   6.885   2.659
13017WAT     H239294   1.280   6.745   2.658
13018WAT      O39295   9.510   5.719   4.093
13018WAT     H139296   9.590   5.659   4.097
13018WAT     H239297   9.486   5.748   4.186
13019WAT      O39298   7.322   3.887   1.350
13019WAT     H139299   7.293   3.878   1.445
13019WAT     H239300   7.354   3.980   1.333
13020WAT      O39301   9.519   9.452   3.069
13020WAT     H139302   9.574   9.512   3.127
13020WAT     H239303   9.476   9.505   2.996
13021WAT      O39304   9.822   2.998   3.187
13021WAT     H139305   9.763   3.070   3.223
13021WAT     H239306   9.895   2.979   3.253
13022WAT      O39307   2.534   9.172   1.405
13022WAT     H139308   2.470   9.101   1.435
13022WAT     H239309   2.603   9.131   1.345
13023WAT      O39310   8.381   7.282   7.308
13023WAT     H139311   8.432   7.367   7.313
13023WAT     H239312   8.285   7.301   7.287
13024WAT      O39313   7.418   1.711   5.947
13024WAT     H139314   7.484   1.765   5.895
13024WAT     H239315   7.455   1.620   5.964
13025WAT      O39316   9.710   0.573   6.918
13025WAT     H139317   9.761   0.623   6.988
13025WAT     H239318   9.720   0.619   6.830
13026WAT      O39319   2.996   7.519   5.250
13026WAT     H139320   2.943   7.573   5.185
13026WAT     H239321   3.040   7.580   5.316
13027WAT      O39322   3.640   1.620   6.297
13027WAT     H139323   3.628   1.711   6.337
13027WAT     H239324   3.737   1.599   6.290
13028WAT      O39325   6.235   5.751   4.688
13028WAT     H139326   6.266   5.810   4.613
13028WAT     H239327   6.136   5.751   4.692
13029WAT      O39328   9.713   9.640   9.511
13029WAT     H139329   9.736   9.557   9.563
13029WAT     H239330   9.618   9.637   9.483
13030WAT      O39331   1.190   5.583   5.049
13030WAT     H139332   1.142   5.648   5.108
13030WAT     H239333   1.208   5.499   5.099
13031WAT      O39334   3.520   8.474   1.329
13031WAT     H139335   3.501   8.378   1.348
13031WAT     H239336   3.606   8.501   1.372
13032WAT      O39337   1.286   3.928   5.295
13032WAT     H139338   1.257   3.862   5.227
13032WAT     H239339   1.269   4.021   5.261
13033WAT      O39340   8.403   9.131   8.456
13033WAT     H139341   8.498   9.103   8.445
13033WAT     H239342   8.372   9.108   8.549
13034WAT      O39343   7.203   4.351   3.286
13034WAT     H139344   7.176   4.402   3.368
13034WAT     H239345   7.181   4.254   3.299
13035WAT      O39346   9.826   8.881   9.094
13035WAT     H139347   9.833   8.803   9.032
13035WAT     H239348   9.900   8.879   9.161
13036WAT      O39349   8.566   3.104   4.640
13036WAT     H139350   8.664   3.128   4.640
13036WAT     H239351   8.522   3.147   4.561
13037WAT      O39352   6.079   2.672   2.389
13037WAT     H139353   6.039   2.756   2.427
13037WAT     H239354   6.171   2.659   2.426
13038WAT      O39355   1.790   3.571   8.245
13038WAT     H139356   1.795   3.659   8.293
13038WAT     H239357   1.699   3.532   8.258
13039WAT      O39358   7.883   8.702   9.448
13039WAT     H139359   7.803   8.647   9.469
13039WAT     H239360   7.878   8.733   9.352
13040WAT      O39361   0.479   0.029   0.629
13040WAT     H139362   0.437  -0.061   0.613
13040WAT     H239363   0.524   0.060   0.545
13041WAT      O39364   2.975   4.444   5.490
13041WAT     H139365   2.933   4.419   5.577
13041WAT     H239366   3.073   4.423   5.493
13042WAT      O39367   8.204   3.746   0.510
13042WAT     H139368   8.182   3.649   0.517
13042WAT     H239369   8.122   3.797   0.483
13043WAT      O39370   2.932   5.686   6.652
13043WAT     H139371   2.960   5.627   6.577
13043WAT     H239372   2.873   5.759   6.618
13044WAT      O39373   8.546   3.229   6.630
13044WAT     H139374   8.542   3.183   6.541
13044WAT     H239375   8.479   3.188   6.692
13045WAT      O39376   3.591   5.289   6.062
13045WAT     H139377   3.525   5.216   6.080
13045WAT     H239378   3.620   5.283   5.966
13046WAT      O39379   6.731   9.587   7.347
13046WAT     H139380   6.756   9.492   7.330
13046WAT     H239381   6.727   9.603   7.446
13047WAT      O39382   0.130   8.061   8.682
13047WAT     H139383   0.132   7.962   8.680
13047WAT     H239384   0.190   8.095   8.755
13048WAT      O39385   8.650   5.879   9.259
13048WAT     H139386   8.742   5.911   9.236
13048WAT     H239387   8.628   5.798   9.204
13049WAT      O39388   3.681   3.918   6.173
13049WAT     H139389   3.776   3.949   6.174
13049WAT     H239390   3.640   3.936   6.263
13050WAT      O39391   6.446   4.469   4.272
13050WAT     H139392   6.517   4.409   4.235
13050WAT     H239393   6.421   4.537   4.203
13051WAT      O39394   4.198   8.888   3.012
13051WAT     H139395   4.142   8.911   3.091
13051WAT     H239396   4.227   8.793   3.017
13052WAT      O39397   6.391   2.786   8.870
13052WAT     H139398   6.487   2.805   8.850
13052WAT     H239399   6.380   2.688   8.889
13053WAT      O39400   0.836   7.885   3.276
13053WAT     H139401   0.920   7.883   3.330
13053WAT     H239402   0.858   7.870   3.180
13054WAT      O39403   9.501   0.689   2.873
13054WAT     H139404   9.567   0.747   2.824
13054WAT     H239405   9.430   0.747   2.912
13055WAT      O39406   7.826   4.513   1.783
13055WAT     H139407   7.804   4.610   1.773
13055WAT     H239408   7.744   4.463   1.812
13056WAT      O39409   2.632   5.340   6.805
13056WAT     H139410   2.600   5.429   6.838
13056WAT     H239411   2.554   5.279   6.795
13057WAT      O39412   8.300   7.342   8.885
13057WAT     H139413   8.388   7.316   8.925
13057WAT     H239414   8.315   7.403   8.807
13058WAT      O39415   0.337   8.361   7.881
13058WAT     H139416   0.271   8.433   7.903
13058WAT     H239417   0.423   8.379   7.927
13059WAT      O39418   3.089   7.638   6.816
13059WAT     H139419   3.168   7.692   6.786
13059WAT     H239420   3.112   7.590   6.901
13060WAT      O39421   1.256   4.057   4.931
13060WAT     H139422   1.280   4.117   5.008
13060WAT     H239423   1.189   4.102   4.873
13061WAT      O39424   1.125   2.725   0.998
13061WAT     H139425   1.141   2.783   1.078
13061WAT     H239426   1.077   2.642   1.025
13062WAT      O39427   5.529   5.674   3.289
13062WAT     H139428   5.512   5.608   3.216
13062WAT     H239429   5.503   5.765   3.259
13063WAT      O39430   3.649   4.808   6.141
13063WAT     H139431   3.659   4.712   6.115
13063WAT     H239432   3.556   4.839   6.120
13064WAT      O39433   2.240   7.676   6.622
13064WAT     H139434   2.235   7.659   6.720
13064WAT     H239435   2.169   7.623   6.575
13065WAT      O39436   4.970   7.023   9.692
13065WAT     H139437   5.004   6.948   9.634
13065WAT     H239438   4.870   7.020   9.694
13066WAT      O39439   1.879   1.857   1.081
13066WAT     H139440   1.965   1.846   1.131
13066WAT     H239441   1.877   1.792   1.005
13067WAT      O39442   8.352   3.646   5.029
13067WAT     H139443   8.371   3.744   5.040
13067WAT     H239444   8.424   3.604   4.973
13068WAT      O39445   1.860   1.423   7.785
13068WAT     H139446   1.778   1.410   7.730
13068WAT     H239447   1.927   1.477   7.733
13069WAT      O39448   1.072   6.293   8.438
13069WAT     H139449   1.160   6.249   8.456
13069WAT     H239450   1.031   6.254   8.355
13070WAT      O39451   4.622   6.396   2.109
13070WAT     H139452   4.610   6.495   2.108
13070WAT     H239453   4.703   6.372   2.163
13071WAT      O39454   2.152   8.223   7.364
13071WAT     H139455   2.169   8.290   7.291
13071WAT     H239456   2.071   8.169   7.341
13072WAT      O39457   9.350   8.380   8.721
13072WAT     H139458   9.331   8.477   8.703
13072WAT     H239459   9.331   8.327   8.638
13073WAT      O39460   1.268   0.104   7.914
13073WAT     H139461   1.257   0.110   7.815
13073WAT     H239462   1.241   0.013   7.945
13074WAT      O39463   8.446   1.590   5.194
13074WAT     H139464   8.371   1.545   5.145
13074WAT     H239465   8.415   1.676   5.233
13075WAT      O39466   8.574   3.464   4.040
13075WAT     H139467   8.528   3.409   3.970
13075WAT     H239468   8.657   3.418   4.069
13076WAT      O39469   4.898   1.463   1.670
13076WAT     H139470   4.877   1.424   1.580
13076WAT     H239471   4.942   1.552   1.658
13077WAT      O39472   4.562   5.350   2.461
13077WAT     H139473   4.661   5.355   2.447
13077WAT     H239474   4.533   5.254   2.456
13078WAT      O39475   0.247   1.526   4.393
13078WAT     H139476   0.210   1.572   4.313
13078WAT     H239477   0.239   1.586   4.473
13079WAT      O39478   8.055   3.094   7.315
13079WAT     H139479   8.110   3.139   7.385
13079WAT     H239480   8.047   3.154   7.235
13080WAT      O39481   2.469   7.821   8.882
13080WAT     H139482   2.373   7.791   8.885
13080WAT     H239483   2.527   7.751   8.924
13081WAT      O39484   7.048   0.407   5.713
13081WAT     H139485   7.146   0.390   5.729
13081WAT     H239486   7.035   0.443   5.621
13082WAT      O39487   3.176   8.487   7.030
13082WAT     H139488   3.180   8.434   7.114
13082WAT     H239489   3.151   8.427   6.954
13083WAT      O39490   1.873   4.541   8.033
13083WAT     H139491   1.932   4.471   7.993
13083WAT     H239492   1.890   4.628   7.988
13084WAT      O39493   4.543   5.623   9.623
13084WAT     H139494   4.476   5.574   9.567
13084WAT     H239495   4.497   5.663   9.702
13085WAT      O39496   8.600   4.794   6.954
13085WAT     H139497   8.600   4.716   7.017
13085WAT     H239498   8.693   4.813   6.925
13086WAT      O39499   0.386   6.422   2.531
13086WAT     H139500   0.403   6.475   2.614
13086WAT     H239501   0.472   6.378   2.502
13087WAT      O39502   9.827   5.954   1.063
13087WAT     H139503   9.738   5.971   1.021
13087WAT     H239504   9.898   5.961   0.994
13088WAT      O39505   7.664   9.034   9.129
13088WAT     H139506   7.693   9.044   9.224
13088WAT     H239507   7.646   9.124   9.089
13089WAT      O39508   8.413   7.152   8.463
13089WAT     H139509   8.329   7.173   8.513
13089WAT     H239510   8.456   7.237   8.433
13090WAT      O39511   3.119   1.863   2.507
13090WAT     H139512   3.213   1.898   2.519
13090WAT     H239513   3.103   1.789   2.571
13091WAT      O39514   1.929   8.326   2.707
13091WAT     H139515   1.880   8.358   2.626
13091WAT     H239516   2.010   8.383   2.721
13092WAT      O39517   4.917   3.485   7.047
13092WAT     H139518   4.965   3.402   7.019
13092WAT     H239519   4.826   3.487   7.006
13093WAT      O39520   8.129   6.659   5.133
13093WAT     H139521   8.099   6.564   5.140
13093WAT     H239522   8.138   6.699   5.224
13094WAT      O39523   2.577   1.256   8.110
13094WAT     H139524   2.496   1.312   8.125
13094WAT     H239525   2.553   1.179   8.051
13095WAT      O39526   1.891   1.838   8.133
13095WAT     H139527   1.885   1.738   8.138
13095WAT     H239528   1.806   1.878   8.167
13096WAT      O39529   7.399   7.860   0.064
13096WAT     H139530   7.454   7.839  -0.017
13096WAT     H239531   7.430   7.805   0.141
13097WAT      O39532   1.369   2.824   7.666
13097WAT     H139533   1.428   2.863   7.595
13097WAT     H239534   1.278   2.808   7.627
13098WAT      O39535   1.428   2.841   2.277
13098WAT     H139536   1.381   2.925   2.301
13098WAT     H239537   1.500   2.822   2.344
13099WAT      O39538   7.807   4.536   7.416
13099WAT     H139539   7.789   4.439   7.399
13099WAT     H239540   7.723   4.580   7.450
13100WAT      O39541   2.729   3.448   8.747
13100WAT     H139542   2.791   3.517   8.784
13100WAT     H239543   2.676   3.408   8.822
13101WAT      O39544   2.478   1.096   4.520
13101WAT     H139545   2.461   1.152   4.601
13101WAT     H239546   2.529   1.150   4.453
13102WAT      O39547   0.656   2.470   3.467
13102WAT     H139548   0.750   2.443   3.446
13102WAT     H239549   0.620   2.412   3.540
13103WAT      O39550   4.454   9.436   1.169
13103WAT     H139551   4.448   9.467   1.075
13103WAT     H239552   4.506   9.350   1.173
13104WAT      O39553   7.326   1.884   0.807
13104WAT     H139554   7.315   1.977   0.773
13104WAT     H239555   7.416   1.875   0.850
13105WAT      O39556   9.251   0.565   9.408
13105WAT     H139557   9.268   0.579   9.506
13105WAT     H239558   9.206   0.645   9.370
13106WAT      O39559   3.007   3.137   4.081
13106WAT     H139560   2.989   3.097   3.991
13106WAT     H239561   3.034   3.233   4.070
13107WAT      O39562   6.737   6.450   7.994
13107WAT     H139563   6.810   6.395   8.036
13107WAT     H239564   6.692   6.504   8.065
13108WAT      O39565   0.329   4.206   2.343
13108WAT     H139566   0.375   4.244   2.424
13108WAT     H239567   0.367   4.116   2.322
13109WAT      O39568   1.929   3.709   8.971
13109WAT     H139569   1.941   3.664   8.882
13109WAT     H239570   1.871   3.653   9.030
13110WAT      O39571   1.853   6.187   8.729
13110WAT     H139572   1.888   6.097   8.756
13110WAT     H239573   1.930   6.251   8.722
13111WAT      O39574   3.831   3.014   9.622
13111WAT     H139575   3.905   3.063   9.668
13111WAT     H239576   3.837   3.030   9.523
13112WAT      O39577   8.273   8.259   6.550
13112WAT     H139578   8.272   8.318   6.631
13112WAT     H239579   8.245   8.167   6.576
13113WAT      O39580   5.102   7.710   4.034
13113WAT     H139581   5.144   7.741   3.948
13113WAT     H239582   5.009   7.679   4.015
13114WAT      O39583   6.168   2.716   4.110
13114WAT     H139584   6.100   2.644   4.097
13114WAT     H239585   6.185   2.728   4.208
13115WAT      O39586   3.370   5.088   8.954
13115WAT     H139587   3.408   5.082   8.861
13115WAT     H239588   3.295   5.023   8.963
13116WAT      O39589   8.594   5.757   0.243
13116WAT     H139590   8.585   5.818   0.322
13116WAT     H239591   8.584   5.810   0.159
13117WAT      O39592   3.036   8.966   9.577
13117WAT     H139593   3.028   9.063   9.601
13117WAT     H239594   3.062   8.913   9.658
13118WAT      O39595   3.484   7.658   0.859
13118WAT     H139596   3.393   7.629   0.830
13118WAT     H239597   3.479   7.698   0.950
13119WAT      O39598   8.305   2.219   3.985
13119WAT     H139599   8.373   2.206   3.912
13119WAT     H239600   8.213   2.210   3.947
13120WAT      O39601   6.189   5.355   3.018
13120WAT     H139602   6.243   5.279   2.981
13120WAT     H239603   6.091   5.336   3.006
13121WAT      O39604   6.153   4.551   6.709
13121WAT     H139605   6.196   4.461   6.718
13121WAT     H239606   6.080   4.560   6.777
13122WAT      O39607   7.633   6.893   9.743
13122WAT     H139608   7.652   6.846   9.829
13122WAT     H239609   7.609   6.988   9.761
13123WAT      O39610   7.747   3.625   1.094
13123WAT     H139611   7.688   3.650   1.171
13123WAT     H239612   7.789   3.537   1.112
13124WAT      O39613   6.540   9.441   4.672
13124WAT     H139614   6.529   9.441   4.772
13124WAT     H239615   6.489   9.365   4.633
13125WAT      O39616   8.189   3.342   6.823
13125WAT     H139617   8.247   3.423   6.819
13125WAT     H239618   8.135   3.336   6.739
13126WAT      O39619   6.432   6.081   7.681
13126WAT     H139620   6.530   6.059   7.687
13126WAT     H239621   6.396   6.096   7.773
13127WAT      O39622   2.003   8.063   8.881
13127WAT     H139623   1.948   8.082   8.800
13127WAT     H239624   1.946   8.016   8.949
13128WAT      O39625   1.044   7.587   9.824
13128WAT     H139626   0.955   7.615   9.788
13128WAT     H239627   1.099   7.547   9.751
13129WAT      O39628   1.291   0.075   4.421
13129WAT     H139629   1.389   0.065   4.436
13129WAT     H239630   1.275   0.127   4.337
13130WAT      O39631   1.318   7.102   8.272
13130WAT     H139632   1.407   7.095   8.317
13130WAT     H239633   1.257   7.031   8.308
13131WAT      O39634   2.565   9.716   0.340
13131WAT     H139635   2.612   9.742   0.255
13131WAT     H239636   2.598   9.774   0.415
13132WAT      O39637   9.642   4.531   0.525
13132WAT     H139638   9.595   4.550   0.611
13132WAT     H239639   9.617   4.440   0.493
13133WAT      O39640   6.956   9.441   6.424
13133WAT     H139641   6.913   9.473   6.339
13133WAT     H239642   6.890   9.389   6.478
13134WAT      O39643   9.519   2.513   9.483
13134WAT     H139644   9.453   2.495   9.411
13134WAT     H239645   9.612   2.511   9.445
13135WAT      O39646   5.848   0.418   7.353
13135WAT     H139647   5.906   0.499   7.358
13135WAT     H239648   5.777   0.423   7.424
13136WAT      O39649   4.344   3.921   2.068
13136WAT     H139650   4.313   3.826   2.077
13136WAT     H239651   4.274   3.975   2.022
13137WAT      O39652   0.726   3.895   4.755
13137WAT     H139653   0.672   3.824   4.798
13137WAT     H239654   0.759   3.959   4.825
13138WAT      O39655   3.260   5.873   7.882
13138WAT     H139656   3.301   5.803   7.941
13138WAT     H239657   3.168   5.895   7.917
13139WAT      O39658   3.129   2.628   8.539
13139WAT     H139659   3.220   2.643   8.499
13139WAT     H239660   3.061   2.679   8.486
13140WAT      O39661   6.779   1.417   2.814
13140WAT     H139662   6.755   1.399   2.718
13140WAT     H239663   6.876   1.438   2.820
13141WAT      O39664   6.672   4.017   3.415
13141WAT     H139665   6.628   3.946   3.470
13141WAT     H239666   6.607   4.055   3.350
13142WAT      O39667   0.185   2.676   5.935
13142WAT     H139668   0.098   2.657   5.890
13142WAT     H239669   0.238   2.592   5.942
13143WAT      O39670   7.551   6.506   7.240
13143WAT     H139671   7.452   6.506   7.235
13143WAT     H239672   7.580   6.482   7.333
13144WAT      O39673   7.497   9.750   7.224
13144WAT     H139674   7.567   9.781   7.159
13144WAT     H239675   7.407   9.768   7.186
13145WAT      O39676   1.883   9.035   1.201
13145WAT     H139677   1.902   9.045   1.103
13145WAT     H239678   1.851   8.942   1.220
13146WAT      O39679   3.524   3.937   4.139
13146WAT     H139680   3.583   3.887   4.203
13146WAT     H239681   3.437   3.889   4.130
13147WAT      O39682   4.095   9.790   1.197
13147WAT     H139683   4.139   9.705   1.225
13147WAT     H239684   3.996   9.781   1.205
13148WAT      O39685   9.125   8.198   5.185
13148WAT     H139686   9.224   8.200   5.167
13148WAT     H239687   9.109   8.173   5.280
13149WAT      O39688   3.840   0.047   6.942
13149WAT     H139689   3.897   0.101   6.882
13149WAT     H239690   3.747   0.041   6.904
13150WAT      O39691   3.279   3.669   6.932
13150WAT     H139692   3.326   3.711   6.854
13150WAT     H239693   3.323   3.581   6.953
13151WAT      O39694   3.923   6.683   8.043
13151WAT     H139695   3.904   6.663   8.139
13151WAT     H239696   4.016   6.653   8.021
13152WAT      O39697   2.485   3.532   5.164
13152WAT     H139698   2.559   3.465   5.157
13152WAT     H239699   2.402   3.495   5.123
13153WAT      O39700   6.082   8.600   0.451
13153WAT     H139701   5.999   8.655   0.440
13153WAT     H239702   6.162   8.659   0.451
13154WAT      O39703   5.193   4.260   4.194
13154WAT     H139704   5.198   4.317   4.276
13154WAT     H239705   5.103   4.272   4.151
13155WAT      O39706   5.700   1.274   6.185
13155WAT     H139707   5.627   1.239   6.127
13155WAT     H239708   5.675   1.263   6.281
13156WAT      O39709   7.887   2.656   7.807
13156WAT     H139710   7.961   2.687   7.747
13156WAT     H239711   7.884   2.715   7.888
13157WAT      O39712   1.384   5.172   9.866
13157WAT     H139713   1.339   5.082   9.857
13157WAT     H239714   1.320   5.244   9.838
13158WAT      O39715   5.964   2.038   4.856
13158WAT     H139716   5.992   2.083   4.941
13158WAT     H239717   6.005   1.947   4.852
13159WAT      O39718   5.917   9.686   4.284
13159WAT     H139719   5.983   9.611   4.278
13159WAT     H239720   5.946   9.761   4.225
13160WAT      O39721   2.320   7.363   6.383
13160WAT     H139722   2.393   7.329   6.323
13160WAT     H239723   2.360   7.402   6.466
13161WAT      O39724   8.428   2.690   1.285
13161WAT     H139725   8.497   2.631   1.327
13161WAT     H239726   8.342   2.683   1.336
13162WAT      O39727   3.890   9.528   6.720
13162WAT     H139728   3.805   9.580   6.728
13162WAT     H239729   3.891   9.480   6.632
13163WAT      O39730   0.742   2.838   1.344
13163WAT     H139731   0.753   2.813   1.440
13163WAT     H239732   0.650   2.815   1.314
13164WAT      O39733   9.618   9.171   5.840
13164WAT     H139734   9.535   9.212   5.876
13164WAT     H239735   9.594   9.101   5.772
13165WAT      O39736   3.827   3.530   7.950
13165WAT     H139737   3.867   3.618   7.926
13165WAT     H239738   3.869   3.496   8.034
13166WAT      O39739   1.038   0.179   1.865
13166WAT     H139740   1.005   0.222   1.781
13166WAT     H239741   0.974   0.106   1.892
13167WAT      O39742   7.860   2.622   8.496
13167WAT     H139743   7.766   2.631   8.529
13167WAT     H239744   7.909   2.556   8.553
13168WAT      O39745   5.270   0.901   6.823
13168WAT     H139746   5.258   0.999   6.838
13168WAT     H239747   5.184   0.853   6.838
13169WAT      O39748   9.837   2.277   1.731
13169WAT     H139749   9.794   2.323   1.809
13169WAT     H239750   9.858   2.183   1.755
13170WAT      O39751   1.070   9.235   8.523
13170WAT     H139752   1.075   9.247   8.424
13170WAT     H239753   0.980   9.263   8.556
13171WAT      O39754   7.675   4.782   6.908
13171WAT     H139755   7.751   4.827   6.956
13171WAT     H239756   7.663   4.690   6.944
13172WAT      O39757   0.147   4.662   6.241
13172WAT     H139758   0.130   4.636   6.336
13172WAT     H239759   0.235   4.710   6.234
13173WAT      O39760   6.391   0.169   3.785
13173WAT     H139761   6.303   0.210   3.811
13173WAT     H239762   6.433   0.125   3.865
13174WAT      O39763   8.313   4.717   9.077
13174WAT     H139764   8.402   4.724   9.123
13174WAT     H239765   8.241   4.742   9.141
13175WAT      O39766   1.490   6.831   5.414
13175WAT     H139767   1.414   6.776   5.378
13175WAT     H239768   1.503   6.811   5.511
13176WAT      O39769   4.397   3.980   6.529
13176WAT     H139770   4.366   3.995   6.436
13176WAT     H239771   4.389   4.065   6.581
13177WAT      O39772   4.829   9.539   7.254
13177WAT     H139773   4.893   9.544   7.331
13177WAT     H239774   4.737   9.520   7.288
13178WAT      O39775   9.023   4.315   8.004
13178WAT     H139776   9.120   4.291   7.995
13178WAT     H239777   8.999   4.380   7.933
13179WAT      O39778   5.387   6.550   5.989
13179WAT     H139779   5.292   6.520   5.978
13179WAT     H239780   5.447   6.492   5.934
13180WAT      O39781   2.159   3.570   9.036
13180WAT     H139782   2.097   3.645   9.013
13180WAT     H239783   2.254   3.600   9.026
13181WAT      O39784   2.618   4.616   9.753
13181WAT     H139785   2.596   4.598   9.849
13181WAT     H239786   2.663   4.535   9.713
13182WAT      O39787   0.703   2.960   4.502
13182WAT     H139788   0.801   2.943   4.507
13182WAT     H239789   0.677   3.025   4.573
13183WAT      O39790   5.993   9.530   4.955
13183WAT     H139791   6.040   9.443   4.968
13183WAT     H239792   6.030   9.599   5.017
13184WAT      O39793   0.484   8.739   1.401
13184WAT     H139794   0.489   8.766   1.305
13184WAT     H239795   0.574   8.707   1.432
13185WAT      O39796   1.243   9.427   8.579
13185WAT     H139797   1.195   9.354   8.530
13185WAT     H239798   1.332   9.443   8.536
13186WAT      O39799   1.573   1.348   7.110
13186WAT     H139800   1.631   1.285   7.058
13186WAT     H239801   1.490   1.367   7.058
13187WAT      O39802   7.693   2.947   4.496
13187WAT     H139803   7.605   2.966   4.541
13187WAT     H239804   7.677   2.890   4.416
13188WAT      O39805   6.773   1.848   7.485
13188WAT     H139806   6.701   1.786   7.517
13188WAT     H239807   6.815   1.893   7.564
13189WAT      O39808   0.978   4.639   2.226
13189WAT     H139809   1.020   4.586   2.299
13189WAT     H239810   0.992   4.592   2.138
13190WAT      O39811   1.461   8.601   7.314
13190WAT     H139812   1.363   8.605   7.295
13190WAT     H239813   1.507   8.679   7.272
13191WAT      O39814   4.300   9.272   5.941
13191WAT     H139815   4.275   9.180   5.972
13191WAT     H239816   4.232   9.304   5.875
13192WAT      O39817   7.643   6.306   7.077
13192WAT     H139818   7.611   6.384   7.131
13192WAT     H239819   7.624   6.221   7.127
13193WAT      O39820   2.023   5.830   3.859
13193WAT     H139821   2.044   5.797   3.951
13193WAT     H239822   1.966   5.912   3.865
13194WAT      O39823   2.203   4.907   3.662
13194WAT     H139824   2.150   4.962   3.726
13194WAT     H239825   2.300   4.916   3.683
13195WAT      O39826   6.233   7.674   5.500
13195WAT     H139827   6.182   7.637   5.423
13195WAT     H239828   6.274   7.761   5.473
13196WAT      O39829   4.338   6.935   2.917
13196WAT     H139830   4.322   7.029   2.887
13196WAT     H239831   4.368   6.934   3.012
13197WAT      O39832   4.132   5.411   3.059
13197WAT     H139833   4.127   5.476   3.135
13197WAT     H239834   4.186   5.451   2.985
13198WAT      O39835   1.817   6.233   6.720
13198WAT     H139836   1.738   6.194   6.767
13198WAT     H239837   1.882   6.160   6.698
13199WAT      O39838   3.775   3.482   6.675
13199WAT     H139839   3.785   3.581   6.684
13199WAT     H239840   3.801   3.438   6.761
13200WAT      O39841   0.839   2.535   6.768
13200WAT     H139842   0.780   2.554   6.847
13200WAT     H239843   0.788   2.481   6.701
13201WAT      O39844   7.369   5.408   1.231
13201WAT     H139845   7.362   5.313   1.263
13201WAT     H239846   7.423   5.461   1.297
13202WAT      O39847   9.548   3.134   1.137
13202WAT     H139848   9.496   3.184   1.207
13202WAT     H239849   9.564   3.040   1.169
13203WAT      O39850   0.238   1.621   3.305
13203WAT     H139851   0.303   1.687   3.269
13203WAT     H239852   0.177   1.589   3.232
13204WAT      O39853   3.190   2.489   5.153
13204WAT     H139854   3.183   2.456   5.247
13204WAT     H239855   3.157   2.418   5.091
13205WAT      O39856   1.649   5.908   2.664
13205WAT     H139857   1.645   5.996   2.615
13205WAT     H239858   1.556   5.873   2.676
13206WAT      O39859   8.855   8.555   0.461
13206WAT     H139860   8.858   8.582   0.364
13206WAT     H239861   8.771   8.503   0.478
13207WAT      O39862   3.635   5.578   5.229
13207WAT     H139863   3.699   5.639   5.182
13207WAT     H239864   3.670   5.485   5.226
13208WAT      O39865   4.478   5.859   1.485
13208WAT     H139866   4.420   5.937   1.503
13208WAT     H239867   4.573   5.889   1.472
13209WAT      O39868   0.929   8.045   2.610
13209WAT     H139869   0.895   8.024   2.701
13209WAT     H239870   0.860   8.098   2.560
13210WAT      O39871   2.758   7.736   7.757
13210WAT     H139872   2.741   7.691   7.844
13210WAT     H239873   2.708   7.689   7.684
13211WAT      O39874   3.051   5.234   7.600
13211WAT     H139875   2.974   5.197   7.652
13211WAT     H239876   3.016   5.286   7.522
13212WAT      O39877   4.729   4.124   1.790
13212WAT     H139878   4.693   4.170   1.872
13212WAT     H239879   4.688   4.034   1.782
13213WAT      O39880   4.520   0.803   0.540
13213WAT     H139881   4.440   0.754   0.574
13213WAT     H239882   4.596   0.739   0.527
13214WAT      O39883   4.359   2.228   9.314
13214WAT     H139884   4.411   2.309   9.288
13214WAT     H239885   4.422   2.153   9.334
13215WAT      O39886   7.237   1.466   6.288
13215WAT     H139887   7.288   1.551   6.275
13215WAT     H239888   7.164   1.481   6.354
13216WAT      O39889   4.820   0.224   9.480
13216WAT     H139890   4.874   0.304   9.452
13216WAT     H239891   4.755   0.200   9.407
13217WAT      O39892   4.261   1.978   7.943
13217WAT     H139893   4.198   1.935   8.009
13217WAT     H239894   4.355   1.963   7.972
13218WAT      O39895   7.511   4.520   9.666
13218WAT     H139896   7.478   4.600   9.717
13218WAT     H239897   7.592   4.484   9.710
13219WAT      O39898   8.050   6.022   5.494
13219WAT     H139899   8.041   6.058   5.586
13219WAT     H239900   8.099   6.087   5.436
13220WAT      O39901   6.837   0.131   6.036
13220WAT     H139902   6.874   0.214   5.995
13220WAT     H239903   6.829   0.144   6.135
13221WAT      O39904   2.153   7.709   4.159
13221WAT     H139905   2.118   7.659   4.080
13221WAT     H239906   2.077   7.759   4.202
13222WAT      O39907   9.703   6.795   3.383
13222WAT     H139908   9.645   6.783   3.302
13222WAT     H239909   9.646   6.790   3.465
13223WAT      O39910   9.464   9.236   4.714
13223WAT     H139911   9.475   9.276   4.805
13223WAT     H239912   9.405   9.156   4.719
13224WAT      O39913   9.839   3.190   3.521
13224WAT     H139914   9.827   3.100   3.563
13224WAT     H239915   9.802   3.261   3.581
13225WAT      O39916   1.141   3.405   3.869
13225WAT     H139917   1.061   3.438   3.819
13225WAT     H239918   1.146   3.449   3.958
13226WAT      O39919   1.631   4.597   4.166
13226WAT     H139920   1.537   4.579   4.196
13226WAT     H239921   1.633   4.602   4.066
13227WAT      O39922   8.891   3.727   8.004
13227WAT     H139923   8.970   3.778   8.039
13227WAT     H239924   8.863   3.764   7.915
13228WAT      O39925   1.531   9.136   5.921
13228WAT     H139926   1.520   9.231   5.950
13228WAT     H239927   1.623   9.122   5.884
13229WAT      O39928   6.292   6.026   8.305
13229WAT     H139929   6.240   6.103   8.268
13229WAT     H239930   6.264   6.009   8.400
13230WAT      O39931   0.786   2.042   3.971
13230WAT     H139932   0.743   2.011   3.886
13230WAT     H239933   0.801   2.141   3.966
13231WAT      O39934   7.638   1.964   6.458
13231WAT     H139935   7.738   1.964   6.457
13231WAT     H239936   7.604   2.036   6.398
13232WAT      O39937   8.032   0.344   2.135
13232WAT     H139938   8.082   0.387   2.210
13232WAT     H239939   8.015   0.411   2.063
13233WAT      O39940   1.764   9.180   2.997
13233WAT     H139941   1.704   9.154   3.073
13233WAT     H239942   1.711   9.192   2.914
13234WAT      O39943   3.599   1.445   3.443
13234WAT     H139944   3.581   1.536   3.480
13234WAT     H239945   3.566   1.376   3.507
13235WAT      O39946   5.167   7.054   7.385
13235WAT     H139947   5.125   6.973   7.427
13235WAT     H239948   5.182   7.038   7.288
13236WAT      O39949   9.250   0.393   5.319
13236WAT     H139950   9.258   0.456   5.242
13236WAT     H239951   9.200   0.437   5.393
13237WAT      O39952   1.081   9.363   7.727
13237WAT     H139953   1.161   9.379   7.670
13237WAT     H239954   1.000   9.404   7.683
13238WAT      O39955   1.254   8.565   8.590
13238WAT     H139956   1.236   8.501   8.665
13238WAT     H239957   1.247   8.659   8.624
13239WAT      O39958   8.850   4.557   2.431
13239WAT     H139959   8.774   4.549   2.495
13239WAT     H239960   8.916   4.625   2.465
13240WAT      O39961   3.421   0.025   1.891
13240WAT     H139962   3.405   0.117   1.929
13240WAT     H239963   3.503  -0.014   1.934
13241WAT      O39964   0.591   7.010   6.698
13241WAT     H139965   0.666   6.962   6.653
13241WAT     H239966   0.565   7.091   6.645
13242WAT      O39967   3.639   8.121   9.836
13242WAT     H139968   3.693   8.191   9.882
13242WAT     H239969   3.603   8.057   9.904
13243WAT      O39970   9.340   6.120   0.934
13243WAT     H139971   9.292   6.033   0.925
13243WAT     H239972   9.343   6.146   1.031
13244WAT      O39973   6.887   8.257   7.030
13244WAT     H139974   6.874   8.213   7.119
13244WAT     H239975   6.973   8.226   6.989
13245WAT      O39976   1.233   0.840   4.463
13245WAT     H139977   1.233   0.857   4.365
13245WAT     H239978   1.238   0.742   4.480
13246WAT      O39979   7.998   5.937   2.083
13246WAT     H139980   7.909   5.948   2.127
13246WAT     H239981   8.018   6.018   2.029
13247WAT      O39982   6.911   7.435   9.207
13247WAT     H139983   7.010   7.437   9.212
13247WAT     H239984   6.874   7.393   9.290
13248WAT      O39985   4.152   2.410   5.250
13248WAT     H139986   4.174   2.508   5.245
13248WAT     H239987   4.054   2.398   5.235
13249WAT      O39988   7.178   2.176   9.364
13249WAT     H139989   7.087   2.177   9.408
13249WAT     H239990   7.177   2.237   9.285
13250WAT      O39991   0.602   7.755   3.268
13250WAT     H139992   0.597   7.682   3.199
13250WAT     H239993   0.694   7.794   3.268
13251WAT      O39994   4.203   1.820   8.185
13251WAT     H139995   4.269   1.804   8.259
13251WAT     H239996   4.183   1.734   8.140
13252WAT      O39997   3.197   2.682   7.684
13252WAT     H139998   3.146   2.748   7.630
13252WAT     H239999   3.193   2.592   7.641
13253WAT      O40000   6.717   7.060   8.108
13253WAT     H140001   6.804   7.030   8.071
13253WAT     H240002   6.732   7.110   8.193
13254WAT      O40003   0.980   4.562   1.951
13254WAT     H140004   0.929   4.646   1.935
13254WAT     H240005   1.045   4.547   1.876
13255WAT      O40006   2.455   0.072   6.847
13255WAT     H140007   2.528   0.084   6.780
13255WAT     H240008   2.464  -0.018   6.891
13256WAT      O40009   8.404   2.558   3.239
13256WAT     H140010   8.446   2.470   3.263
13256WAT     H240011   8.382   2.609   3.322
13257WAT      O40012   8.927   2.942   4.576
13257WAT     H140013   9.006   2.939   4.515
13257WAT     H240014   8.937   2.871   4.646
13258WAT      O40015   9.621   1.551   8.422
13258WAT     H140016   9.619   1.451   8.421
13258WAT     H240017   9.715   1.583   8.426
13259WAT      O40018   9.772   3.810   5.613
13259WAT     H140019   9.751   3.832   5.518
13259WAT     H240020   9.730   3.723   5.638
13260WAT      O40021   7.996   0.353   5.025
13260WAT     H140022   8.000   0.293   4.945
13260WAT     H240023   7.981   0.447   4.996
13261WAT      O40024   1.548   7.704   4.266
13261WAT     H140025   1.520   7.782   4.321
13261WAT     H240026   1.531   7.723   4.170
13262WAT      O40027   3.829   8.722   7.966
13262WAT     H140028   3.826   8.717   8.066
13262WAT     H240029   3.758   8.663   7.928
13263WAT      O40030   0.903   4.368   0.164
13263WAT     H140031   0.936   4.274   0.172
13263WAT     H240032   0.936   4.422   0.242
13264WAT      O40033   1.758   3.181   7.317
13264WAT     H140034   1.834   3.121   7.293
13264WAT     H240035   1.734   3.167   7.413
13265WAT      O40036   8.876   4.099   5.375
13265WAT     H140037   8.858   4.144   5.463
13265WAT     H240038   8.814   4.136   5.306
13266WAT      O40039   6.004   8.971   5.110
13266WAT     H140040   6.006   9.035   5.186
13266WAT     H240041   6.096   8.961   5.072
13267WAT      O40042   9.003   8.270   8.539
13267WAT     H140043   8.926   8.207   8.533
13267WAT     H240044   9.030   8.281   8.635
13268WAT      O40045   8.080   1.886   0.482
13268WAT     H140046   8.005   1.829   0.451
13268WAT     H240047   8.059   1.983   0.465
13269WAT      O40048   4.476   2.846   3.365
13269WAT     H140049   4.408   2.916   3.386
13269WAT     H240050   4.443   2.789   3.290
13270WAT      O40051   6.512   0.764   7.587
13270WAT     H140052   6.601   0.778   7.630
13270WAT     H240053   6.440   0.774   7.656
13271WAT      O40054   1.756   1.305   3.884
13271WAT     H140055   1.699   1.250   3.824
13271WAT     H240056   1.791   1.249   3.959
13272WAT      O40057   4.845   5.766   1.617
13272WAT     H140058   4.824   5.692   1.681
13272WAT     H240059   4.851   5.730   1.524
13273WAT      O40060   8.807   6.199   8.734
13273WAT     H140061   8.751   6.132   8.783
13273WAT     H240062   8.861   6.152   8.665
13274WAT      O40063   7.336   1.181   3.645
13274WAT     H140064   7.363   1.103   3.702
13274WAT     H240065   7.307   1.256   3.704
13275WAT      O40066   1.872   0.980   5.857
13275WAT     H140067   1.901   1.074   5.843
13275WAT     H240068   1.790   0.962   5.802
13276WAT      O40069   4.590   6.557   0.808
13276WAT     H140070   4.628   6.513   0.727
13276WAT     H240071   4.665   6.580   0.871
13277WAT      O40072   6.299   5.795   8.855
13277WAT     H140073   6.293   5.698   8.829
13277WAT     H240074   6.305   5.851   8.773
13278WAT      O40075   9.771   9.524   5.125
13278WAT     H140076   9.737   9.433   5.100
13278WAT     H240077   9.782   9.529   5.224
13279WAT      O40078   7.813   0.269   7.957
13279WAT     H140079   7.739   0.288   7.894
13279WAT     H240080   7.892   0.326   7.934
13280WAT      O40081   3.635   2.850   1.396
13280WAT     H140082   3.563   2.809   1.340
13280WAT     H240083   3.681   2.779   1.449
13281WAT      O40084   5.861   1.606   9.462
13281WAT     H140085   5.939   1.589   9.521
13281WAT     H240086   5.827   1.699   9.477
13282WAT      O40087   4.199   8.617   6.772
13282WAT     H140088   4.235   8.559   6.845
13282WAT     H240089   4.243   8.593   6.685
13283WAT      O40090   8.320   6.091   4.945
13283WAT     H140091   8.243   6.084   4.881
13283WAT     H240092   8.405   6.098   4.894
13284WAT      O40093   8.035   0.837   4.491
13284WAT     H140094   8.105   0.909   4.483
13284WAT     H240095   8.016   0.799   4.400
13285WAT      O40096   6.197   6.233   1.855
13285WAT     H140097   6.148   6.147   1.868
13285WAT     H240098   6.148   6.290   1.790
13286WAT      O40099   9.529   3.578   0.176
13286WAT     H140100   9.459   3.535   0.120
13286WAT     H240101   9.487   3.647   0.235
13287WAT      O40102   5.968   6.048   6.761
13287WAT     H140103   5.909   6.038   6.681
13287WAT     H240104   6.063   6.057   6.732
13288WAT      O40105   8.177   8.604   3.989
13288WAT     H140106   8.178   8.681   4.053
13288WAT     H240107   8.246   8.619   3.918
13289WAT      O40108   5.693   7.323   3.299
13289WAT     H140109   5.740   7.236   3.288
13289WAT     H240110   5.707   7.356   3.393
13290WAT      O40111   3.604   4.951   7.590
13290WAT     H140112   3.655   4.885   7.645
13290WAT     H240113   3.506   4.941   7.608
13291WAT      O40114   5.251   2.126   1.009
13291WAT     H140115   5.315   2.194   1.046
13291WAT     H240116   5.179   2.172   0.957
13292WAT      O40117   1.219   3.876   6.858
13292WAT     H140118   1.173   3.846   6.774
13292WAT     H240119   1.313   3.842   6.859
13293WAT      O40120   5.502   7.680   1.326
13293WAT     H140121   5.547   7.649   1.242
13293WAT     H240122   5.529   7.775   1.345
13294WAT      O40123   3.614   5.517   2.115
13294WAT     H140124   3.521   5.520   2.078
13294WAT     H240125   3.631   5.600   2.168
13295WAT      O40126   8.766   9.299   3.504
13295WAT     H140127   8.754   9.224   3.568
13295WAT     H240128   8.705   9.288   3.426
13296WAT      O40129   6.729   7.751   9.577
13296WAT     H140130   6.747   7.736   9.675
13296WAT     H240131   6.661   7.824   9.567
13297WAT      O40132   7.299   5.049   1.563
13297WAT     H140133   7.250   5.011   1.641
13297WAT     H240134   7.276   5.146   1.554
13298WAT      O40135   3.101   1.367   1.115
13298WAT     H140136   3.133   1.385   1.208
13298WAT     H240137   3.038   1.290   1.115
13299WAT      O40138   1.352   0.830   3.968
13299WAT     H140139   1.286   0.879   4.026
13299WAT     H240140   1.400   0.762   4.023
13300WAT      O40141   5.391   0.689   8.195
13300WAT     H140142   5.297   0.689   8.228
13300WAT     H240143   5.401   0.759   8.124
13301WAT      O40144   6.597   2.144   2.002
13301WAT     H140145   6.615   2.088   1.921
13301WAT     H240146   6.547   2.226   1.974
13302WAT      O40147   2.836   5.319   1.795
13302WAT     H140148   2.825   5.370   1.880
13302WAT     H240149   2.933   5.296   1.783
13303WAT      O40150   9.860   6.978   9.066
13303WAT     H140151   9.883   7.062   9.017
13303WAT     H240152   9.844   6.999   9.163
13304WAT      O40153   1.604   6.450   0.843
13304WAT     H140154   1.699   6.481   0.848
13304WAT     H240155   1.598   6.354   0.870
13305WAT      O40156   2.121   5.613   0.499
13305WAT     H140157   2.171   5.535   0.536
13305WAT     H240158   2.184   5.687   0.478
13306WAT      O40159   6.893   6.182   2.706
13306WAT     H140160   6.823   6.128   2.658
13306WAT     H240161   6.969   6.202   2.644
13307WAT      O40162   4.552   2.708   0.539
13307WAT     H140163   4.518   2.752   0.455
13307WAT     H240164   4.477   2.693   0.603
13308WAT      O40165   9.088   9.026   2.809
13308WAT     H140166   9.085   9.002   2.712
13308WAT     H240167   9.105   9.124   2.818
13309WAT      O40168   3.832   8.055   8.959
13309WAT     H140169   3.833   8.075   8.861
13309WAT     H240170   3.918   8.012   8.986
13310WAT      O40171   8.943   8.070   8.275
13310WAT     H140172   8.892   8.118   8.347
13310WAT     H240173   8.964   8.134   8.201
13311WAT      O40174   9.015   8.572   1.550
13311WAT     H140175   8.917   8.587   1.558
13311WAT     H240176   9.052   8.549   1.640
13312WAT      O40177   1.647   2.400   4.200
13312WAT     H140178   1.670   2.322   4.143
13312WAT     H240179   1.690   2.390   4.290
13313WAT      O40180   1.192   4.566   8.877
13313WAT     H140181   1.291   4.561   8.884
13313WAT     H240182   1.166   4.603   8.788
13314WAT      O40183   9.759   4.603   7.685
13314WAT     H140184   9.858   4.611   7.691
13314WAT     H240185   9.724   4.556   7.765
13315WAT      O40186   5.287   8.702   0.399
13315WAT     H140187   5.364   8.662   0.349
13315WAT     H240188   5.301   8.800   0.409
13316WAT      O40189   8.218   1.104   2.261
13316WAT     H140190   8.282   1.116   2.337
13316WAT     H240191   8.265   1.057   2.186
13317WAT      O40192   1.324   6.556   4.473
13317WAT     H140193   1.239   6.536   4.424
13317WAT     H240194   1.401   6.542   4.411
13318WAT      O40195   4.592   2.792   5.508
13318WAT     H140196   4.671   2.733   5.488
13318WAT     H240197   4.552   2.824   5.422
13319WAT      O40198   9.100   2.338   9.857
13319WAT     H140199   9.106   2.328   9.758
13319WAT     H240200   9.030   2.277   9.894
13320WAT      O40201   2.962   4.888   0.778
13320WAT     H140202   2.961   4.982   0.743
13320WAT     H240203   3.035   4.836   0.733
13321WAT      O40204   8.236   7.611   5.123
13321WAT     H140205   8.137   7.601   5.122
13321WAT     H240206   8.261   7.698   5.164
13322WAT      O40207   1.081   7.222   6.651
13322WAT     H140208   1.033   7.179   6.728
13322WAT     H240209   1.137   7.153   6.605
13323WAT      O40210   8.219   3.107   4.859
13323WAT     H140211   8.267   3.165   4.925
13323WAT     H240212   8.249   3.013   4.869
13324WAT      O40213   5.842   2.019   8.396
13324WAT     H140214   5.778   2.053   8.327
13324WAT     H240215   5.795   1.955   8.456
13325WAT      O40216   4.175   4.510   9.532
13325WAT     H140217   4.112   4.492   9.456
13325WAT     H240218   4.152   4.597   9.575
13326WAT      O40219   3.628   8.548   6.828
13326WAT     H140220   3.676   8.612   6.887
13326WAT     H240221   3.694   8.501   6.769
13327WAT      O40222   8.214   2.859   5.784
13327WAT     H140223   8.232   2.954   5.808
13327WAT     H240224   8.245   2.842   5.691
13328WAT      O40225   9.850   5.921   8.933
13328WAT     H140226   9.868   6.015   8.963
13328WAT     H240227   9.923   5.889   8.873
13329WAT      O40228   1.459   7.949   0.654
13329WAT     H140229   1.372   7.915   0.618
13329WAT     H240230   1.502   7.878   0.710
13330WAT      O40231   8.562   2.086   0.014
13330WAT     H140232   8.640   2.026  -0.002
13330WAT     H240233   8.529   2.073   0.108
13331WAT      O40234   5.935   7.172   2.146
13331WAT     H140235   6.023   7.151   2.104
13331WAT     H240236   5.870   7.201   2.075
13332WAT      O40237   3.607   6.540   8.241
13332WAT     H140238   3.581   6.636   8.227
13332WAT     H240239   3.700   6.537   8.277
13333WAT      O40240   8.421   0.458   2.066
13333WAT     H140241   8.472   0.392   2.120
13333WAT     H240242   8.351   0.502   2.122
13334WAT      O40243   9.135   0.327   8.711
13334WAT     H140244   9.094   0.238   8.731
13334WAT     H240245   9.112   0.353   8.617
13335WAT      O40246   0.990   1.352   8.695
13335WAT     H140247   1.070   1.333   8.638
13335WAT     H240248   0.907   1.337   8.641
13336WAT      O40249   7.445   6.769   6.674
13336WAT     H140250   7.485   6.857   6.648
13336WAT     H240251   7.409   6.774   6.766
13337WAT      O40252   9.762   8.064   3.592
13337WAT     H140253   9.822   8.108   3.525
13337WAT     H240254   9.809   8.057   3.680
13338WAT      O40255   8.265   8.401   6.825
13338WAT     H140256   8.184   8.418   6.881
13338WAT     H240257   8.338   8.463   6.852
13339WAT      O40258   6.682   2.166   4.960
13339WAT     H140259   6.713   2.088   5.014
13339WAT     H240260   6.678   2.140   4.864
13340WAT      O40261   1.104   6.993   7.987
13340WAT     H140262   1.050   7.048   8.050
13340WAT     H240263   1.128   6.906   8.030
13341WAT      O40264   6.962   6.481   2.110
13341WAT     H140265   7.002   6.513   2.025
13341WAT     H240266   7.028   6.489   2.184
13342WAT      O40267   1.954   2.854   6.719
13342WAT     H140268   2.030   2.817   6.773
13342WAT     H240269   1.874   2.795   6.730
13343WAT      O40270   2.496   0.915   6.095
13343WAT     H140271   2.405   0.923   6.135
13343WAT     H240272   2.488   0.891   5.999
13344WAT      O40273   2.018   8.872   9.883
13344WAT     H140274   2.076   8.945   9.845
13344WAT     H240275   2.053   8.845   9.973
13345WAT      O40276   2.902   2.941   7.334
13345WAT     H140277   2.960   2.931   7.253
13345WAT     H240278   2.815   2.893   7.319
13346WAT      O40279   2.199   6.739   8.365
13346WAT     H140280   2.245   6.799   8.299
13346WAT     H240281   2.104   6.724   8.336
13347WAT      O40282   5.316   4.504   6.927
13347WAT     H140283   5.361   4.574   6.981
13347WAT     H240284   5.217   4.519   6.927
13348WAT      O40285   0.002   5.649   9.460
13348WAT     H140286  -0.027   5.736   9.420
13348WAT     H240287   0.101   5.642   9.457
13349WAT      O40288   1.507   7.536   5.102
13349WAT     H140289   1.430   7.479   5.075
13349WAT     H240290   1.505   7.550   5.201
13350WAT      O40291   1.279   0.542   8.065
13350WAT     H140292   1.369   0.502   8.082
13350WAT     H240293   1.218   0.472   8.026
13351WAT      O40294   0.014   0.865   4.485
13351WAT     H140295  -0.014   0.846   4.391
13351WAT     H240296   0.105   0.826   4.502
13352WAT      O40297   5.128   6.046   5.708
13352WAT     H140298   5.111   6.091   5.620
13352WAT     H240299   5.072   5.964   5.715
13353WAT      O40300   8.224   3.144   8.929
13353WAT     H140301   8.315   3.174   8.899
13353WAT     H240302   8.224   3.133   9.028
13354WAT      O40303   1.227   5.259   4.387
13354WAT     H140304   1.311   5.208   4.405
13354WAT     H240305   1.239   5.316   4.306
13355WAT      O40306   3.371   8.687   1.202
13355WAT     H140307   3.419   8.765   1.244
13355WAT     H240308   3.410   8.602   1.236
13356WAT      O40309   1.861   1.960   6.022
13356WAT     H140310   1.862   1.869   5.981
13356WAT     H240311   1.908   2.024   5.961
13357WAT      O40312   1.189   2.020   2.000
13357WAT     H140313   1.120   2.092   1.988
13357WAT     H240314   1.274   2.060   2.035
13358WAT      O40315   0.510   3.254   5.417
13358WAT     H140316   0.501   3.184   5.489
13358WAT     H240317   0.597   3.302   5.428
13359WAT      O40318   9.130   8.225   3.877
13359WAT     H140319   9.072   8.173   3.940
13359WAT     H240320   9.179   8.297   3.928
13360WAT      O40321   8.809   9.553   0.519
13360WAT     H140322   8.839   9.615   0.591
13360WAT     H240323   8.716   9.521   0.540
13361WAT      O40324   8.476   3.815   5.762
13361WAT     H140325   8.544   3.866   5.710
13361WAT     H240326   8.396   3.799   5.704
13362WAT      O40327   8.132   2.150   1.297
13362WAT     H140328   8.095   2.067   1.340
13362WAT     H240329   8.059   2.216   1.284
13363WAT      O40330   6.273   2.454   6.337
13363WAT     H140331   6.206   2.394   6.293
13363WAT     H240332   6.320   2.508   6.268
13364WAT      O40333   7.559   3.560   7.157
13364WAT     H140334   7.615   3.602   7.228
13364WAT     H240335   7.542   3.626   7.084
13365WAT      O40336   6.804   7.410   8.046
13365WAT     H140337   6.865   7.375   8.116
13365WAT     H240338   6.770   7.500   8.072
13366WAT      O40339   0.099   3.368   6.853
13366WAT     H140340   0.052   3.294   6.902
13366WAT     H240341   0.197   3.348   6.850
13367WAT      O40342   3.984   3.999   7.421
13367WAT     H140343   4.026   4.006   7.330
13367WAT     H240344   3.971   3.903   7.445
13368WAT      O40345   9.049   8.185   2.827
13368WAT     H140346   9.130   8.242   2.810
13368WAT     H240347   8.999   8.220   2.906
13369WAT      O40348   6.957   2.856   4.115
13369WAT     H140349   7.038   2.913   4.099
13369WAT     H240350   6.887   2.910   4.161
13370WAT      O40351   6.072   5.110   9.151
13370WAT     H140352   6.012   5.106   9.231
13370WAT     H240353   6.156   5.158   9.176
13371WAT      O40354   4.200   2.185   1.277
13371WAT     H140355   4.229   2.216   1.367
13371WAT     H240356   4.100   2.178   1.274
13372WAT      O40357   5.824   8.109   5.029
13372WAT     H140358   5.804   8.061   5.115
13372WAT     H240359   5.840   8.206   5.047
13373WAT      O40360   9.357   1.841   2.797
13373WAT     H140361   9.400   1.926   2.827
13373WAT     H240362   9.304   1.858   2.714
13374WAT      O40363   0.155   6.925   1.451
13374WAT     H140364   0.242   6.880   1.430
13374WAT     H240365   0.086   6.856   1.474
13375WAT      O40366   5.916   9.034   9.202
13375WAT     H140367   5.884   9.077   9.117
13375WAT     H240368   5.910   9.100   9.277
13376WAT      O40369   6.720   5.158   3.096
13376WAT     H140370   6.750   5.102   3.019
13376WAT     H240371   6.646   5.111   3.145
13377WAT      O40372   7.923   9.187   9.783
13377WAT     H140373   7.983   9.117   9.744
13377WAT     H240374   7.943   9.197   9.881
13378WAT      O40375   9.008   7.832   5.548
13378WAT     H140376   8.948   7.883   5.610
13378WAT     H240377   9.045   7.752   5.596
13379WAT      O40378   0.716   7.895   0.603
13379WAT     H140379   0.785   7.828   0.578
13379WAT     H240380   0.625   7.858   0.585
13380WAT      O40381   1.253   7.748   1.128
13380WAT     H140382   1.229   7.837   1.164
13380WAT     H240383   1.350   7.731   1.141
13381WAT      O40384   7.050   5.353   8.021
13381WAT     H140385   7.141   5.378   7.989
13381WAT     H240386   6.981   5.407   7.973
13382WAT      O40387   4.840   3.395   4.758
13382WAT     H140388   4.885   3.474   4.716
13382WAT     H240389   4.807   3.334   4.686
13383WAT      O40390   9.103   3.327   6.286
13383WAT     H140391   9.196   3.291   6.279
13383WAT     H240392   9.105   3.416   6.332
13384WAT      O40393   5.946   2.531   6.574
13384WAT     H140394   6.044   2.539   6.588
13384WAT     H240395   5.925   2.531   6.477
13385WAT      O40396   2.047   7.761   0.283
13385WAT     H140397   2.062   7.682   0.343
13385WAT     H240398   2.133   7.808   0.268
13386WAT      O40399   9.252   3.284   6.711
13386WAT     H140400   9.206   3.372   6.721
13386WAT     H240401   9.243   3.231   6.795
13387WAT      O40402   1.572   1.215   8.343
13387WAT     H140403   1.535   1.144   8.403
13387WAT     H240404   1.664   1.239   8.373
13388WAT      O40405   8.594   6.777   2.282
13388WAT     H140406   8.625   6.702   2.224
13388WAT     H240407   8.642   6.861   2.255
13389WAT      O40408   5.264   9.341   3.760
13389WAT     H140409   5.202   9.410   3.722
13389WAT     H240410   5.210   9.264   3.794
13390WAT      O40411   4.520   3.934   8.291
13390WAT     H140412   4.475   3.958   8.205
13390WAT     H240413   4.619   3.936   8.278
13391WAT      O40414   9.136   4.832   2.940
13391WAT     H140415   9.157   4.735   2.947
13391WAT     H240416   9.210   4.879   2.893
13392WAT      O40417   0.912   0.819   9.067
13392WAT     H140418   0.995   0.777   9.028
13392WAT     H240419   0.848   0.838   8.993
13393WAT      O40420   2.654   5.426   9.719
13393WAT     H140421   2.652   5.524   9.702
13393WAT     H240422   2.747   5.392   9.707
13394WAT      O40423   3.495   1.848   5.604
13394WAT     H140424   3.516   1.908   5.527
13394WAT     H240425   3.552   1.873   5.683
13395WAT      O40426   3.124   4.967   7.881
13395WAT     H140427   3.125   4.905   7.803
13395WAT     H240428   3.041   4.954   7.934
13396WAT      O40429   5.103   9.700   2.462
13396WAT     H140430   5.164   9.769   2.501
13396WAT     H240431   5.156   9.622   2.430
13397WAT      O40432   0.311   7.518   5.619
13397WAT     H140433   0.280   7.562   5.534
13397WAT     H240434   0.411   7.524   5.625
13398WAT      O40435   4.661   2.841   1.657
13398WAT     H140436   4.599   2.884   1.723
13398WAT     H240437   4.622   2.850   1.565
13399WAT      O40438   0.197   4.944   0.548
13399WAT     H140439   0.263   5.018   0.561
13399WAT     H240440   0.118   4.979   0.498
13400WAT      O40441   8.751   8.671   1.315
13400WAT     H140442   8.741   8.574   1.294
13400WAT     H240443   8.760   8.683   1.414
13401WAT      O40444   2.047   7.434   9.777
13401WAT     H140445   2.078   7.472   9.864
13401WAT     H240446   1.995   7.350   9.794
13402WAT      O40447   9.580   2.376   1.138
13402WAT     H140448   9.525   2.353   1.058
13402WAT     H240449   9.527   2.436   1.198
13403WAT      O40450   9.117   7.399   2.927
13403WAT     H140451   9.047   7.357   2.984
13403WAT     H240452   9.096   7.496   2.915
13404WAT      O40453   7.625   3.089   9.138
13404WAT     H140454   7.720   3.059   9.142
13404WAT     H240455   7.620   3.188   9.151
13405WAT      O40456   5.455   5.292   2.644
13405WAT     H140457   5.406   5.336   2.569
13405WAT     H240458   5.508   5.360   2.694
13406WAT      O40459   0.391   4.767   6.238
13406WAT     H140460   0.417   4.807   6.326
13406WAT     H240461   0.473   4.749   6.184
13407WAT      O40462   9.288   7.415   4.822
13407WAT     H140463   9.313   7.358   4.900
13407WAT     H240464   9.370   7.440   4.771
13408WAT      O40465   5.166   9.657   1.430
13408WAT     H140466   5.158   9.567   1.471
13408WAT     H240467   5.261   9.688   1.435
13409WAT      O40468   5.754   3.391   6.144
13409WAT     H140469   5.735   3.327   6.070
13409WAT     H240470   5.835   3.445   6.121
13410WAT      O40471   5.161   6.538   3.031
13410WAT     H140472   5.141   6.556   2.935
13410WAT     H240473   5.246   6.487   3.039
13411WAT      O40474   0.718   5.500   9.482
13411WAT     H140475   0.683   5.590   9.455
13411WAT     H240476   0.794   5.513   9.545
13412WAT      O40477   0.229   5.308   7.874
13412WAT     H140478   0.256   5.389   7.926
13412WAT     H240479   0.311   5.256   7.850
13413WAT      O40480   0.477   2.732   1.219
13413WAT     H140481   0.440   2.787   1.144
13413WAT     H240482   0.403   2.702   1.279
13414WAT      O40483   5.852   5.127   0.391
13414WAT     H140484   5.952   5.133   0.391
13414WAT     H240485   5.819   5.118   0.485
13415WAT      O40486   5.735   9.565   8.459
13415WAT     H140487   5.698   9.641   8.513
13415WAT     H240488   5.730   9.481   8.512
13416WAT      O40489   5.545   8.962   4.658
13416WAT     H140490   5.521   9.055   4.630
13416WAT     H240491   5.566   8.960   4.756
13417WAT      O40492   2.369   5.518   4.751
13417WAT     H140493   2.363   5.616   4.732
13417WAT     H240494   2.419   5.504   4.837
13418WAT      O40495   5.318   8.008   8.769
13418WAT     H140496   5.399   8.053   8.806
13418WAT     H240497   5.327   7.909   8.781
13419WAT      O40498   0.429   3.964   2.330
13419WAT     H140499   0.486   3.884   2.315
13419WAT     H240500   0.398   3.966   2.425
13420WAT      O40501   7.758   7.350   3.139
13420WAT     H140502   7.742   7.332   3.236
13420WAT     H240503   7.670   7.351   3.091
13421WAT      O40504   2.427   9.200   6.813
13421WAT     H140505   2.369   9.216   6.733
13421WAT     H240506   2.373   9.211   6.897
13422WAT      O40507   8.404   3.914   5.270
13422WAT     H140508   8.318   3.907   5.220
13422WAT     H240509   8.399   3.990   5.335
13423WAT      O40510   7.435   6.461   9.458
13423WAT     H140511   7.419   6.556   9.483
13423WAT     H240512   7.528   6.452   9.421
13424WAT      O40513   5.770   4.644   2.198
13424WAT     H140514   5.848   4.588   2.171
13424WAT     H240515   5.720   4.599   2.272
13425WAT      O40516   5.323   4.349   6.705
13425WAT     H140517   5.240   4.342   6.650
13425WAT     H240518   5.312   4.420   6.774
13426WAT      O40519   5.384   4.790   6.109
13426WAT     H140520   5.375   4.830   6.017
13426WAT     H240521   5.453   4.718   6.107
13427WAT      O40522   5.438   1.844   6.659
13427WAT     H140523   5.384   1.767   6.623
13427WAT     H240524   5.416   1.926   6.607
13428WAT      O40525   7.129   7.378   4.332
13428WAT     H140526   7.060   7.441   4.367
13428WAT     H240527   7.220   7.417   4.344
13429WAT      O40528   4.688   7.452   0.464
13429WAT     H140529   4.728   7.515   0.531
13429WAT     H240530   4.595   7.482   0.442
13430WAT      O40531   3.678   8.693   0.209
13430WAT     H140532   3.766   8.671   0.165
13430WAT     H240533   3.608   8.629   0.177
13431WAT      O40534   2.993   7.390   9.161
13431WAT     H140535   3.059   7.465   9.157
13431WAT     H240536   3.032   7.315   9.214
13432WAT      O40537   0.076   7.904   6.972
13432WAT     H140538   0.086   8.002   6.955
13432WAT     H240539   0.149   7.874   7.033
13433WAT      O40540   3.089   1.235   0.784
13433WAT     H140541   3.030   1.163   0.821
13433WAT     H240542   3.168   1.247   0.845
13434WAT      O40543   7.899   7.828   9.559
13434WAT     H140544   7.945   7.821   9.471
13434WAT     H240545   7.816   7.883   9.549
13435WAT      O40546   9.678   8.413   0.324
13435WAT     H140547   9.608   8.398   0.394
13435WAT     H240548   9.767   8.428   0.368
13436WAT      O40549   4.597   0.713   6.840
13436WAT     H140550   4.547   0.681   6.921
13436WAT     H240551   4.695   0.716   6.861
13437WAT      O40552   3.662   1.532   1.207
13437WAT     H140553   3.610   1.563   1.127
13437WAT     H240554   3.739   1.594   1.222
13438WAT      O40555   2.565   4.978   5.276
13438WAT     H140556   2.489   4.984   5.341
13438WAT     H240557   2.649   5.011   5.319
13439WAT      O40558   6.251   6.963   2.754
13439WAT     H140559   6.270   6.946   2.657
13439WAT     H240560   6.195   6.889   2.791
13440WAT      O40561   4.078   4.116   2.433
13440WAT     H140562   4.156   4.095   2.374
13440WAT     H240563   3.993   4.092   2.385
13441WAT      O40564   3.246   5.544   7.568
13441WAT     H140565   3.255   5.487   7.650
13441WAT     H240566   3.241   5.640   7.595
13442WAT      O40567   5.217   0.629   6.335
13442WAT     H140568   5.186   0.566   6.264
13442WAT     H240569   5.160   0.711   6.335
13443WAT      O40570   3.980   4.182   1.786
13443WAT     H140571   3.947   4.088   1.803
13443WAT     H240572   3.909   4.247   1.813
13444WAT      O40573   2.587   4.778   1.906
13444WAT     H140574   2.592   4.788   2.006
13444WAT     H240575   2.492   4.792   1.877
13445WAT      O40576   1.688   8.998   0.340
13445WAT     H140577   1.711   9.077   0.283
13445WAT     H240578   1.742   9.002   0.424
13446WAT      O40579   1.225   5.865   9.801
13446WAT     H140580   1.158   5.927   9.759
13446WAT     H240581   1.314   5.877   9.756
13447WAT      O40582   6.932   8.263   9.566
13447WAT     H140583   6.978   8.225   9.645
13447WAT     H240584   6.871   8.336   9.595
13448WAT      O40585   1.792   3.269   3.603
13448WAT     H140586   1.816   3.277   3.700
13448WAT     H240587   1.829   3.348   3.554
13449WAT      O40588   5.384   7.742   6.477
13449WAT     H140589   5.333   7.734   6.563
13449WAT     H240590   5.432   7.656   6.459
13450WAT      O40591   9.787   1.992   8.371
13450WAT     H140592   9.871   2.003   8.424
13450WAT     H240593   9.804   2.015   8.275
13451WAT      O40594   8.375   2.467   9.644
13451WAT     H140595   8.437   2.484   9.568
13451WAT     H240596   8.429   2.450   9.727
13452WAT      O40597   1.957   4.915   7.472
13452WAT     H140598   2.039   4.972   7.464
13452WAT     H240599   1.918   4.899   7.382
13453WAT      O40600   8.856   0.749   0.066
13453WAT     H140601   8.896   0.824   0.013
13453WAT     H240602   8.927   0.705   0.121
13454WAT      O40603   5.695   4.024   1.129
13454WAT     H140604   5.679   4.030   1.228
13454WAT     H240605   5.781   4.070   1.107
13455WAT      O40606   4.237   9.194   3.707
13455WAT     H140607   4.141   9.184   3.679
13455WAT     H240608   4.256   9.290   3.727
13456WAT      O40609   4.576   5.987   2.197
13456WAT     H140610   4.540   6.004   2.106
13456WAT     H240611   4.532   6.048   2.263
13457WAT      O40612   2.789   2.884   8.749
13457WAT     H140613   2.764   2.943   8.825
13457WAT     H240614   2.879   2.909   8.715
13458WAT      O40615   5.767   6.553   8.707
13458WAT     H140616   5.756   6.624   8.637
13458WAT     H240617   5.775   6.464   8.662
13459WAT      O40618   6.529   6.188   9.887
13459WAT     H140619   6.504   6.216   9.980
13459WAT     H240620   6.621   6.220   9.865
13460WAT      O40621   0.939   2.219   2.194
13460WAT     H140622   0.993   2.228   2.110
13460WAT     H240623   0.970   2.286   2.261
13461WAT      O40624   8.679   3.842   5.237
13461WAT     H140625   8.586   3.842   5.272
13461WAT     H240626   8.705   3.934   5.209
13462WAT      O40627   7.058   4.691   3.863
13462WAT     H140628   6.976   4.693   3.920
13462WAT     H240629   7.039   4.735   3.776
13463WAT      O40630   1.417   0.981   0.847
13463WAT     H140631   1.417   0.897   0.793
13463WAT     H240632   1.463   1.054   0.797
13464WAT      O40633   1.723   2.679   9.465
13464WAT     H140634   1.746   2.763   9.515
13464WAT     H240635   1.709   2.700   9.369
13465WAT      O40636   5.354   9.272   1.604
13465WAT     H140637   5.410   9.190   1.589
13465WAT     H240638   5.347   9.289   1.702
13466WAT      O40639   7.427   1.496   5.240
13466WAT     H140640   7.392   1.584   5.209
13466WAT     H240641   7.352   1.443   5.280
13467WAT      O40642   8.100   0.677   1.151
13467WAT     H140643   8.153   0.633   1.079
13467WAT     H240644   8.047   0.608   1.201
13468WAT      O40645   7.902   8.251   9.625
13468WAT     H140646   7.955   8.328   9.589
13468WAT     H240647   7.961   8.170   9.632
13469WAT      O40648   1.493   9.037   8.280
13469WAT     H140649   1.574   9.072   8.328
13469WAT     H240650   1.445   8.973   8.340
13470WAT      O40651   0.041   1.633   3.485
13470WAT     H140652   0.110   1.624   3.412
13470WAT     H240653   0.039   1.728   3.517
13471WAT      O40654   7.089   1.108   1.557
13471WAT     H140655   7.052   1.081   1.468
13471WAT     H240656   7.059   1.201   1.578
13472WAT      O40657   0.899   6.073   0.430
13472WAT     H140658   0.944   6.079   0.519
13472WAT     H240659   0.818   6.015   0.437
13473WAT      O40660   0.561   1.342   8.534
13473WAT     H140661   0.533   1.304   8.623
13473WAT     H240662   0.637   1.287   8.498
13474WAT      O40663   5.974   5.658   2.831
13474WAT     H140664   5.951   5.743   2.783
13474WAT     H240665   5.893   5.625   2.880
13475WAT      O40666   8.736   4.557   4.820
13475WAT     H140667   8.755   4.522   4.728
13475WAT     H240668   8.743   4.482   4.886
13476WAT      O40669   6.952   1.967   9.239
13476WAT     H140670   6.985   1.995   9.149
13476WAT     H240671   6.952   2.045   9.301
13477WAT      O40672   6.952   8.594   7.486
13477WAT     H140673   6.989   8.686   7.473
13477WAT     H240674   7.022   8.527   7.461
13478WAT      O40675   4.802   3.180   4.092
13478WAT     H140676   4.835   3.089   4.115
13478WAT     H240677   4.855   3.249   4.141
13479WAT      O40678   3.761   7.950   1.152
13479WAT     H140679   3.678   7.974   1.101
13479WAT     H240680   3.841   7.974   1.098
13480WAT      O40681   8.118   4.045   6.442
13480WAT     H140682   8.089   3.981   6.371
13480WAT     H240683   8.198   4.007   6.490
13481WAT      O40684   8.856   4.901   5.248
13481WAT     H140685   8.927   4.887   5.316
13481WAT     H240686   8.817   4.813   5.221
13482WAT      O40687   8.340   9.660   6.502
13482WAT     H140688   8.345   9.574   6.452
13482WAT     H240689   8.382   9.649   6.592
13483WAT      O40690   2.667   2.561   2.927
13483WAT     H140691   2.755   2.529   2.964
13483WAT     H240692   2.683   2.641   2.869
13484WAT      O40693   4.206   2.267   4.540
13484WAT     H140694   4.255   2.197   4.490
13484WAT     H240695   4.225   2.357   4.501
13485WAT      O40696   0.653   8.030   9.520
13485WAT     H140697   0.731   8.085   9.551
13485WAT     H240698   0.685   7.956   9.461
13486WAT      O40699   0.692   1.069   9.729
13486WAT     H140700   0.636   0.986   9.733
13486WAT     H240701   0.670   1.127   9.807
13487WAT      O40702   8.544   1.125   1.486
13487WAT     H140703   8.627   1.087   1.445
13487WAT     H240704   8.464   1.091   1.438
13488WAT      O40705   3.313   5.475   4.093
13488WAT     H140706   3.270   5.402   4.040
13488WAT     H240707   3.245   5.544   4.118
13489WAT      O40708   9.121   5.057   7.434
13489WAT     H140709   9.211   5.046   7.392
13489WAT     H240710   9.054   5.003   7.383
13490WAT      O40711   9.499   0.067   1.316
13490WAT     H140712   9.580   0.027   1.272
13490WAT     H240713   9.437   0.101   1.245
13491WAT      O40714   7.389   7.216   5.729
13491WAT     H140715   7.406   7.314   5.714
13491WAT     H240716   7.296   7.204   5.764
13492WAT      O40717   4.558   5.613   7.727
13492WAT     H140718   4.560   5.549   7.804
13492WAT     H240719   4.504   5.573   7.652
13493WAT      O40720   0.497   3.245   2.850
13493WAT     H140721   0.554   3.171   2.885
13493WAT     H240722   0.400   3.222   2.864
13494WAT      O40723   4.712   8.575   2.777
13494WAT     H140724   4.718   8.476   2.768
13494WAT     H240725   4.699   8.615   2.686
13495WAT      O40726   6.017   8.007   0.573
13495WAT     H140727   6.088   7.939   0.554
13495WAT     H240728   6.057   8.099   0.568
13496WAT      O40729   7.119   2.181   8.493
13496WAT     H140730   7.215   2.176   8.467
13496WAT     H240731   7.076   2.260   8.450
13497WAT      O40732   1.844   3.121   5.629
13497WAT     H140733   1.790   3.190   5.580
13497WAT     H240734   1.896   3.165   5.703
13498WAT      O40735   5.768   8.631   1.651
13498WAT     H140736   5.788   8.573   1.571
13498WAT     H240737   5.764   8.726   1.622
13499WAT      O40738   9.595   2.813   7.590
13499WAT     H140739   9.614   2.716   7.605
13499WAT     H240740   9.584   2.858   7.679
13500WAT      O40741   0.351   8.247   6.249
13500WAT     H140742   0.260   8.258   6.289
13500WAT     H240743   0.367   8.319   6.181
13501WAT      O40744   6.317   7.103   4.438
13501WAT     H140745   6.405   7.078   4.396
13501WAT     H240746   6.328   7.109   4.537
13502WAT      O40747   1.479   7.675   1.935
13502WAT     H140748   1.511   7.652   1.843
13502WAT     H240749   1.551   7.653   2.001
13503WAT      O40750   1.023   8.930   5.584
13503WAT     H140751   1.105   8.873   5.582
13503WAT     H240752   0.965   8.909   5.506
13504WAT      O40753   8.142   3.469   0.530
13504WAT     H140754   8.084   3.440   0.453
13504WAT     H240755   8.193   3.391   0.565
13505WAT      O40756   4.242   4.330   0.492
13505WAT     H140757   4.197   4.354   0.406
13505WAT     H240758   4.340   4.347   0.484
13506WAT      O40759   7.061   4.993   0.657
13506WAT     H140760   7.161   4.995   0.655
13506WAT     H240761   7.030   5.005   0.751
13507WAT      O40762   2.273   7.194   3.568
13507WAT     H140763   2.284   7.294   3.560
13507WAT     H240764   2.285   7.167   3.663
13508WAT      O40765   1.797   2.794   0.858
13508WAT     H140766   1.737   2.873   0.840
13508WAT     H240767   1.870   2.792   0.790
13509WAT      O40768   9.137   1.924   2.386
13509WAT     H140769   9.065   1.982   2.425
13509WAT     H240770   9.213   1.982   2.358
13510WAT      O40771   1.825   7.822   1.851
13510WAT     H140772   1.899   7.791   1.792
13510WAT     H240773   1.740   7.831   1.798
13511WAT      O40774   1.865   2.283   9.177
13511WAT     H140775   1.946   2.340   9.166
13511WAT     H240776   1.803   2.326   9.243
13512WAT      O40777   3.654   2.995   2.615
13512WAT     H140778   3.590   2.918   2.627
13512WAT     H240779   3.709   3.004   2.698
13513WAT      O40780   5.015   1.280   7.688
13513WAT     H140781   5.090   1.331   7.646
13513WAT     H240782   4.958   1.342   7.742
13514WAT      O40783   1.307   5.760   1.645
13514WAT     H140784   1.231   5.769   1.582
13514WAT     H240785   1.301   5.831   1.715
13515WAT      O40786   0.563   8.877   1.129
13515WAT     H140787   0.526   8.966   1.154
13515WAT     H240788   0.637   8.890   1.063
13516WAT      O40789   1.712   7.712   2.085
13516WAT     H140790   1.738   7.756   1.998
13516WAT     H240791   1.638   7.765   2.127
13517WAT      O40792   0.181   6.249   0.293
13517WAT     H140793   0.210   6.336   0.253
13517WAT     H240794   0.260   6.198   0.326
13518WAT      O40795   3.006   1.777   1.440
13518WAT     H140796   3.065   1.769   1.359
13518WAT     H240797   3.045   1.844   1.503
13519WAT      O40798   3.738   5.505   0.903
13519WAT     H140799   3.647   5.463   0.897
13519WAT     H240800   3.805   5.436   0.931
13520WAT      O40801   6.114   0.060   7.151
13520WAT     H140802   6.142   0.043   7.245
13520WAT     H240803   6.126   0.157   7.129
13521WAT      O40804   1.252   0.812   3.718
13521WAT     H140805   1.310   0.794   3.638
13521WAT     H240806   1.300   0.785   3.801
13522WAT      O40807   2.213   6.367   3.373
13522WAT     H140808   2.181   6.406   3.459
13522WAT     H240809   2.297   6.412   3.345
13523WAT      O40810   1.795   7.985   1.171
13523WAT     H140811   1.765   7.914   1.234
13523WAT     H240812   1.895   7.981   1.160
13524WAT      O40813   2.718   2.952   0.720
13524WAT     H140814   2.670   2.946   0.632
13524WAT     H240815   2.771   3.037   0.724
13525WAT      O40816   7.552   9.039   7.749
13525WAT     H140817   7.579   8.955   7.797
13525WAT     H240818   7.626   9.068   7.689
13526WAT      O40819   5.561   4.840   6.470
13526WAT     H140820   5.648   4.866   6.429
13526WAT     H240821   5.488   4.847   6.402
13527WAT      O40822   3.255   5.313   9.733
13527WAT     H140823   3.294   5.362   9.655
13527WAT     H240824   3.230   5.378   9.804
13528WAT      O40825   0.703   8.457   2.905
13528WAT     H140826   0.771   8.444   2.977
13528WAT     H240827   0.662   8.369   2.881
13529WAT      O40828   6.817   5.362   2.068
13529WAT     H140829   6.726   5.344   2.029
13529WAT     H240830   6.807   5.396   2.161
13530WAT      O40831   3.536   9.368   1.250
13530WAT     H140832   3.619   9.394   1.300
13530WAT     H240833   3.505   9.446   1.195
13531WAT      O40834   3.290   1.405   2.961
13531WAT     H140835   3.349   1.422   3.040
13531WAT     H240836   3.222   1.335   2.984
13532WAT      O40837   4.925   5.468   6.128
13532WAT     H140838   4.961   5.561   6.132
13532WAT     H240839   4.990   5.408   6.082
13533WAT      O40840   7.236   5.317   6.827
13533WAT     H140841   7.256   5.411   6.853
13533WAT     H240842   7.289   5.294   6.745
13534WAT      O40843   5.411   4.497   4.436
13534WAT     H140844   5.438   4.401   4.424
13534WAT     H240845   5.450   4.532   4.521
13535WAT      O40846   8.263   2.378   1.636
13535WAT     H140847   8.203   2.299   1.649
13535WAT     H240848   8.357   2.353   1.657
13536WAT      O40849   5.530   7.583   5.652
13536WAT     H140850   5.507   7.508   5.715
13536WAT     H240851   5.618   7.623   5.680
13537WAT      O40852   5.343   9.588   1.114
13537WAT     H140853   5.328   9.686   1.104
13537WAT     H240854   5.442   9.570   1.116
13538WAT      O40855   5.998   5.539   5.377
13538WAT     H140856   6.050   5.454   5.392
13538WAT     H240857   6.018   5.573   5.285
13539WAT      O40858   8.926   8.259   1.545
13539WAT     H140859   8.980   8.195   1.490
13539WAT     H240860   8.948   8.353   1.517
13540WAT      O40861   5.934   3.979   6.796
13540WAT     H140862   5.957   3.895   6.746
13540WAT     H240863   6.009   4.002   6.858
13541WAT      O40864   7.844   6.978   3.262
13541WAT     H140865   7.757   6.983   3.214
13541WAT     H240866   7.912   6.934   3.203
13542WAT      O40867   5.181   5.917   8.279
13542WAT     H140868   5.194   5.953   8.371
13542WAT     H240869   5.107   5.850   8.279
13543WAT      O40870   2.878   2.128   4.853
13543WAT     H140871   2.876   2.062   4.778
13543WAT     H240872   2.973   2.142   4.883
13544WAT      O40873   9.646   7.117   9.651
13544WAT     H140874   9.556   7.159   9.656
13544WAT     H240875   9.638   7.024   9.615
13545WAT      O40876   7.132   2.606   8.706
13545WAT     H140877   7.185   2.529   8.743
13545WAT     H240878   7.114   2.589   8.609
13546WAT      O40879   9.159   2.931   3.321
13546WAT     H140880   9.160   2.973   3.412
13546WAT     H240881   9.240   2.874   3.309
13547WAT      O40882   8.305   1.737   1.250
13547WAT     H140883   8.350   1.648   1.244
13547WAT     H240884   8.209   1.725   1.274
13548WAT      O40885   5.801   0.290   3.048
13548WAT     H140886   5.738   0.364   3.073
13548WAT     H240887   5.766   0.242   2.967
13549WAT      O40888   9.763   7.694   6.031
13549WAT     H140889   9.838   7.745   6.072
13549WAT     H240890   9.692   7.758   6.001
13550WAT      O40891   7.440   2.982   4.567
13550WAT     H140892   7.423   3.072   4.526
13550WAT     H240893   7.434   2.989   4.666
13551WAT      O40894   2.930   8.890   1.225
13551WAT     H140895   2.932   8.824   1.299
13551WAT     H240896   3.016   8.888   1.175
13552WAT      O40897   3.927   4.162   6.000
13552WAT     H140898   3.880   4.121   5.921
13552WAT     H240899   3.923   4.098   6.077
13553WAT      O40900   8.576   5.903   0.513
13553WAT     H140901   8.490   5.939   0.548
13553WAT     H240902   8.634   5.978   0.483
13554WAT      O40903   2.067   4.314   6.247
13554WAT     H140904   2.036   4.231   6.293
13554WAT     H240905   2.150   4.348   6.293
13555WAT      O40906   0.950   6.548   1.033
13555WAT     H140907   0.950   6.624   0.968
13555WAT     H240908   1.045   6.520   1.050
13556WAT      O40909   4.341   3.511   0.495
13556WAT     H140910   4.383   3.491   0.407
13556WAT     H240911   4.329   3.610   0.505
13557WAT      O40912   2.786   3.257   7.856
13557WAT     H140913   2.745   3.278   7.945
13557WAT     H240914   2.773   3.334   7.794
13558WAT      O40915   0.623   6.457   3.923
13558WAT     H140916   0.541   6.489   3.970
13558WAT     H240917   0.604   6.448   3.825
13559WAT      O40918   2.003   2.891   4.119
13559WAT     H140919   2.069   2.816   4.118
13559WAT     H240920   1.911   2.855   4.110
13560WAT      O40921   4.825   0.958   4.999
13560WAT     H140922   4.834   0.865   5.035
13560WAT     H240923   4.762   0.958   4.921
13561WAT      O40924   3.732   3.056   2.340
13561WAT     H140925   3.715   3.033   2.436
13561WAT     H240926   3.702   3.150   2.323
13562WAT      O40927   0.386   4.965   7.252
13562WAT     H140928   0.476   4.991   7.218
13562WAT     H240929   0.365   4.871   7.224
13563WAT      O40930   8.654   8.239   4.714
13563WAT     H140931   8.596   8.168   4.753
13563WAT     H240932   8.644   8.323   4.768
13564WAT      O40933   0.598   1.981   3.297
13564WAT     H140934   0.523   2.043   3.272
13564WAT     H240935   0.662   2.029   3.357
13565WAT      O40936   5.416   4.723   6.645
13565WAT     H140937   5.340   4.665   6.613
13565WAT     H240938   5.460   4.766   6.567
13566WAT      O40939   1.923   4.214   5.213
13566WAT     H140940   1.847   4.151   5.228
13566WAT     H240941   1.963   4.239   5.301
13567WAT      O40942   6.508   8.163   8.263
13567WAT     H140943   6.565   8.242   8.287
13567WAT     H240944   6.559   8.103   8.201
13568WAT      O40945   1.950   6.742   8.250
13568WAT     H140946   1.893   6.744   8.332
13568WAT     H240947   1.900   6.700   8.175
13569WAT      O40948   6.153   6.993   6.053
13569WAT     H140949   6.174   7.091   6.060
13569WAT     H240950   6.201   6.944   6.125
13570WAT      O40951   7.751   9.777   4.784
13570WAT     H140952   7.842   9.762   4.743
13570WAT     H240953   7.725   9.873   4.772
13571WAT      O40954   1.786   3.738   5.020
13571WAT     H140955   1.697   3.768   4.987
13571WAT     H240956   1.775   3.686   5.105
13572WAT      O40957   9.758   2.599   6.092
13572WAT     H140958   9.723   2.692   6.101
13572WAT     H240959   9.822   2.580   6.167
13573WAT      O40960   9.493   3.952   7.844
13573WAT     H140961   9.497   4.002   7.931
13573WAT     H240962   9.503   4.017   7.768
13574WAT      O40963   2.490   3.117   6.834
13574WAT     H140964   2.526   3.025   6.847
13574WAT     H240965   2.566   3.182   6.827
13575WAT      O40966   4.233   2.170   5.469
13575WAT     H140967   4.166   2.204   5.403
13575WAT     H240968   4.237   2.232   5.547
13576WAT      O40969   1.471   6.514   3.107
13576WAT     H140970   1.568   6.518   3.129
13576WAT     H240971   1.419   6.506   3.192
13577WAT      O40972   1.919   0.084   8.295
13577WAT     H140973   1.834   0.069   8.246
13577WAT     H240974   1.974   0.001   8.292
13578WAT      O40975   9.249   0.631   8.670
13578WAT     H140976   9.317   0.642   8.743
13578WAT     H240977   9.206   0.541   8.678
13579WAT      O40978   3.455   7.990   6.758
13579WAT     H140979   3.534   7.979   6.819
13579WAT     H240980   3.403   7.904   6.756
13580WAT      O40981   7.042   6.192   0.744
13580WAT     H140982   7.070   6.226   0.654
13580WAT     H240983   7.062   6.260   0.814
13581WAT      O40984   9.314   8.011   7.583
13581WAT     H140985   9.321   8.033   7.486
13581WAT     H240986   9.237   7.948   7.597
13582WAT      O40987   9.408   1.410   1.947
13582WAT     H140988   9.339   1.356   1.898
13582WAT     H240989   9.396   1.398   2.045
13583WAT      O40990   3.978   4.087   9.138
13583WAT     H140991   3.941   4.177   9.115
13583WAT     H240992   3.963   4.068   9.235
13584WAT      O40993   7.086   6.572   6.229
13584WAT     H140994   7.169   6.516   6.228
13584WAT     H240995   7.112   6.668   6.241
13585WAT      O40996   7.235   1.073   6.602
13585WAT     H140997   7.225   1.172   6.589
13585WAT     H240998   7.256   1.054   6.698
13586WAT      O40999   9.019   1.664   6.337
13586WAT     H141000   8.920   1.676   6.330
13586WAT     H241001   9.059   1.670   6.245
13587WAT      O41002   6.610   2.800   3.408
13587WAT     H141003   6.648   2.785   3.317
13587WAT     H241004   6.577   2.894   3.415
13588WAT      O41005   7.887   3.038   2.303
13588WAT     H141006   7.850   3.028   2.396
13588WAT     H241007   7.813   3.027   2.237
13589WAT      O41008   9.397   9.431   7.393
13589WAT     H141009   9.401   9.521   7.438
13589WAT     H241010   9.301   9.406   7.379
13590WAT      O41011   1.728   4.242   4.956
13590WAT     H141012   1.790   4.196   5.020
13590WAT     H241013   1.642   4.262   5.002
13591WAT      O41014   4.177   1.882   6.738
13591WAT     H141015   4.112   1.817   6.699
13591WAT     H241016   4.207   1.848   6.828
13592WAT      O41017   5.568   0.269   3.471
13592WAT     H141018   5.536   0.358   3.503
13592WAT     H241019   5.566   0.204   3.547
13593WAT      O41020   5.171   0.022   7.889
13593WAT     H141021   5.257  -0.029   7.893
13593WAT     H241022   5.136   0.022   7.796
13594WAT      O41023   2.656   4.222   1.607
13594WAT     H141024   2.614   4.155   1.669
13594WAT     H241025   2.713   4.285   1.660
13595WAT      O41026   1.188   5.423   0.424
13595WAT     H141027   1.148   5.506   0.464
13595WAT     H241028   1.167   5.345   0.483
13596WAT      O41029   8.594   4.337   5.345
13596WAT     H141030   8.686   4.377   5.339
13596WAT     H241031   8.527   4.411   5.351
13597WAT      O41032   3.488   5.468   1.824
13597WAT     H141033   3.512   5.559   1.789
13597WAT     H241034   3.568   5.408   1.818
13598WAT      O41035   6.473   2.430   2.916
13598WAT     H141036   6.477   2.345   2.864
13598WAT     H241037   6.402   2.490   2.878
13599WAT      O41038   3.930   9.120   2.139
13599WAT     H141039   3.990   9.086   2.211
13599WAT     H241040   3.913   9.047   2.072
13600WAT      O41041   3.912   0.608   3.536
13600WAT     H141042   3.904   0.556   3.621
13600WAT     H241043   3.862   0.561   3.463
13601WAT      O41044   0.981   6.167   3.457
13601WAT     H141045   0.947   6.214   3.376
13601WAT     H241046   1.067   6.208   3.486
13602WAT      O41047   9.486   4.400   5.929
13602WAT     H141048   9.469   4.303   5.910
13602WAT     H241049   9.512   4.410   6.025
13603WAT      O41050   6.852   9.194   2.475
13603WAT     H141051   6.917   9.227   2.407
13603WAT     H241052   6.794   9.270   2.505
13604WAT      O41053   5.638   7.737   0.650
13604WAT     H141054   5.713   7.691   0.698
13604WAT     H241055   5.669   7.825   0.616
13605WAT      O41056   0.466   0.859   8.982
13605WAT     H141057   0.441   0.955   8.973
13605WAT     H241058   0.433   0.823   9.069
13606WAT      O41059   7.655   6.957   6.050
13606WAT     H141060   7.583   6.965   5.981
13606WAT     H241061   7.672   7.046   6.092
13607WAT      O41062   4.666   4.756   3.774
13607WAT     H141063   4.618   4.709   3.700
13607WAT     H241064   4.708   4.839   3.739
13608WAT      O41065   1.444   2.522   1.593
13608WAT     H141066   1.423   2.430   1.559
13608WAT     H241067   1.521   2.560   1.543
13609WAT      O41068   6.711   4.643   4.281
13609WAT     H141069   6.774   4.681   4.349
13609WAT     H241070   6.711   4.543   4.288
13610WAT      O41071   3.507   0.543   7.837
13610WAT     H141072   3.439   0.474   7.860
13610WAT     H241073   3.461   0.627   7.808
13611WAT      O41074   4.877   6.541   1.846
13611WAT     H141075   4.857   6.540   1.749
13611WAT     H241076   4.911   6.451   1.875
13612WAT      O41077   7.820   9.349   3.830
13612WAT     H141078   7.864   9.301   3.754
13612WAT     H241079   7.820   9.291   3.911
13613WAT      O41080   8.633   2.200   1.986
13613WAT     H141081   8.709   2.202   2.050
13613WAT     H241082   8.633   2.113   1.936
13614WAT      O41083   1.161   9.706   1.284
13614WAT     H141084   1.242   9.761   1.266
13614WAT     H241085   1.098   9.757   1.342
13615WAT      O41086   4.372   3.927   0.044
13615WAT     H141087   4.356   3.993  -0.030
13615WAT     H241088   4.403   3.975   0.126
13616WAT      O41089   6.043   2.257   9.822
13616WAT     H141090   6.042   2.232   9.725
13616WAT     H241091   5.963   2.313   9.842
13617WAT      O41092   7.716   3.969   0.882
13617WAT     H141093   7.800   3.932   0.923
13617WAT     H241094   7.739   4.044   0.820
13618WAT      O41095   8.538   5.707   2.165
13618WAT     H141096   8.487   5.656   2.234
13618WAT     H241097   8.623   5.659   2.144
13619WAT      O41098   5.901   9.472   1.215
13619WAT     H141099   5.945   9.382   1.211
13619WAT     H241100   5.967   9.541   1.244
13620WAT      O41101   3.985   2.984   1.720
13620WAT     H141102   3.939   2.897   1.700
13620WAT     H241103   3.940   3.058   1.668
13621WAT      O41104   2.050   1.534   0.807
13621WAT     H141105   2.119   1.481   0.857
13621WAT     H241106   2.019   1.482   0.727
13622WAT      O41107   9.223   0.177   3.218
13622WAT     H141108   9.233   0.217   3.310
13622WAT     H241109   9.193   0.083   3.226
13623WAT      O41110   5.991   1.053   1.572
13623WAT     H141111   5.965   0.957   1.559
13623WAT     H241112   6.069   1.074   1.513
13624WAT      O41113   6.509   5.780   5.002
13624WAT     H141114   6.494   5.756   5.098
13624WAT     H241115   6.478   5.874   4.987
13625WAT      O41116   0.305   5.809   0.017
13625WAT     H141117   0.350   5.797   0.105
13625WAT     H241118   0.329   5.900  -0.020
13626WAT      O41119   9.186   7.003   0.279
13626WAT     H141120   9.192   7.083   0.337
13626WAT     H241121   9.108   6.947   0.307
13627WAT      O41122   2.288   8.375   0.150
13627WAT     H141123   2.314   8.339   0.061
13627WAT     H241124   2.364   8.429   0.188
13628WAT      O41125   9.706   4.310   8.909
13628WAT     H141126   9.639   4.294   8.836
13628WAT     H241127   9.697   4.404   8.942
13629WAT      O41128   5.938   0.667   3.261
13629WAT     H141129   5.933   0.754   3.212
13629WAT     H241130   5.979   0.598   3.202
13630WAT      O41131   5.849   3.360   8.007
13630WAT     H141132   5.816   3.381   8.099
13630WAT     H241133   5.948   3.372   8.004
13631WAT      O41134   7.795   0.095   0.457
13631WAT     H141135   7.786   0.031   0.534
13631WAT     H241136   7.892   0.109   0.437
13632WAT      O41137   0.013   8.500   8.215
13632WAT     H141138  -0.003   8.511   8.314
13632WAT     H241139   0.036   8.405   8.195
13633WAT      O41140   2.488   4.080   4.745
13633WAT     H141141   2.581   4.079   4.708
13633WAT     H241142   2.441   3.996   4.719
13634WAT      O41143   3.537   4.675   3.840
13634WAT     H141144   3.486   4.613   3.782
13634WAT     H241145   3.524   4.769   3.808
13635WAT      O41146   7.906   7.445   1.601
13635WAT     H141147   7.955   7.370   1.556
13635WAT     H241148   7.830   7.475   1.543
13636WAT      O41149   8.285   0.516   1.699
13636WAT     H141150   8.286   0.600   1.753
13636WAT     H241151   8.202   0.464   1.720
13637WAT      O41152   0.015   1.629   6.987
13637WAT     H141153   0.066   1.559   6.938
13637WAT     H241154   0.078   1.698   7.023
13638WAT      O41155   4.286   5.800   2.935
13638WAT     H141156   4.310   5.765   3.025
13638WAT     H241157   4.251   5.894   2.944
13639WAT      O41158   0.032   8.120   1.563
13639WAT     H141159  -0.023   8.042   1.594
13639WAT     H241160   0.068   8.169   1.643
13640WAT      O41161   4.663   3.381   7.799
13640WAT     H141162   4.760   3.386   7.776
13640WAT     H241163   4.643   3.443   7.875
13641WAT      O41164   4.604   9.827   6.990
13641WAT     H141165   4.626   9.730   6.984
13641WAT     H241166   4.670   9.880   6.938
13642WAT      O41167   5.768   6.444   4.518
13642WAT     H141168   5.793   6.515   4.453
13642WAT     H241169   5.672   6.454   4.543
13643WAT      O41170   8.859   0.265   6.758
13643WAT     H141171   8.914   0.348   6.749
13643WAT     H241172   8.877   0.205   6.680
13644WAT      O41173   3.209   3.093   1.824
13644WAT     H141174   3.176   3.065   1.734
13644WAT     H241175   3.294   3.044   1.844
13645WAT      O41176   5.891   0.707   7.662
13645WAT     H141177   5.951   0.755   7.726
13645WAT     H241178   5.845   0.633   7.710
13646WAT      O41179   5.707   4.389   1.361
13646WAT     H141180   5.758   4.411   1.277
13646WAT     H241181   5.611   4.413   1.348
13647WAT      O41182   3.865   5.451   4.528
13647WAT     H141183   3.804   5.505   4.471
13647WAT     H241184   3.898   5.372   4.476
13648WAT      O41185   4.309   2.552   8.056
13648WAT     H141186   4.401   2.579   8.029
13648WAT     H241187   4.242   2.612   8.013
13649WAT      O41188   2.782   6.215   7.305
13649WAT     H141189   2.795   6.157   7.224
13649WAT     H241190   2.835   6.298   7.295
13650WAT      O41191   8.033   7.250   1.482
13650WAT     H141192   8.058   7.201   1.399
13650WAT     H241193   8.003   7.184   1.552
13651WAT      O41194   0.078   4.769   6.871
13651WAT     H141195   0.034   4.836   6.931
13651WAT     H241196   0.171   4.800   6.850
13652WAT      O41197   8.546   0.400   2.785
13652WAT     H141198   8.588   0.416   2.874
13652WAT     H241199   8.478   0.327   2.793
13653WAT      O41200   0.692   3.592   6.592
13653WAT     H141201   0.770   3.539   6.626
13653WAT     H241202   0.631   3.615   6.667
13654WAT      O41203   1.033   9.239   3.783
13654WAT     H141204   1.035   9.175   3.860
13654WAT     H241205   1.125   9.252   3.747
13655WAT      O41206   4.587   8.421   0.503
13655WAT     H141207   4.687   8.425   0.505
13655WAT     H241208   4.557   8.327   0.523
13656WAT      O41209   6.520   6.032   5.851
13656WAT     H141210   6.517   6.131   5.857
13656WAT     H241211   6.535   6.005   5.755
13657WAT      O41212   0.510   3.677   5.664
13657WAT     H141213   0.497   3.776   5.658
13657WAT     H241214   0.432   3.631   5.620
13658WAT      O41215   4.188   5.051   6.831
13658WAT     H141216   4.123   4.983   6.866
13658WAT     H241217   4.160   5.142   6.860
13659WAT      O41218   2.347   5.089   7.982
13659WAT     H141219   2.349   5.170   8.041
13659WAT     H241220   2.378   5.114   7.890
13660WAT      O41221   9.822   0.801   8.698
13660WAT     H141222   9.745   0.737   8.700
13660WAT     H241223   9.865   0.798   8.607
13661WAT      O41224   3.283   9.048   1.762
13661WAT     H141225   3.217   9.084   1.827
13661WAT     H241226   3.362   9.012   1.811
13662WAT      O41227   6.962   7.454   5.286
13662WAT     H141228   6.922   7.510   5.360
13662WAT     H241229   6.892   7.438   5.217
13663WAT      O41230   7.500   6.280   9.705
13663WAT     H141231   7.474   6.210   9.638
13663WAT     H241232   7.440   6.360   9.694
13664WAT      O41233   5.837   0.737   0.635
13664WAT     H141234   5.923   0.782   0.657
13664WAT     H241235   5.851   0.673   0.559
13665WAT      O41236   8.950   1.927   3.495
13665WAT     H141237   8.980   1.837   3.464
13665WAT     H241238   8.961   1.933   3.595
13666WAT      O41239   6.589   4.147   3.656
13666WAT     H141240   6.630   4.088   3.587
13666WAT     H241241   6.517   4.097   3.705
13667WAT      O41242   2.788   9.358   1.243
13667WAT     H141243   2.756   9.282   1.187
13667WAT     H241244   2.714   9.390   1.302
13668WAT      O41245   3.141   7.711   6.474
13668WAT     H141246   3.216   7.659   6.433
13668WAT     H241247   3.054   7.679   6.437
13669WAT      O41248   6.394   2.583   6.128
13669WAT     H141249   6.420   2.493   6.095
13669WAT     H241250   6.345   2.632   6.056
13670WAT      O41251   5.564   9.168   9.287
13670WAT     H141252   5.633   9.124   9.345
13670WAT     H241253   5.476   9.166   9.334
13671WAT      O41254   0.666   6.462   3.641
13671WAT     H141255   0.759   6.442   3.671
13671WAT     H241256   0.660   6.557   3.613
13672WAT      O41257   2.568   6.048   3.202
13672WAT     H141258   2.477   6.006   3.203
13672WAT     H241259   2.632   5.986   3.157
13673WAT      O41260   8.339   7.182   4.767
13673WAT     H141261   8.269   7.170   4.837
13673WAT     H241262   8.416   7.233   4.806
13674WAT      O41263   3.151   3.500   1.510
13674WAT     H141264   3.100   3.525   1.593
13674WAT     H241265   3.164   3.401   1.509
13675WAT      O41266   4.510   8.130   0.563
13675WAT     H141267   4.564   8.075   0.499
13675WAT     H241268   4.471   8.070   0.633
13676WAT      O41269   9.534   8.710   3.574
13676WAT     H141270   9.466   8.745   3.510
13676WAT     H241271   9.546   8.775   3.649
13677WAT      O41272   0.830   2.297   9.204
13677WAT     H141273   0.912   2.353   9.196
13677WAT     H241274   0.835   2.242   9.288
13678WAT      O41275   0.841   4.215   4.393
13678WAT     H141276   0.851   4.136   4.453
13678WAT     H241277   0.913   4.214   4.324
13679WAT      O41278   5.294   2.372   8.213
13679WAT     H141279   5.245   2.452   8.180
13679WAT     H241280   5.229   2.299   8.236
13680WAT      O41281   6.483   5.312   1.026
13680WAT     H141282   6.410   5.330   0.961
13680WAT     H241283   6.517   5.218   1.013
13681WAT      O41284   0.566   8.281   1.239
13681WAT     H141285   0.516   8.279   1.325
13681WAT     H241286   0.503   8.264   1.163
13682WAT      O41287   9.826   8.251   1.333
13682WAT     H141288   9.892   8.326   1.330
13682WAT     H241289   9.841   8.197   1.416
13683WAT      O41290   5.150   7.584   5.502
13683WAT     H141291   5.240   7.626   5.508
13683WAT     H241292   5.102   7.595   5.590
13684WAT      O41293   6.830   7.725   9.805
13684WAT     H141294   6.871   7.636   9.790
13684WAT     H241295   6.783   7.726   9.894
13685WAT      O41296   9.444   8.908   5.036
13685WAT     H141297   9.382   8.845   4.988
13685WAT     H241298   9.408   9.001   5.029
13686WAT      O41299   0.706   4.290   3.079
13686WAT     H141300   0.803   4.308   3.065
13686WAT     H241301   0.693   4.195   3.107
13687WAT      O41302   2.872   1.531   4.609
13687WAT     H141303   2.965   1.495   4.599
13687WAT     H241304   2.862   1.571   4.700
13688WAT      O41305   4.239   2.888   1.159
13688WAT     H141306   4.337   2.897   1.141
13688WAT     H241307   4.214   2.942   1.240
13689WAT      O41308   8.272   9.196   8.900
13689WAT     H141309   8.302   9.121   8.841
13689WAT     H241310   8.352   9.236   8.944
13690WAT      O41311   6.171   9.468   2.095
13690WAT     H141312   6.188   9.497   2.001
13690WAT     H241313   6.099   9.525   2.135
13691WAT      O41314   4.560   4.115   8.685
13691WAT     H141315   4.478   4.105   8.629
13691WAT     H241316   4.545   4.073   8.774
13692WAT      O41317   9.111   1.568   7.397
13692WAT     H141318   9.203   1.564   7.357
13692WAT     H241319   9.071   1.476   7.398
13693WAT      O41320   5.098   8.245   5.704
13693WAT     H141321   5.032   8.207   5.768
13693WAT     H241322   5.162   8.305   5.753
13694WAT      O41323   7.681   2.037   0.337
13694WAT     H141324   7.718   1.986   0.414
13694WAT     H241325   7.589   2.005   0.317
13695WAT      O41326   4.397   2.048   4.080
13695WAT     H141327   4.337   2.037   4.001
13695WAT     H241328   4.454   2.129   4.068
13696WAT      O41329   0.447   4.891   1.098
13696WAT     H141330   0.531   4.944   1.088
13696WAT     H241331   0.380   4.920   1.029
13697WAT      O41332   3.780   8.427   7.906
13697WAT     H141333   3.857   8.478   7.944
13697WAT     H241334   3.765   8.344   7.960
13698WAT      O41335   8.036   8.581   8.102
13698WAT     H141336   7.994   8.610   8.016
13698WAT     H241337   7.970   8.591   8.176
13699WAT      O41338   8.587   6.964   4.689
13699WAT     H141339   8.528   6.885   4.674
13699WAT     H241340   8.530   7.047   4.694
13700WAT      O41341   3.435   2.777   6.445
13700WAT     H141342   3.506   2.828   6.493
13700WAT     H241343   3.384   2.721   6.511
13701WAT      O41344   7.457   7.844   4.742
13701WAT     H141345   7.400   7.895   4.678
13701WAT     H241346   7.410   7.760   4.769
13702WAT      O41347   8.425   2.021   9.695
13702WAT     H141348   8.479   2.030   9.779
13702WAT     H241349   8.378   2.107   9.677
13703WAT      O41350   4.010   2.166   2.843
13703WAT     H141351   4.061   2.163   2.929
13703WAT     H241352   3.961   2.079   2.831
13704WAT      O41353   5.298   9.487   3.191
13704WAT     H141354   5.201   9.468   3.177
13704WAT     H241355   5.312   9.586   3.200
13705WAT      O41356   0.640   0.388   5.440
13705WAT     H141357   0.541   0.377   5.429
13705WAT     H241358   0.668   0.477   5.402
13706WAT      O41359   7.804   5.863   7.405
13706WAT     H141360   7.888   5.851   7.458
13706WAT     H241361   7.773   5.958   7.413
13707WAT      O41362   4.084   9.301   3.338
13707WAT     H141363   4.118   9.365   3.270
13707WAT     H241364   4.061   9.214   3.294
13708WAT      O41365   4.880   4.297   9.488
13708WAT     H141366   4.948   4.336   9.550
13708WAT     H241367   4.789   4.325   9.517
13709WAT      O41368   3.168   1.720   1.195
13709WAT     H141369   3.201   1.813   1.175
13709WAT     H241370   3.091   1.699   1.136
13710WAT      O41371   9.341   2.900   4.963
13710WAT     H141372   9.340   2.883   4.865
13710WAT     H241373   9.278   2.837   5.009
13711WAT      O41374   2.858   4.247   7.797
13711WAT     H141375   2.772   4.199   7.812
13711WAT     H241376   2.850   4.308   7.719
13712WAT      O41377   4.276   7.066   2.472
13712WAT     H141378   4.283   6.967   2.486
13712WAT     H241379   4.261   7.111   2.560
13713WAT      O41380   0.739   2.776   8.399
13713WAT     H141381   0.640   2.790   8.397
13713WAT     H241382   0.786   2.862   8.380
13714WAT      O41383   6.401   2.589   1.422
13714WAT     H141384   6.333   2.642   1.370
13714WAT     H241385   6.426   2.508   1.369
13715WAT      O41386   7.351   2.766   1.017
13715WAT     H141387   7.393   2.776   0.926
13715WAT     H241388   7.254   2.788   1.011
13716WAT      O41389   1.312   2.387   1.086
13716WAT     H141390   1.356   2.459   1.139
13716WAT     H241391   1.213   2.401   1.086
13717WAT      O41392   5.194   8.976   6.003
13717WAT     H141393   5.223   9.010   5.914
13717WAT     H241394   5.273   8.945   6.055
13718WAT      O41395   5.096   4.974   9.607
13718WAT     H141396   5.141   4.907   9.666
13718WAT     H241397   5.129   5.066   9.630
13719WAT      O41398   5.728   6.248   2.591
13719WAT     H141399   5.651   6.225   2.532
13719WAT     H241400   5.777   6.326   2.554
13720WAT      O41401   2.578   0.991   7.945
13720WAT     H141402   2.626   0.956   7.865
13720WAT     H241403   2.486   1.020   7.919
13721WAT      O41404   3.839   2.951   6.185
13721WAT     H141405   3.746   2.960   6.150
13721WAT     H241406   3.902   2.940   6.108
13722WAT      O41407   3.759   1.601   3.013
13722WAT     H141408   3.717   1.536   3.077
13722WAT     H241409   3.854   1.574   2.997
13723WAT      O41410   5.957   6.561   5.485
13723WAT     H141411   6.019   6.565   5.406
13723WAT     H241412   5.878   6.620   5.468
13724WAT      O41413   2.396   6.593   7.551
13724WAT     H141414   2.388   6.493   7.544
13724WAT     H241415   2.391   6.620   7.647
13725WAT      O41416   5.964   3.966   0.191
13725WAT     H141417   5.900   3.996   0.261
13725WAT     H241418   6.051   4.016   0.202
13726WAT      O41419   8.312   2.978   4.254
13726WAT     H141420   8.404   2.940   4.265
13726WAT     H241421   8.245   2.905   4.267
13727WAT      O41422   3.785   4.118   3.624
13727WAT     H141423   3.827   4.150   3.709
13727WAT     H241424   3.710   4.055   3.646
13728WAT      O41425   3.735   2.012   7.409
13728WAT     H141426   3.733   2.030   7.311
13728WAT     H241427   3.746   1.914   7.425
13729WAT      O41428   5.331   3.535   3.892
13729WAT     H141429   5.277   3.458   3.926
13729WAT     H241430   5.311   3.549   3.795
13730WAT      O41431   2.523   3.493   3.046
13730WAT     H141432   2.444   3.509   2.986
13730WAT     H241433   2.499   3.426   3.115
13731WAT      O41434   5.236   5.627   1.313
13731WAT     H141435   5.270   5.544   1.357
13731WAT     H241436   5.216   5.696   1.383
13732WAT      O41437   3.276   0.591   0.346
13732WAT     H141438   3.324   0.543   0.420
13732WAT     H241439   3.177   0.584   0.361
13733WAT      O41440   1.695   4.414   5.467
13733WAT     H141441   1.773   4.398   5.527
13733WAT     H241442   1.727   4.438   5.376
13734WAT      O41443   9.211   1.423   2.850
13734WAT     H141444   9.263   1.415   2.765
13734WAT     H241445   9.233   1.345   2.909
13735WAT      O41446   1.008   8.934   9.757
13735WAT     H141447   1.022   8.957   9.853
13735WAT     H241448   1.092   8.952   9.706
13736WAT      O41449   9.570   8.030   0.939
13736WAT     H141450   9.612   8.041   0.849
13736WAT     H241451   9.636   8.056   1.010
13737WAT      O41452   4.335   5.868   6.784
13737WAT     H141453   4.349   5.926   6.703
13737WAT     H241454   4.335   5.772   6.756
13738WAT      O41455   7.179   2.614   2.257
13738WAT     H141456   7.233   2.544   2.210
13738WAT     H241457   7.132   2.670   2.190
13739WAT      O41458   7.979   0.792   3.922
13739WAT     H141459   8.065   0.776   3.970
13739WAT     H241460   7.990   0.767   3.826
13740WAT      O41461   7.757   8.459   4.957
13740WAT     H141462   7.682   8.415   5.006
13740WAT     H241463   7.743   8.449   4.858
13741WAT      O41464   7.057   5.316   2.586
13741WAT     H141465   7.029   5.275   2.673
13741WAT     H241466   7.124   5.389   2.604
13742WAT      O41467   6.234   2.468   1.124
13742WAT     H141468   6.242   2.548   1.064
13742WAT     H241469   6.323   2.449   1.166
13743WAT      O41470   0.611   6.750   8.442
13743WAT     H141471   0.613   6.744   8.342
13743WAT     H241472   0.537   6.692   8.477
13744WAT      O41473   9.797   8.256   9.110
13744WAT     H141474   9.874   8.283   9.052
13744WAT     H241475   9.832   8.229   9.200
13745WAT      O41476   9.065   3.379   8.963
13745WAT     H141477   9.039   3.301   8.906
13745WAT     H241478   9.122   3.441   8.911
13746WAT      O41479   7.623   0.795   2.681
13746WAT     H141480   7.664   0.795   2.589
13746WAT     H241481   7.683   0.745   2.744
13747WAT      O41482   7.844   0.056   1.629
13747WAT     H141483   7.804   0.012   1.549
13747WAT     H241484   7.931   0.013   1.652
13748WAT      O41485   4.980   7.471   6.965
13748WAT     H141486   4.962   7.565   6.936
13748WAT     H241487   5.051   7.470   7.036
13749WAT      O41488   3.800   2.553   7.854
13749WAT     H141489   3.760   2.643   7.838
13749WAT     H241490   3.745   2.503   7.921
13750WAT      O41491   0.639   3.358   9.746
13750WAT     H141492   0.689   3.399   9.822
13750WAT     H241493   0.570   3.295   9.782
13751WAT      O41494   4.164   9.727   2.650
13751WAT     H141495   4.146   9.826   2.658
13751WAT     H241496   4.098   9.687   2.587
13752WAT      O41497   6.812   9.544   9.630
13752WAT     H141498   6.726   9.568   9.674
13752WAT     H241499   6.797   9.467   9.567
13753WAT      O41500   6.967   3.201   8.618
13753WAT     H141501   7.010   3.184   8.530
13753WAT     H241502   6.896   3.271   8.608
13754WAT      O41503   7.631   3.531   3.275
13754WAT     H141504   7.615   3.517   3.372
13754WAT     H241505   7.678   3.619   3.261
13755WAT      O41506   6.699   8.670   6.047
13755WAT     H141507   6.733   8.731   6.118
13755WAT     H241508   6.599   8.668   6.049
13756WAT      O41509   6.286   5.206   8.283
13756WAT     H141510   6.306   5.179   8.378
13756WAT     H241511   6.321   5.136   8.221
13757WAT      O41512   5.671   8.112   8.171
13757WAT     H141513   5.709   8.029   8.131
13757WAT     H241514   5.679   8.108   8.271
13758WAT      O41515   4.606   9.152   9.605
13758WAT     H141516   4.676   9.182   9.670
13758WAT     H241517   4.624   9.194   9.516
13759WAT      O41518   3.494   2.668   3.086
13759WAT     H141519   3.544   2.699   3.006
13759WAT     H241520   3.528   2.578   3.114
13760WAT      O41521   6.953   9.612   7.141
13760WAT     H141522   7.013   9.686   7.175
13760WAT     H241523   6.870   9.609   7.197
13761WAT      O41524   2.630   4.186   2.582
13761WAT     H141525   2.717   4.223   2.552
13761WAT     H241526   2.561   4.259   2.582
13762WAT      O41527   0.939   3.087   8.834
13762WAT     H141528   1.035   3.107   8.852
13762WAT     H241529   0.904   3.148   8.764
13763WAT      O41530   4.133   2.577   9.181
13763WAT     H141531   4.145   2.552   9.277
13763WAT     H241532   4.189   2.657   9.160
13764WAT      O41533   2.253   7.735   9.448
13764WAT     H141534   2.274   7.701   9.356
13764WAT     H241535   2.158   7.712   9.471
13765WAT      O41536   8.455   2.205   5.029
13765WAT     H141537   8.499   2.115   5.018
13765WAT     H241538   8.519   2.267   5.074
13766WAT      O41539   7.802   8.971   0.404
13766WAT     H141540   7.786   9.004   0.311
13766WAT     H241541   7.748   9.025   0.469
13767WAT      O41542   8.578   1.942   8.092
13767WAT     H141543   8.537   1.852   8.074
13767WAT     H241544   8.590   1.954   8.190
13768WAT      O41545   4.658   0.415   1.449
13768WAT     H141546   4.666   0.378   1.357
13768WAT     H241547   4.749   0.424   1.490
13769WAT      O41548   5.725   6.923   0.641
13769WAT     H141549   5.821   6.948   0.630
13769WAT     H241550   5.717   6.823   0.645
13770WAT      O41551   6.367   2.177   6.126
13770WAT     H141552   6.445   2.158   6.186
13770WAT     H241553   6.285   2.192   6.180
13771WAT      O41554   7.868   1.719   3.152
13771WAT     H141555   7.769   1.722   3.163
13771WAT     H241556   7.891   1.654   3.079
13772WAT      O41557   9.060   8.033   6.254
13772WAT     H141558   9.113   8.033   6.169
13772WAT     H241559   9.112   8.080   6.325
13773WAT      O41560   6.476   6.218   1.759
13773WAT     H141561   6.493   6.289   1.690
13773WAT     H241562   6.380   6.222   1.786
13774WAT      O41563   8.569   4.656   3.909
13774WAT     H141564   8.500   4.716   3.948
13774WAT     H241565   8.531   4.608   3.830
13775WAT      O41566   7.083   9.384   3.320
13775WAT     H141567   7.000   9.402   3.372
13775WAT     H241568   7.138   9.467   3.314
13776WAT      O41569   5.404   8.290   6.593
13776WAT     H141570   5.416   8.193   6.611
13776WAT     H241571   5.347   8.302   6.511
13777WAT      O41572   0.999   9.456   1.565
13777WAT     H141573   1.070   9.417   1.506
13777WAT     H241574   0.943   9.383   1.603
13778WAT      O41575   5.487   4.754   3.717
13778WAT     H141576   5.403   4.713   3.753
13778WAT     H241577   5.530   4.691   3.652
13779WAT      O41578   5.324   5.623   3.500
13779WAT     H141579   5.390   5.629   3.425
13779WAT     H241580   5.231   5.638   3.465
13780WAT      O41581   8.927   5.257   7.413
13780WAT     H141582   8.902   5.289   7.321
13780WAT     H241583   9.004   5.193   7.406
13781WAT      O41584   7.676   5.232   3.796
13781WAT     H141585   7.686   5.307   3.731
13781WAT     H241586   7.745   5.241   3.868
13782WAT      O41587   5.134   7.418   8.618
13782WAT     H141588   5.196   7.340   8.624
13782WAT     H241589   5.059   7.407   8.683
13783WAT      O41590   7.985   9.092   8.054
13783WAT     H141591   8.023   9.059   7.967
13783WAT     H241592   8.022   9.037   8.129
13784WAT      O41593   8.417   3.213   0.288
13784WAT     H141594   8.486   3.279   0.257
13784WAT     H241595   8.374   3.248   0.372
13785WAT      O41596   7.685   8.291   6.456
13785WAT     H141597   7.672   8.226   6.381
13785WAT     H241598   7.782   8.315   6.463
13786WAT      O41599   2.226   3.863   9.117
13786WAT     H141600   2.261   3.953   9.094
13786WAT     H241601   2.139   3.873   9.165
13787WAT      O41602   7.425   8.278   0.948
13787WAT     H141603   7.449   8.240   1.038
13787WAT     H241604   7.460   8.218   0.877
13788WAT      O41605   8.625   0.840   1.654
13788WAT     H141606   8.615   0.926   1.704
13788WAT     H241607   8.547   0.827   1.594
13789WAT      O41608   0.163   7.411   0.599
13789WAT     H141609   0.089   7.379   0.540
13789WAT     H241610   0.154   7.369   0.689
13790WAT      O41611   3.050   5.144   2.662
13790WAT     H141612   3.071   5.052   2.631
13790WAT     H241613   3.128   5.204   2.646
13791WAT      O41614   1.787   9.681   0.197
13791WAT     H141615   1.778   9.772   0.237
13791WAT     H241616   1.866   9.679   0.136
13792WAT      O41617   4.992   0.847   6.858
13792WAT     H141618   4.948   0.757   6.861
13792WAT     H241619   4.941   0.911   6.916
13793WAT      O41620   7.119   1.168   7.328
13793WAT     H141621   7.053   1.202   7.261
13793WAT     H241622   7.092   1.076   7.356
13794WAT      O41623   8.136   5.517   6.347
13794WAT     H141624   8.125   5.443   6.414
13794WAT     H241625   8.209   5.493   6.283
13795WAT      O41626   3.769   7.504   3.630
13795WAT     H141627   3.819   7.495   3.715
13795WAT     H241628   3.747   7.601   3.614
13796WAT      O41629   4.062   7.454   7.221
13796WAT     H141630   4.076   7.358   7.247
13796WAT     H241631   4.149   7.502   7.224
13797WAT      O41632   6.690   7.410   5.469
13797WAT     H141633   6.605   7.424   5.418
13797WAT     H241634   6.746   7.341   5.423
13798WAT      O41635   7.821   2.119   3.797
13798WAT     H141636   7.754   2.191   3.780
13798WAT     H241637   7.854   2.083   3.710
13799WAT      O41638   9.043   6.657   3.214
13799WAT     H141639   9.075   6.700   3.299
13799WAT     H241640   8.968   6.594   3.235
13800WAT      O41641   2.966   2.583   5.495
13800WAT     H141642   3.045   2.529   5.466
13800WAT     H241643   2.997   2.658   5.552
13801WAT      O41644   1.032   2.733   5.909
13801WAT     H141645   1.101   2.733   5.837
13801WAT     H241646   1.067   2.784   5.988
13802WAT      O41647   1.104   2.085   1.274
13802WAT     H141648   1.103   2.063   1.371
13802WAT     H241649   1.193   2.122   1.249
13803WAT      O41650   2.426   3.830   8.663
13803WAT     H141651   2.358   3.870   8.725
13803WAT     H241652   2.401   3.849   8.568
13804WAT      O41653   0.206   7.626   4.395
13804WAT     H141654   0.150   7.545   4.411
13804WAT     H241655   0.282   7.603   4.334
13805WAT      O41656   5.451   0.373   8.676
13805WAT     H141657   5.496   0.315   8.607
13805WAT     H241658   5.352   0.364   8.666
13806WAT      O41659   8.756   8.578   6.995
13806WAT     H141660   8.760   8.613   7.089
13806WAT     H241661   8.843   8.594   6.950
13807WAT      O41662   9.588   9.478   0.568
13807WAT     H141663   9.560   9.569   0.597
13807WAT     H241664   9.629   9.483   0.477
13808WAT      O41665   7.222   0.383   3.521
13808WAT     H141666   7.196   0.312   3.457
13808WAT     H241667   7.144   0.406   3.579
13809WAT      O41668   0.552   2.599   3.747
13809WAT     H141669   0.612   2.630   3.674
13809WAT     H241670   0.595   2.619   3.836
13810WAT      O41671   4.978   3.681   2.495
13810WAT     H141672   5.041   3.725   2.432
13810WAT     H241673   4.938   3.600   2.452
13811WAT      O41674   9.241   1.209   4.463
13811WAT     H141675   9.282   1.269   4.531
13811WAT     H241676   9.312   1.149   4.424
13812WAT      O41677   5.742   4.184   7.587
13812WAT     H141678   5.731   4.251   7.660
13812WAT     H241679   5.807   4.219   7.520
13813WAT      O41680   3.558   8.901   6.779
13813WAT     H141681   3.575   8.883   6.876
13813WAT     H241682   3.501   8.828   6.741
13814WAT      O41683   0.982   4.343   3.808
13814WAT     H141684   0.951   4.438   3.810
13814WAT     H241685   1.080   4.339   3.825
13815WAT      O41686   7.862   5.389   4.623
13815WAT     H141687   7.805   5.358   4.547
13815WAT     H241688   7.953   5.414   4.589
13816WAT      O41689   2.185   2.374   7.735
13816WAT     H141690   2.233   2.342   7.816
13816WAT     H241691   2.136   2.298   7.692
13817WAT      O41692   3.268   7.398   2.807
13817WAT     H141693   3.279   7.316   2.750
13817WAT     H241694   3.241   7.371   2.899
13818WAT      O41695   3.477   5.056   1.612
13818WAT     H141696   3.509   5.088   1.701
13818WAT     H241697   3.440   4.963   1.621
13819WAT      O41698   0.856   0.323   7.929
13819WAT     H141699   0.819   0.373   8.007
13819WAT     H241700   0.781   0.284   7.877
13820WAT      O41701   0.367   1.030   1.001
13820WAT     H141702   0.335   1.121   1.027
13820WAT     H241703   0.298   0.962   1.028
13821WAT      O41704   5.177   5.472   4.649
13821WAT     H141705   5.186   5.388   4.594
13821WAT     H241706   5.267   5.514   4.660
13822WAT      O41707   4.604   0.694   5.012
13822WAT     H141708   4.569   0.766   4.952
13822WAT     H241709   4.704   0.693   5.007
13823WAT      O41710   9.490   7.066   1.719
13823WAT     H141711   9.588   7.060   1.738
13823WAT     H241712   9.446   6.980   1.742
13824WAT      O41713   6.378   6.040   4.938
13824WAT     H141714   6.434   6.028   4.856
13824WAT     H241715   6.332   6.129   4.934
13825WAT      O41716   7.017   8.462   4.439
13825WAT     H141717   7.073   8.526   4.492
13825WAT     H241718   6.998   8.381   4.494
13826WAT      O41719   3.255   4.345   3.160
13826WAT     H141720   3.155   4.353   3.167
13826WAT     H241721   3.281   4.349   3.063
13827WAT      O41722   4.869   2.447   5.087
13827WAT     H141723   4.897   2.412   5.176
13827WAT     H241724   4.874   2.374   5.019
13828WAT      O41725   1.392   2.877   6.560
13828WAT     H141726   1.421   2.923   6.476
13828WAT     H241727   1.375   2.945   6.631
13829WAT      O41728   0.148   5.993   3.067
13829WAT     H141729   0.125   5.949   3.154
13829WAT     H241730   0.068   6.040   3.032
13830WAT      O41731   2.795   3.301   2.792
13830WAT     H141732   2.891   3.286   2.815
13830WAT     H241733   2.746   3.214   2.793
13831WAT      O41734   6.006   9.506   2.486
13831WAT     H141735   6.096   9.515   2.529
13831WAT     H241736   5.936   9.537   2.550
13832WAT      O41737   7.143   7.735   5.624
13832WAT     H141738   7.141   7.635   5.615
13832WAT     H241739   7.189   7.775   5.545
13833WAT      O41740   8.924   8.593   8.772
13833WAT     H141741   8.873   8.664   8.822
13833WAT     H241742   8.889   8.503   8.799
13834WAT      O41743   3.264   1.328   9.544
13834WAT     H141744   3.261   1.403   9.609
13834WAT     H241745   3.186   1.267   9.558
13835WAT      O41746   3.515   2.286   4.815
13835WAT     H141747   3.575   2.335   4.752
13835WAT     H241748   3.570   2.241   4.886
13836WAT      O41749   1.958   3.751   1.503
13836WAT     H141750   2.046   3.716   1.472
13836WAT     H241751   1.893   3.676   1.513
13837WAT      O41752   7.762   2.816   6.466
13837WAT     H141753   7.727   2.731   6.507
13837WAT     H241754   7.855   2.800   6.431
13838WAT      O41755   6.207   6.755   1.058
13838WAT     H141756   6.167   6.837   1.099
13838WAT     H241757   6.135   6.696   1.022
13839WAT      O41758   1.916   7.478   1.211
13839WAT     H141759   1.825   7.508   1.185
13839WAT     H241760   1.973   7.558   1.231
13840WAT      O41761   1.021   5.850   9.457
13840WAT     H141762   1.011   5.771   9.397
13840WAT     H241763   1.063   5.925   9.406
13841WAT      O41764   3.184   3.088   7.103
13841WAT     H141765   3.133   3.141   7.171
13841WAT     H241766   3.181   2.991   7.128
13842WAT      O41767   1.273   6.295   6.278
13842WAT     H141768   1.175   6.285   6.298
13842WAT     H241769   1.326   6.257   6.354
13843WAT      O41770   4.701   4.338   1.312
13843WAT     H141771   4.678   4.304   1.403
13843WAT     H241772   4.618   4.366   1.265
13844WAT      O41773   5.644   9.576   5.589
13844WAT     H141774   5.606   9.668   5.600
13844WAT     H241775   5.741   9.583   5.565
13845WAT      O41776   5.882   4.239   1.522
13845WAT     H141777   5.926   4.178   1.456
13845WAT     H241778   5.830   4.309   1.473
13846WAT      O41779   7.449   8.770   2.407
13846WAT     H141780   7.526   8.746   2.348
13846WAT     H241781   7.481   8.777   2.502
13847WAT      O41782   6.063   7.913   9.485
13847WAT     H141783   6.081   7.929   9.582
13847WAT     H241784   5.994   7.841   9.475
13848WAT      O41785   6.171   1.161   5.725
13848WAT     H141786   6.258   1.192   5.761
13848WAT     H241787   6.173   1.062   5.711
13849WAT      O41788   5.215   0.617   9.060
13849WAT     H141789   5.303   0.649   9.028
13849WAT     H241790   5.220   0.519   9.081
13850WAT      O41791   1.803   7.760   4.766
13850WAT     H141792   1.829   7.781   4.861
13850WAT     H241793   1.712   7.796   4.749
13851WAT      O41794   6.654   2.010   7.320
13851WAT     H141795   6.620   1.947   7.250
13851WAT     H241796   6.721   1.963   7.378
13852WAT      O41797   4.911   4.050   4.553
13852WAT     H141798   4.953   4.126   4.504
13852WAT     H241799   4.940   3.964   4.513
13853WAT      O41800   6.735   2.070   2.827
13853WAT     H141801   6.658   2.124   2.794
13853WAT     H241802   6.766   2.106   2.915
13854WAT      O41803   9.027   5.378   9.650
13854WAT     H141804   9.098   5.308   9.650
13854WAT     H241805   8.967   5.365   9.730
13855WAT      O41806   6.808   9.114   2.134
13855WAT     H141807   6.904   9.141   2.126
13855WAT     H241808   6.770   9.099   2.043
13856WAT      O41809   8.564   0.229   9.756
13856WAT     H141810   8.519   0.243   9.668
13856WAT     H241811   8.587   0.318   9.796
13857WAT      O41812   1.333   8.383   1.576
13857WAT     H141813   1.432   8.366   1.574
13857WAT     H241814   1.294   8.361   1.487
13858WAT      O41815   3.668   8.803   8.580
13858WAT     H141816   3.581   8.761   8.554
13858WAT     H241817   3.722   8.739   8.634
13859WAT      O41818   1.171   2.908   8.980
13859WAT     H141819   1.075   2.917   9.008
13859WAT     H241820   1.229   2.907   9.061
13860WAT      O41821   9.481   8.168   0.269
13860WAT     H141822   9.455   8.252   0.315
13860WAT     H241823   9.410   8.098   0.283
13861WAT      O41824   7.566   6.909   4.823
13861WAT     H141825   7.636   6.895   4.893
13861WAT     H241826   7.607   6.953   4.743
13862WAT      O41827   5.591   5.595   1.229
13862WAT     H141828   5.677   5.647   1.228
13862WAT     H241829   5.515   5.656   1.209
13863WAT      O41830   1.139   1.443   0.167
13863WAT     H141831   1.136   1.347   0.137
13863WAT     H241832   1.074   1.497   0.113
13864WAT      O41833   5.089   6.059   4.809
13864WAT     H141834   5.143   6.026   4.732
13864WAT     H241835   5.036   6.139   4.781
13865WAT      O41836   4.944   7.801   3.120
13865WAT     H141837   4.957   7.723   3.181
13865WAT     H241838   4.846   7.823   3.114
13866WAT      O41839   5.698   8.464   3.752
13866WAT     H141840   5.743   8.382   3.717
13866WAT     H241841   5.762   8.516   3.809
13867WAT      O41842   0.866   1.597   0.758
13867WAT     H141843   0.902   1.684   0.791
13867WAT     H241844   0.848   1.536   0.836
13868WAT      O41845   7.786   0.998   9.567
13868WAT     H141846   7.805   0.984   9.664
13868WAT     H241847   7.769   1.096   9.550
13869WAT      O41848   2.605   2.932   9.413
13869WAT     H141849   2.629   2.949   9.318
13869WAT     H241850   2.651   2.999   9.471
13870WAT      O41851   9.672   0.037   1.629
13870WAT     H141852   9.654   0.129   1.595
13870WAT     H241853   9.589  -0.018   1.622
13871WAT      O41854   0.732   5.299   2.632
13871WAT     H141855   0.770   5.207   2.629
13871WAT     H241856   0.766   5.347   2.713
13872WAT      O41857   7.097   2.779   6.965
13872WAT     H141858   7.084   2.733   6.877
13872WAT     H241859   7.175   2.737   7.013
13873WAT      O41860   0.776   9.625   9.380
13873WAT     H141861   0.844   9.693   9.408
13873WAT     H241862   0.763   9.559   9.453
13874WAT      O41863   4.926   1.693   7.095
13874WAT     H141864   4.851   1.658   7.039
13874WAT     H241865   4.958   1.780   7.058
13875WAT      O41866   7.424   1.802   5.283
13875WAT     H141867   7.493   1.849   5.338
13875WAT     H241868   7.444   1.813   5.186
13876WAT      O41869   5.961   1.044   4.299
13876WAT     H141870   5.900   1.005   4.368
13876WAT     H241871   5.949   1.144   4.297
13877WAT      O41872   5.422   2.350   7.332
13877WAT     H141873   5.504   2.381   7.283
13877WAT     H241874   5.344   2.350   7.270
13878WAT      O41875   1.860   0.177   0.803
13878WAT     H141876   1.828   0.271   0.820
13878WAT     H241877   1.904   0.142   0.886
13879WAT      O41878   5.123   4.098   5.670
13879WAT     H141879   5.152   4.003   5.671
13879WAT     H241880   5.027   4.104   5.643
13880WAT      O41881   5.003   9.759   1.912
13880WAT     H141882   4.910   9.724   1.899
13880WAT     H241883   5.037   9.796   1.825
13881WAT      O41884   9.146   3.278   3.422
13881WAT     H141885   9.048   3.265   3.407
13881WAT     H241886   9.176   3.359   3.372
13882WAT      O41887   7.011   0.295   2.785
13882WAT     H141888   6.966   0.365   2.729
13882WAT     H241889   6.950   0.267   2.859
13883WAT      O41890   4.395   4.934   6.404
13883WAT     H141891   4.471   4.999   6.396
13883WAT     H241892   4.377   4.892   6.315
13884WAT      O41893   0.858   9.645   5.531
13884WAT     H141894   0.858   9.572   5.463
13884WAT     H241895   0.779   9.632   5.592
13885WAT      O41896   5.377   7.562   3.307
13885WAT     H141897   5.278   7.575   3.303
13885WAT     H241898   5.409   7.523   3.221
13886WAT      O41899   8.896   7.855   9.520
13886WAT     H141900   8.878   7.757   9.535
13886WAT     H241901   8.924   7.897   9.606
13887WAT      O41902   6.303   8.819   6.519
13887WAT     H141903   6.323   8.860   6.429
13887WAT     H241904   6.286   8.721   6.508
13888WAT      O41905   6.013   0.430   0.604
13888WAT     H141906   5.954   0.479   0.540
13888WAT     H241907   6.074   0.369   0.553
13889WAT      O41908   7.665   1.557   1.481
13889WAT     H141909   7.707   1.558   1.390
13889WAT     H241910   7.575   1.513   1.476
13890WAT      O41911   8.370   6.888   4.060
13890WAT     H141912   8.455   6.845   4.029
13890WAT     H241913   8.293   6.849   4.009
13891WAT      O41914   9.704   5.532   3.853
13891WAT     H141915   9.771   5.567   3.918
13891WAT     H241916   9.637   5.475   3.902
13892WAT      O41917   3.753   2.566   3.767
13892WAT     H141918   3.844   2.531   3.792
13892WAT     H241919   3.688   2.490   3.767
13893WAT      O41920   0.972   5.577   4.845
13893WAT     H141921   1.016   5.497   4.806
13893WAT     H241922   1.021   5.605   4.927
13894WAT      O41923   2.548   5.724   3.467
13894WAT     H141924   2.462   5.723   3.517
13894WAT     H241925   2.618   5.675   3.521
13895WAT      O41926   8.168   8.273   0.734
13895WAT     H141927   8.193   8.217   0.813
13895WAT     H241928   8.167   8.369   0.760
13896WAT      O41929   9.053   9.202   9.370
13896WAT     H141930   9.101   9.163   9.292
13896WAT     H241931   8.954   9.194   9.356
13897WAT      O41932   3.493   7.483   9.594
13897WAT     H141933   3.427   7.479   9.519
13897WAT     H241934   3.447   7.457   9.679
13898WAT      O41935   4.051   0.922   4.752
13898WAT     H141936   4.099   0.993   4.701
13898WAT     H241937   4.110   0.842   4.760
13899WAT      O41938   9.722   6.319   8.615
13899WAT     H141939   9.759   6.405   8.650
13899WAT     H241940   9.658   6.339   8.541
13900WAT      O41941   8.343   0.642   8.781
13900WAT     H141942   8.272   0.688   8.833
13900WAT     H241943   8.383   0.707   8.716
13901WAT      O41944   2.897   0.647   9.861
13901WAT     H141945   2.865   0.580   9.794
13901WAT     H241946   2.997   0.644   9.866
13902WAT      O41947   6.128   9.121   6.288
13902WAT     H141948   6.082   9.210   6.282
13902WAT     H241949   6.156   9.092   6.196
13903WAT      O41950   1.685   6.480   7.902
13903WAT     H141951   1.622   6.527   7.841
13903WAT     H241952   1.707   6.390   7.865
13904WAT      O41953   2.453   3.321   2.003
13904WAT     H141954   2.466   3.276   1.914
13904WAT     H241955   2.359   3.306   2.034
13905WAT      O41956   1.593   5.524   5.399
13905WAT     H141957   1.586   5.624   5.395
13905WAT     H241958   1.689   5.498   5.391
13906WAT      O41959   5.331   0.040   0.847
13906WAT     H141960   5.283   0.091   0.776
13906WAT     H241961   5.401   0.098   0.888
13907WAT      O41962   1.432   0.978   6.590
13907WAT     H141963   1.402   1.040   6.517
13907WAT     H241964   1.498   0.913   6.553
13908WAT      O41965   8.682   7.038   1.536
13908WAT     H141966   8.716   6.953   1.495
13908WAT     H241967   8.758   7.101   1.552
13909WAT      O41968   6.731   5.599   1.814
13909WAT     H141969   6.820   5.580   1.855
13909WAT     H241970   6.733   5.579   1.716
13910WAT      O41971   7.135   2.610   3.909
13910WAT     H141972   7.059   2.591   3.972
13910WAT     H241973   7.205   2.664   3.955
13911WAT      O41974   2.905   7.955   1.657
13911WAT     H141975   2.882   8.052   1.655
13911WAT     H241976   2.988   7.940   1.603
13912WAT      O41977   3.477   8.441   9.190
13912WAT     H141978   3.453   8.414   9.283
13912WAT     H241979   3.469   8.362   9.129
13913WAT      O41980   5.114   8.745   4.691
13913WAT     H141981   5.191   8.731   4.753
13913WAT     H241982   5.041   8.681   4.715
13914WAT      O41983   5.277   3.066   7.005
13914WAT     H141984   5.223   3.016   6.938
13914WAT     H241985   5.309   3.004   7.076
13915WAT      O41986   0.025   3.242   2.115
13915WAT     H141987   0.061   3.222   2.023
13915WAT     H241988  -0.058   3.297   2.107
13916WAT      O41989   3.133   7.409   8.753
13916WAT     H141990   3.049   7.382   8.800
13916WAT     H241991   3.198   7.447   8.818
13917WAT      O41992   1.789   2.369   4.428
13917WAT     H141993   1.779   2.360   4.527
13917WAT     H241994   1.884   2.387   4.405
13918WAT      O41995   8.485   4.185   7.713
13918WAT     H141996   8.430   4.268   7.711
13918WAT     H241997   8.541   4.184   7.795
13919WAT      O41998   2.159   6.707   3.729
13919WAT     H141999   2.218   6.757   3.666
13919WAT     H242000   2.187   6.727   3.823
13920WAT      O42001   7.095   7.356   8.702
13920WAT     H142002   7.047   7.299   8.769
13920WAT     H242003   7.138   7.297   8.633
13921WAT      O42004   6.524   0.726   5.136
13921WAT     H142005   6.491   0.820   5.134
13921WAT     H242006   6.591   0.713   5.063
13922WAT      O42007   7.948   1.520   0.560
13922WAT     H142008   7.967   1.439   0.616
13922WAT     H242009   7.914   1.593   0.619
13923WAT      O42010   2.900   5.404   5.512
13923WAT     H142011   2.927   5.497   5.537
13923WAT     H242012   2.822   5.376   5.568
13924WAT      O42013   0.894   2.916   3.402
13924WAT     H142014   0.971   2.900   3.340
13924WAT     H242015   0.864   3.011   3.395
13925WAT      O42016   1.391   4.822   0.541
13925WAT     H142017   1.393   4.908   0.489
13925WAT     H242018   1.336   4.754   0.492
13926WAT      O42019   9.576   8.270   1.959
13926WAT     H142020   9.659   8.277   2.014
13926WAT     H242021   9.599   8.281   1.862
13927WAT      O42022   9.079   4.631   4.211
13927WAT     H142023   9.036   4.719   4.192
13927WAT     H242024   9.018   4.557   4.181
13928WAT      O42025   7.911   0.213   5.428
13928WAT     H142026   7.832   0.248   5.479
13928WAT     H242027   7.882   0.135   5.372
13929WAT      O42028   9.424   3.325   4.579
13929WAT     H142029   9.416   3.298   4.675
13929WAT     H242030   9.416   3.244   4.521
13930WAT      O42031   5.976   5.381   0.491
13930WAT     H142032   5.895   5.323   0.495
13930WAT     H242033   5.963   5.461   0.549
13931WAT      O42034   9.394   7.528   5.185
13931WAT     H142035   9.484   7.566   5.205
13931WAT     H242036   9.324   7.596   5.208
13932WAT      O42037   6.540   9.735   1.133
13932WAT     H142038   6.598   9.777   1.203
13932WAT     H242039   6.596   9.712   1.053
13933WAT      O42040   5.962   2.678   7.000
13933WAT     H142041   5.935   2.583   7.015
13933WAT     H242042   6.035   2.703   7.064
13934WAT      O42043   7.341   7.602   2.935
13934WAT     H142044   7.294   7.635   2.853
13934WAT     H242045   7.286   7.620   3.016
13935WAT      O42046   5.665   3.152   6.807
13935WAT     H142047   5.706   3.224   6.862
13935WAT     H242048   5.737   3.103   6.757
13936WAT      O42049   2.522   0.507   9.593
13936WAT     H142050   2.470   0.438   9.645
13936WAT     H242051   2.469   0.536   9.514
13937WAT      O42052   3.918   3.747   9.405
13937WAT     H142053   3.823   3.731   9.431
13937WAT     H242054   3.945   3.681   9.335
13938WAT      O42055   4.960   8.295   1.450
13938WAT     H142056   4.946   8.293   1.351
13938WAT     H242057   4.896   8.361   1.491
13939WAT      O42058   5.055   1.384   7.337
13939WAT     H142059   5.042   1.374   7.436
13939WAT     H242060   5.007   1.310   7.290
13940WAT      O42061   0.659   5.069   0.813
13940WAT     H142062   0.697   5.057   0.905
13940WAT     H242063   0.618   4.982   0.783
13941WAT      O42064   7.390   7.491   8.053
13941WAT     H142065   7.398   7.489   8.153
13941WAT     H242066   7.308   7.441   8.026
13942WAT      O42067   5.885   5.121   3.965
13942WAT     H142068   5.963   5.063   3.988
13942WAT     H242069   5.904   5.215   3.993
13943WAT      O42070   0.971   2.692   2.089
13943WAT     H142071   1.053   2.747   2.104
13943WAT     H242072   0.942   2.651   2.176
13944WAT      O42073   5.217   3.528   3.339
13944WAT     H142074   5.249   3.576   3.257
13944WAT     H242075   5.117   3.525   3.340
13945WAT      O42076   0.049   1.411   8.604
13945WAT     H142077   0.067   1.508   8.623
13945WAT     H242078   0.068   1.392   8.508
13946WAT      O42079   8.182   9.314   0.322
13946WAT     H142080   8.189   9.372   0.242
13946WAT     H242081   8.272   9.304   0.365
13947WAT      O42082   0.805   1.175   2.439
13947WAT     H142083   0.804   1.274   2.450
13947WAT     H242084   0.756   1.133   2.515
13948WAT      O42085   1.662   5.279   7.594
13948WAT     H142086   1.602   5.214   7.546
13948WAT     H242087   1.748   5.234   7.617
13949WAT      O42088   5.260   0.618   6.818
13949WAT     H142089   5.190   0.599   6.749
13949WAT     H242090   5.280   0.716   6.818
13950WAT      O42091   9.084   4.040   3.327
13950WAT     H142092   9.052   4.132   3.352
13950WAT     H242093   9.117   4.041   3.233
13951WAT      O42094   8.687   1.421   4.846
13951WAT     H142095   8.647   1.368   4.772
13951WAT     H242096   8.697   1.517   4.817
13952WAT      O42097   5.304   4.272   6.132
13952WAT     H142098   5.350   4.190   6.167
13952WAT     H242099   5.313   4.275   6.033
13953WAT      O42100   7.041   6.499   1.854
13953WAT     H142101   7.091   6.585   1.869
13953WAT     H242102   7.088   6.445   1.784
13954WAT      O42103   3.949   7.385   9.859
13954WAT     H142104   3.950   7.436   9.773
13954WAT     H242105   3.933   7.288   9.840
13955WAT      O42106   4.282   3.076   0.219
13955WAT     H142107   4.260   2.990   0.174
13955WAT     H242108   4.259   3.153   0.159
13956WAT      O42109   5.302   2.362   2.880
13956WAT     H142110   5.302   2.456   2.845
13956WAT     H242111   5.218   2.346   2.932
13957WAT      O42112   7.530   7.456   3.950
13957WAT     H142113   7.430   7.462   3.950
13957WAT     H242114   7.564   7.475   4.042
13958WAT      O42115   8.637   6.477   8.077
13958WAT     H142116   8.590   6.511   7.996
13958WAT     H242117   8.627   6.377   8.082
13959WAT      O42118   4.703   1.983   9.271
13959WAT     H142119   4.653   2.008   9.354
13959WAT     H242120   4.701   1.883   9.260
13960WAT      O42121   0.114   7.449   4.878
13960WAT     H142122   0.055   7.523   4.847
13960WAT     H242123   0.190   7.438   4.814
13961WAT      O42124   0.045   9.070   3.000
13961WAT     H142125  -0.011   9.151   2.981
13961WAT     H242126  -0.006   8.988   2.974
13962WAT      O42127   4.010   6.711   0.382
13962WAT     H142128   4.100   6.753   0.393
13962WAT     H242129   4.021   6.613   0.363
13963WAT      O42130   2.585   4.371   1.967
13963WAT     H142131   2.621   4.415   1.884
13963WAT     H242132   2.535   4.438   2.022
13964WAT      O42133   4.859   5.487   2.975
13964WAT     H142134   4.849   5.390   2.953
13964WAT     H242135   4.770   5.532   2.966
13965WAT      O42136   8.936   4.894   8.060
13965WAT     H142137   8.838   4.911   8.061
13965WAT     H242138   8.955   4.804   8.098
13966WAT      O42139   7.870   5.268   0.022
13966WAT     H142140   7.945   5.236  -0.037
13966WAT     H242141   7.883   5.232   0.115
13967WAT      O42142   8.245   3.230   7.494
13967WAT     H142143   8.311   3.157   7.475
13967WAT     H242144   8.275   3.314   7.449
13968WAT      O42145   3.272   2.992   5.543
13968WAT     H142146   3.330   3.073   5.538
13968WAT     H242147   3.330   2.911   5.558
13969WAT      O42148   1.435   7.496   4.409
13969WAT     H142149   1.497   7.425   4.443
13969WAT     H242150   1.488   7.575   4.379
13970WAT      O42151   1.960   5.840   2.279
13970WAT     H142152   2.039   5.891   2.313
13970WAT     H242153   1.909   5.803   2.357
13971WAT      O42154   1.185   7.136   7.261
13971WAT     H142155   1.231   7.141   7.349
13971WAT     H242156   1.087   7.120   7.274
13972WAT      O42157   3.498   8.026   1.086
13972WAT     H142158   3.525   8.120   1.065
13972WAT     H242159   3.419   8.028   1.147
13973WAT      O42160   6.699   6.119   5.046
13973WAT     H142161   6.739   6.201   5.088
13973WAT     H242162   6.620   6.090   5.101
13974WAT      O42163   3.563   2.753   3.403
13974WAT     H142164   3.586   2.781   3.309
13974WAT     H242165   3.535   2.657   3.403
13975WAT      O42166   2.663   0.527   2.469
13975WAT     H142167   2.601   0.536   2.547
13975WAT     H242168   2.691   0.431   2.459
13976WAT      O42169   3.283   4.600   3.279
13976WAT     H142170   3.306   4.510   3.245
13976WAT     H242171   3.188   4.600   3.312
13977WAT      O42172   7.926   7.625   9.741
13977WAT     H142173   7.946   7.702   9.680
13977WAT     H242174   7.842   7.644   9.791
13978WAT      O42175   3.165   6.879   1.997
13978WAT     H142176   3.149   6.915   1.906
13978WAT     H242177   3.084   6.895   2.054
13979WAT      O42178   6.122   2.316   2.692
13979WAT     H142179   6.048   2.300   2.757
13979WAT     H242180   6.086   2.358   2.609
13980WAT      O42181   3.691   1.836   1.782
13980WAT     H142182   3.681   1.881   1.694
13980WAT     H242183   3.649   1.891   1.853
13981WAT      O42184   5.598   5.213   0.863
13981WAT     H142185   5.570   5.142   0.927
13981WAT     H242186   5.623   5.296   0.915
13982WAT      O42187   2.889   4.804   6.706
13982WAT     H142188   2.897   4.733   6.776
13982WAT     H242189   2.804   4.791   6.655
13983WAT      O42190   2.883   8.327   7.180
13983WAT     H142191   2.978   8.336   7.212
13983WAT     H242192   2.874   8.243   7.127
13984WAT      O42193   3.720   2.458   9.556
13984WAT     H142194   3.633   2.456   9.506
13984WAT     H242195   3.724   2.541   9.613
13985WAT      O42196   3.421   0.584   1.990
13985WAT     H142197   3.520   0.571   1.993
13985WAT     H242198   3.382   0.527   1.918
13986WAT      O42199   6.943   3.791   5.949
13986WAT     H142200   6.849   3.827   5.952
13986WAT     H242201   7.006   3.861   5.982
13987WAT      O42202   4.590   9.629   0.422
13987WAT     H142203   4.610   9.660   0.329
13987WAT     H242204   4.525   9.692   0.464
13988WAT      O42205   2.674   8.921   8.029
13988WAT     H142206   2.663   8.887   7.935
13988WAT     H242207   2.629   8.859   8.092
13989WAT      O42208   4.576   6.854   5.409
13989WAT     H142209   4.651   6.918   5.424
13989WAT     H242210   4.612   6.761   5.403
13990WAT      O42211   5.404   2.174   9.238
13990WAT     H142212   5.381   2.246   9.304
13990WAT     H242213   5.498   2.142   9.255
13991WAT      O42214   2.577   5.218   2.029
13991WAT     H142215   2.492   5.166   2.030
13991WAT     H242216   2.558   5.313   2.056
13992WAT      O42217   1.440   7.710   3.476
13992WAT     H142218   1.431   7.753   3.386
13992WAT     H242219   1.520   7.651   3.477
13993WAT      O42220   2.330   4.500   9.169
13993WAT     H142221   2.422   4.505   9.208
13993WAT     H242222   2.285   4.416   9.198
13994WAT      O42223   1.561   4.122   6.351
13994WAT     H142224   1.568   4.139   6.253
13994WAT     H242225   1.495   4.185   6.392
13995WAT      O42226   5.124   9.306   2.945
13995WAT     H142227   5.125   9.362   2.862
13995WAT     H242228   5.070   9.352   3.016
13996WAT      O42229   7.052   3.639   6.484
13996WAT     H142230   6.995   3.689   6.419
13996WAT     H242231   7.130   3.696   6.510
13997WAT      O42232   8.212   0.078   9.015
13997WAT     H142233   8.120   0.088   8.977
13997WAT     H242234   8.267   0.157   8.989
13998WAT      O42235   7.803   0.249   1.801
13998WAT     H142236   7.804   0.194   1.885
13998WAT     H242237   7.830   0.191   1.724
13999WAT      O42238   2.095   9.434   0.321
13999WAT     H142239   2.108   9.448   0.419
13999WAT     H242240   2.180   9.401   0.280
14000WAT      O42241   2.349   3.770   2.418
14000WAT     H142242   2.281   3.834   2.455
14000WAT     H242243   2.368   3.699   2.486
14001WAT      O42244   8.034   1.628   4.958
14001WAT     H142245   7.977   1.710   4.952
14001WAT     H242246   8.069   1.605   4.867
14002WAT      O42247   0.203   2.103   2.926
14002WAT     H142248   0.270   2.055   2.983
14002WAT     H242249   0.209   2.070   2.832
14003WAT      O42250   0.525   7.528   8.097
14003WAT     H142251   0.543   7.593   8.024
14003WAT     H242252   0.578   7.444   8.081
14004WAT      O42253   9.472   3.639   6.446
14004WAT     H142254   9.565   3.676   6.445
14004WAT     H242255   9.408   3.707   6.411
14005WAT      O42256   7.664   4.692   1.284
14005WAT     H142257   7.700   4.661   1.372
14005WAT     H242258   7.590   4.631   1.255
14006WAT      O42259   0.423   5.981   5.939
14006WAT     H142260   0.493   5.920   5.903
14006WAT     H242261   0.362   5.929   5.999
14007WAT      O42262   8.013   6.182   3.105
14007WAT     H142263   7.956   6.224   3.175
14007WAT     H242264   8.110   6.194   3.129
14008WAT      O42265   9.348   8.171   7.813
14008WAT     H142266   9.317   8.146   7.905
14008WAT     H242267   9.304   8.111   7.746
14009WAT      O42268   2.677   6.142   0.283
14009WAT     H142269   2.718   6.232   0.272
14009WAT     H242270   2.750   6.073   0.291
14010WAT      O42271   6.517   4.875   0.288
14010WAT     H142272   6.527   4.899   0.384
14010WAT     H242273   6.542   4.953   0.231
14011WAT      O42274   2.509   8.448   5.830
14011WAT     H142275   2.601   8.422   5.857
14011WAT     H242276   2.507   8.545   5.805
14012WAT      O42277   8.608   5.154   9.669
14012WAT     H142278   8.691   5.098   9.671
14012WAT     H242279   8.580   5.176   9.763
14013WAT      O42280   4.794   7.302   3.109
14013WAT     H142281   4.805   7.359   3.028
14013WAT     H242282   4.836   7.213   3.094
14014WAT      O42283   2.379   2.241   8.190
14014WAT     H142284   2.305   2.244   8.258
14014WAT     H242285   2.437   2.322   8.200
14015WAT      O42286   9.505   4.185   7.046
14015WAT     H142287   9.511   4.161   7.143
14015WAT     H242288   9.594   4.171   7.003
14016WAT      O42289   5.655   8.730   6.590
14016WAT     H142290   5.634   8.639   6.555
14016WAT     H242291   5.584   8.758   6.655
14017WAT      O42292   3.342   4.979   8.511
14017WAT     H142293   3.283   4.917   8.459
14017WAT     H242294   3.306   5.072   8.505
14018WAT      O42295   7.400   9.449   0.379
14018WAT     H142296   7.334   9.405   0.440
14018WAT     H242297   7.367   9.540   0.354
14019WAT      O42298   8.622   1.137   7.688
14019WAT     H142299   8.607   1.063   7.621
14019WAT     H242300   8.665   1.100   7.770
14020WAT      O42301   0.888   0.871   6.622
14020WAT     H142302   0.942   0.856   6.705
14020WAT     H242303   0.948   0.869   6.543
14021WAT      O42304   7.249   0.826   5.437
14021WAT     H142305   7.164   0.779   5.415
14021WAT     H242306   7.250   0.917   5.395
14022WAT      O42307   5.953   3.350   3.124
14022WAT     H142308   5.975   3.391   3.035
14022WAT     H242309   5.936   3.423   3.191
14023WAT      O42310   0.948   3.842   5.067
14023WAT     H142311   0.915   3.923   5.019
14023WAT     H242312   0.911   3.760   5.022
14024WAT      O42313   6.771   8.581   4.725
14024WAT     H142314   6.679   8.616   4.745
14024WAT     H242315   6.776   8.484   4.750
14025WAT      O42316   4.269   8.541   6.073
14025WAT     H142317   4.252   8.639   6.061
14025WAT     H242318   4.231   8.491   5.995
14026WAT      O42319   0.807   1.679   7.673
14026WAT     H142320   0.810   1.777   7.693
14026WAT     H242321   0.714   1.653   7.647
14027WAT      O42322   3.605   1.875   6.355
14027WAT     H142323   3.645   1.938   6.288
14027WAT     H242324   3.560   1.927   6.427
14028WAT      O42325   0.185   5.854   4.220
14028WAT     H142326   0.146   5.900   4.140
14028WAT     H242327   0.281   5.831   4.201
14029WAT      O42328   9.076   6.923   5.650
14029WAT     H142329   9.103   6.974   5.732
14029WAT     H242330   9.104   6.973   5.568
14030WAT      O42331   9.135   3.391   4.556
14030WAT     H142332   9.082   3.361   4.636
14030WAT     H242333   9.232   3.390   4.579
14031WAT      O42334   0.933   0.600   9.361
14031WAT     H142335   0.862   0.670   9.373
14031WAT     H242336   0.895   0.510   9.384
14032WAT      O42337   6.675   2.166   4.550
14032WAT     H142338   6.691   2.253   4.503
14032WAT     H242339   6.744   2.100   4.521
14033WAT      O42340   9.390   5.507   8.749
14033WAT     H142341   9.297   5.541   8.742
14033WAT     H242342   9.437   5.552   8.825
14034WAT      O42343   2.794   4.509   3.245
14034WAT     H142344   2.741   4.427   3.267
14034WAT     H242345   2.757   4.587   3.295
14035WAT      O42346   0.706   9.804   5.094
14035WAT     H142347   0.642   9.750   5.039
14035WAT     H242348   0.667   9.816   5.186
14036WAT      O42349   2.457   8.666   1.065
14036WAT     H142350   2.553   8.663   1.037
14036WAT     H242351   2.437   8.588   1.125
14037WAT      O42352   4.818   5.484   9.378
14037WAT     H142353   4.901   5.502   9.431
14037WAT     H242354   4.765   5.413   9.424
14038WAT      O42355   5.029   8.501   1.101
14038WAT     H142356   4.966   8.576   1.119
14038WAT     H242357   5.071   8.514   1.011
14039WAT      O42358   5.328   6.209   7.034
14039WAT     H142359   5.341   6.290   7.091
14039WAT     H242360   5.414   6.159   7.028
14040WAT      O42361   3.855   5.677   9.654
14040WAT     H142362   3.834   5.634   9.566
14040WAT     H242363   3.848   5.777   9.645
14041WAT      O42364   4.294   5.095   9.035
14041WAT     H142365   4.249   5.174   9.077
14041WAT     H242366   4.378   5.124   8.991
14042WAT      O42367   3.952   5.386   9.313
14042WAT     H142368   4.001   5.307   9.277
14042WAT     H242369   3.853   5.372   9.303
14043WAT      O42370   3.823   8.757   3.255
14043WAT     H142371   3.854   8.709   3.173
14043WAT     H242372   3.885   8.833   3.276
14044WAT      O42373   5.788   3.274   0.418
14044WAT     H142374   5.710   3.272   0.482
14044WAT     H242375   5.754   3.264   0.325
14045WAT      O42376   1.730   3.613   8.732
14045WAT     H142377   1.652   3.644   8.786
14045WAT     H242378   1.749   3.679   8.660
14046WAT      O42379   7.205   1.743   9.367
14046WAT     H142380   7.220   1.704   9.276
14046WAT     H242381   7.201   1.669   9.434
14047WAT      O42382   1.509   8.945   2.735
14047WAT     H142383   1.543   8.901   2.652
14047WAT     H242384   1.555   8.907   2.815
14048WAT      O42385   8.767   7.952   5.638
14048WAT     H142386   8.787   7.993   5.727
14048WAT     H242387   8.695   8.005   5.592
14049WAT      O42388   7.928   0.334   8.670
14049WAT     H142389   7.920   0.380   8.581
14049WAT     H242390   7.848   0.276   8.685
14050WAT      O42391   7.226   3.509   0.281
14050WAT     H142392   7.255   3.561   0.201
14050WAT     H242393   7.254   3.558   0.364
14051WAT      O42394   5.731   9.295   7.665
14051WAT     H142395   5.692   9.327   7.751
14051WAT     H242396   5.658   9.277   7.599
14052WAT      O42397   9.218   4.076   8.194
14052WAT     H142398   9.242   4.023   8.275
14052WAT     H242399   9.301   4.106   8.147
14053WAT      O42400   3.441   7.839   2.797
14053WAT     H142401   3.427   7.805   2.704
14053WAT     H242402   3.522   7.796   2.836
14054WAT      O42403   9.133   6.870   3.407
14054WAT     H142404   9.080   6.936   3.354
14054WAT     H242405   9.098   6.868   3.501
14055WAT      O42406   5.549   9.430   9.741
14055WAT     H142407   5.572   9.524   9.717
14055WAT     H242408   5.464   9.403   9.697
14056WAT      O42409   5.378   9.393   6.783
14056WAT     H142410   5.395   9.425   6.877
14056WAT     H242411   5.322   9.310   6.786
14057WAT      O42412   6.817   9.752   0.383
14057WAT     H142413   6.862   9.673   0.340
14057WAT     H242414   6.740   9.780   0.326
14058WAT      O42415   0.334   4.098   5.924
14058WAT     H142416   0.286   4.016   5.954
14058WAT     H242417   0.433   4.082   5.929
14059WAT      O42418   1.579   3.931   5.296
14059WAT     H142419   1.482   3.927   5.320
14059WAT     H242420   1.634   3.893   5.370
14060WAT      O42421   5.544   9.762   6.387
14060WAT     H142422   5.606   9.817   6.331
14060WAT     H242423   5.566   9.774   6.484
14061WAT      O42424   5.219   4.236   0.995
14061WAT     H142425   5.143   4.186   0.953
14061WAT     H242426   5.203   4.334   0.986
14062WAT      O42427   4.099   4.335   1.601
14062WAT     H142428   4.068   4.267   1.668
14062WAT     H242429   4.060   4.424   1.622
14063WAT      O42430   1.773   8.832   9.066
14063WAT     H142431   1.737   8.796   8.980
14063WAT     H242432   1.799   8.928   9.054
14064WAT      O42433   1.070   0.682   8.189
14064WAT     H142434   1.143   0.615   8.175
14064WAT     H242435   1.086   0.731   8.274
14065WAT      O42436   7.188   2.645   9.379
14065WAT     H142437   7.269   2.594   9.347
14065WAT     H242438   7.217   2.719   9.439
14066WAT      O42439   8.704   7.680   5.625
14066WAT     H142440   8.737   7.775   5.626
14066WAT     H242441   8.698   7.647   5.719
14067WAT      O42442   3.174   7.547   8.503
14067WAT     H142443   3.118   7.629   8.492
14067WAT     H242444   3.153   7.504   8.591
14068WAT      O42445   5.308   2.919   5.246
14068WAT     H142446   5.299   2.828   5.285
14068WAT     H242447   5.337   2.912   5.150
14069WAT      O42448   3.576   2.287   5.577
14069WAT     H142449   3.663   2.237   5.572
14069WAT     H242450   3.554   2.307   5.673
14070WAT      O42451   5.479   2.214   8.536
14070WAT     H142452   5.381   2.230   8.546
14070WAT     H242453   5.512   2.161   8.614
14071WAT      O42454   2.380   9.654   5.764
14071WAT     H142455   2.467   9.625   5.804
14071WAT     H242456   2.396   9.688   5.671
14072WAT      O42457   2.439   2.509   5.793
14072WAT     H142458   2.439   2.549   5.701
14072WAT     H242459   2.428   2.410   5.786
14073WAT      O42460   2.467   2.260   5.965
14073WAT     H142461   2.472   2.163   5.992
14073WAT     H242462   2.393   2.304   6.016
14074WAT      O42463   6.125   3.955   0.916
14074WAT     H142464   6.047   3.892   0.916
14074WAT     H242465   6.092   4.049   0.911
14075WAT      O42466   6.945   1.091   0.773
14075WAT     H142467   7.011   1.166   0.771
14075WAT     H242468   6.984   1.012   0.724
14076WAT      O42469   8.727   3.745   9.549
14076WAT     H142470   8.820   3.777   9.534
14076WAT     H242471   8.689   3.788   9.631
14077WAT      O42472   0.553   4.438   5.472
14077WAT     H142473   0.574   4.366   5.406
14077WAT     H242474   0.616   4.515   5.459
14078WAT      O42475   9.492   1.956   5.877
14078WAT     H142476   9.397   1.930   5.895
14078WAT     H242477   9.503   2.054   5.894
14079WAT      O42478   3.383   2.320   4.228
14079WAT     H142479   3.364   2.256   4.302
14079WAT     H242480   3.305   2.383   4.218
14080WAT      O42481   8.098   1.026   0.430
14080WAT     H142482   8.124   0.944   0.481
14080WAT     H242483   8.092   1.104   0.493
14081WAT      O42484   3.199   6.481   3.199
14081WAT     H142485   3.123   6.518   3.254
14081WAT     H242486   3.234   6.552   3.138
14082WAT      O42487   2.335   6.648   0.934
14082WAT     H142488   2.255   6.654   0.994
14082WAT     H242489   2.364   6.739   0.907
14083WAT      O42490   3.578   1.617   2.831
14083WAT     H142491   3.491   1.631   2.877
14083WAT     H242492   3.652   1.613   2.898
14084WAT      O42493   5.545   3.956   8.288
14084WAT     H142494   5.514   4.045   8.255
14084WAT     H242495   5.641   3.961   8.315
14085WAT      O42496   2.636   7.033   4.927
14085WAT     H142497   2.593   6.950   4.891
14085WAT     H242498   2.696   7.072   4.857
14086WAT      O42499   6.700   1.234   1.366
14086WAT     H142500   6.766   1.272   1.430
14086WAT     H242501   6.721   1.266   1.273
14087WAT      O42502   7.460   1.262   9.728
14087WAT     H142503   7.507   1.221   9.651
14087WAT     H242504   7.504   1.232   9.813
14088WAT      O42505   6.482   9.595   1.860
14088WAT     H142506   6.575   9.561   1.843
14088WAT     H242507   6.465   9.675   1.802
14089WAT      O42508   7.993   5.010   4.395
14089WAT     H142509   8.077   4.955   4.398
14089WAT     H242510   8.018   5.107   4.394
14090WAT      O42511   8.214   8.310   4.262
14090WAT     H142512   8.183   8.248   4.334
14090WAT     H242513   8.144   8.380   4.247
14091WAT      O42514   5.846   5.178   8.348
14091WAT     H142515   5.925   5.122   8.322
14091WAT     H242516   5.872   5.236   8.426
14092WAT      O42517   6.054   8.108   8.523
14092WAT     H142518   6.134   8.057   8.552
14092WAT     H242519   6.077   8.206   8.519
14093WAT      O42520   2.536   9.022   8.678
14093WAT     H142521   2.509   8.937   8.722
14093WAT     H242522   2.504   9.022   8.583
14094WAT      O42523   1.586   1.055   6.159
14094WAT     H142524   1.667   0.996   6.152
14094WAT     H242525   1.505   0.998   6.174
14095WAT      O42526   7.605   6.740   5.671
14095WAT     H142527   7.539   6.791   5.726
14095WAT     H242528   7.674   6.699   5.730
14096WAT      O42529   0.006   9.447   7.667
14096WAT     H142530   0.095   9.474   7.631
14096WAT     H242531  -0.059   9.522   7.652
14097WAT      O42532   2.758   7.209   7.273
14097WAT     H142533   2.748   7.265   7.190
14097WAT     H242534   2.724   7.117   7.254
14098WAT      O42535   6.247   8.891   0.852
14098WAT     H142536   6.285   8.814   0.903
14098WAT     H242537   6.231   8.864   0.758
14099WAT      O42538   3.861   7.649   8.777
14099WAT     H142539   3.765   7.623   8.788
14099WAT     H242540   3.909   7.637   8.863
14100WAT      O42541   4.758   0.438   3.524
14100WAT     H142542   4.795   0.356   3.482
14100WAT     H242543   4.670   0.417   3.567
14101WAT      O42544   8.523   3.820   8.978
14101WAT     H142545   8.592   3.767   8.929
14101WAT     H242546   8.433   3.777   8.967
14102WAT      O42547   5.112   2.632   9.650
14102WAT     H142548   5.030   2.613   9.704
14102WAT     H242549   5.099   2.598   9.557
14103WAT      O42550   4.360   2.857   0.042
14103WAT     H142551   4.451   2.816   0.037
14103WAT     H242552   4.290   2.787   0.029
14104WAT      O42553   9.326   4.440   1.654
14104WAT     H142554   9.399   4.462   1.718
14104WAT     H242555   9.250   4.397   1.703
14105WAT      O42556   2.028   8.324   9.818
14105WAT     H142557   2.111   8.379   9.815
14105WAT     H242558   1.990   8.314   9.726
14106WAT      O42559   4.718   9.799   2.269
14106WAT     H142560   4.754   9.744   2.194
14106WAT     H242561   4.743   9.758   2.356
14107WAT      O42562   8.329   1.654   2.330
14107WAT     H142563   8.245   1.674   2.380
14107WAT     H242564   8.332   1.710   2.246
14108WAT      O42565   1.899   0.305   7.611
14108WAT     H142566   1.939   0.356   7.536
14108WAT     H242567   1.960   0.309   7.690
14109WAT      O42568   0.116   4.973   3.704
14109WAT     H142569   0.192   4.909   3.702
14109WAT     H242570   0.119   5.033   3.624
14110WAT      O42571   5.956   0.053   1.544
14110WAT     H142572   6.038   0.090   1.501
14110WAT     H242573   5.881   0.118   1.535
14111WAT      O42574   4.656   4.605   1.810
14111WAT     H142575   4.652   4.633   1.906
14111WAT     H242576   4.651   4.505   1.804
14112WAT      O42577   9.231   3.391   3.741
14112WAT     H142578   9.301   3.392   3.669
14112WAT     H242579   9.144   3.363   3.703
14113WAT      O42580   6.550   9.398   6.537
14113WAT     H142581   6.495   9.441   6.608
14113WAT     H242582   6.544   9.451   6.452
14114WAT      O42583   6.237   0.894   1.147
14114WAT     H142584   6.218   0.847   1.060
14114WAT     H242585   6.151   0.911   1.195
14115WAT      O42586   4.847   1.049   6.950
14115WAT     H142587   4.802   1.031   7.037
14115WAT     H242588   4.784   1.098   6.890
14116WAT      O42589   9.055   2.688   4.974
14116WAT     H142590   9.047   2.597   5.015
14116WAT     H242591   9.095   2.751   5.040
14117WAT      O42592   3.033   7.956   8.173
14117WAT     H142593   2.963   7.895   8.207
14117WAT     H242594   2.990   8.041   8.140
14118WAT      O42595   7.463   8.948   9.503
14118WAT     H142596   7.538   9.014   9.507
14118WAT     H242597   7.452   8.904   9.593
14119WAT      O42598   8.698   3.694   6.807
14119WAT     H142599   8.771   3.626   6.805
14119WAT     H242600   8.728   3.776   6.758
14120WAT      O42601   0.536   8.059   6.353
14120WAT     H142602   0.590   8.021   6.277
14120WAT     H242603   0.483   8.137   6.321
14121WAT      O42604   0.545   9.559   6.551
14121WAT     H142605   0.510   9.519   6.466
14121WAT     H242606   0.475   9.550   6.622
14122WAT      O42607   0.809   3.072   8.435
14122WAT     H142608   0.874   3.135   8.392
14122WAT     H242609   0.807   3.088   8.533
14123WAT      O42610   7.655   7.808   2.326
14123WAT     H142611   7.670   7.842   2.419
14123WAT     H242612   7.742   7.776   2.288
14124WAT      O42613   9.572   8.786   0.800
14124WAT     H142614   9.596   8.756   0.707
14124WAT     H242615   9.472   8.785   0.810
14125WAT      O42616   1.203   6.614   5.649
14125WAT     H142617   1.223   6.528   5.603
14125WAT     H242618   1.108   6.614   5.681
14126WAT      O42619   0.128   7.632   6.553
14126WAT     H142620   0.148   7.676   6.465
14126WAT     H242621   0.100   7.702   6.619
14127WAT      O42622   9.240   1.298   4.130
14127WAT     H142623   9.167   1.301   4.198
14127WAT     H242624   9.315   1.359   4.159
14128WAT      O42625   3.500   5.695   9.178
14128WAT     H142626   3.590   5.682   9.136
14128WAT     H242627   3.496   5.785   9.221
14129WAT      O42628   6.112   2.502   3.340
14129WAT     H142629   6.148   2.415   3.373
14129WAT     H242630   6.188   2.558   3.305
14130WAT      O42631   7.310   0.943   2.785
14130WAT     H142632   7.378   0.974   2.718
14130WAT     H242633   7.267   1.023   2.827
14131WAT      O42634   5.520   2.065   7.944
14131WAT     H142635   5.554   2.008   8.019
14131WAT     H242636   5.485   2.151   7.981
14132WAT      O42637   0.306   7.206   4.901
14132WAT     H142638   0.217   7.187   4.858
14132WAT     H242639   0.295   7.207   5.000
14133WAT      O42640   9.712   5.736   6.171
14133WAT     H142641   9.721   5.636   6.165
14133WAT     H242642   9.704   5.763   6.267
14134WAT      O42643   4.467   9.612   1.949
14134WAT     H142644   4.432   9.608   2.043
14134WAT     H242645   4.513   9.526   1.927
14135WAT      O42646   5.399   6.035   3.428
14135WAT     H142647   5.423   6.129   3.451
14135WAT     H242648   5.463   5.972   3.471
14136WAT      O42649   2.083   8.152   2.540
14136WAT     H142650   2.031   8.178   2.621
14136WAT     H242651   2.122   8.234   2.498
14137WAT      O42652   8.105   4.080   1.631
14137WAT     H142653   8.040   4.098   1.704
14137WAT     H242654   8.058   4.036   1.554
14138WAT      O42655   5.178   3.838   3.766
14138WAT     H142656   5.186   3.862   3.863
14138WAT     H242657   5.234   3.900   3.711
14139WAT      O42658   3.505   3.197   2.713
14139WAT     H142659   3.502   3.285   2.666
14139WAT     H242660   3.564   3.135   2.662
14140WAT      O42661   0.620   4.605   6.490
14140WAT     H142662   0.648   4.546   6.566
14140WAT     H242663   0.674   4.583   6.409
14141WAT      O42664   6.349   3.765   2.356
14141WAT     H142665   6.389   3.690   2.304
14141WAT     H242666   6.417   3.837   2.370
14142WAT      O42667   8.534   9.240   5.022
14142WAT     H142668   8.625   9.254   4.983
14142WAT     H242669   8.465   9.262   4.954
14143WAT      O42670   2.449   7.873   5.562
14143WAT     H142671   2.408   7.878   5.471
14143WAT     H242672   2.391   7.922   5.627
14144WAT      O42673   3.662   0.590   4.323
14144WAT     H142674   3.674   0.680   4.281
14144WAT     H242675   3.617   0.528   4.259
14145WAT      O42676   4.817   1.473   5.905
14145WAT     H142677   4.740   1.426   5.948
14145WAT     H242678   4.847   1.422   5.825
14146WAT      O42679   8.646   7.032   9.421
14146WAT     H142680   8.736   6.993   9.402
14146WAT     H242681   8.653   7.131   9.423
14147WAT      O42682   5.894   4.406   1.096
14147WAT     H142683   5.816   4.426   1.037
14147WAT     H242684   5.954   4.486   1.100
14148WAT      O42685   1.169   1.479   6.167
14148WAT     H142686   1.214   1.528   6.242
14148WAT     H242687   1.195   1.382   6.170
14149WAT      O42688   6.364   1.149   8.942
14149WAT     H142689   6.314   1.230   8.975
14149WAT     H242690   6.300   1.074   8.928
14150WAT      O42691   8.997   8.197   4.162
14150WAT     H142692   8.948   8.135   4.224
14150WAT     H242693   9.008   8.286   4.206
14151WAT      O42694   4.447   1.616   4.915
14151WAT     H142695   4.481   1.603   4.822
14151WAT     H242696   4.508   1.677   4.965
14152WAT      O42697   9.317   6.054   9.458
14152WAT     H142698   9.332   6.139   9.509
14152WAT     H242699   9.404   6.018   9.426
14153WAT      O42700   3.405   4.332   6.730
14153WAT     H142701   3.317   4.316   6.685
14153WAT     H242702   3.460   4.394   6.675
14154WAT      O42703   8.337   7.009   3.531
14154WAT     H142704   8.406   6.959   3.584
14154WAT     H242705   8.283   6.944   3.478
14155WAT      O42706   0.619   4.347   4.428
14155WAT     H142707   0.705   4.298   4.413
14155WAT     H242708   0.542   4.287   4.409
14156WAT      O42709   1.068   3.363   2.624
14156WAT     H142710   1.074   3.292   2.694
14156WAT     H242711   1.150   3.420   2.627
14157WAT      O42712   1.164   9.086   6.852
14157WAT     H142713   1.132   9.085   6.947
14157WAT     H242714   1.227   9.010   6.837
14158WAT      O42715   6.098   0.779   1.827
14158WAT     H142716   6.122   0.862   1.878
14158WAT     H242717   6.173   0.755   1.766
14159WAT      O42718   1.773   9.813   0.624
14159WAT     H142719   1.794   9.881   0.694
14159WAT     H242720   1.762   9.723   0.666
14160WAT      O42721   6.895   7.428   4.900
14160WAT     H142722   6.861   7.429   4.995
14160WAT     H242723   6.862   7.345   4.854
14161WAT      O42724   5.868   0.867   4.109
14161WAT     H142725   5.867   0.775   4.148
14161WAT     H242726   5.895   0.933   4.178
14162WAT      O42727   3.930   3.771   7.574
14162WAT     H142728   4.022   3.797   7.604
14162WAT     H242729   3.922   3.671   7.576
14163WAT      O42730   6.314   6.663   9.070
14163WAT     H142731   6.266   6.744   9.036
14163WAT     H242732   6.412   6.682   9.076
14164WAT      O42733   9.298   2.576   9.623
14164WAT     H142734   9.235   2.501   9.604
14164WAT     H242735   9.384   2.560   9.575
14165WAT      O42736   0.252   6.329   3.525
14165WAT     H142737   0.222   6.238   3.554
14165WAT     H242738   0.349   6.340   3.545
14166WAT      O42739   7.413   7.100   4.433
14166WAT     H142740   7.484   7.055   4.487
14166WAT     H242741   7.334   7.040   4.424
14167WAT      O42742   2.913   5.349   9.747
14167WAT     H142743   2.930   5.435   9.797
14167WAT     H242744   2.952   5.273   9.799
14168WAT      O42745   6.400   4.574   5.780
14168WAT     H142746   6.487   4.601   5.738
14168WAT     H242747   6.416   4.499   5.843
14169WAT      O42748   0.683   2.216   4.884
14169WAT     H142749   0.592   2.218   4.841
14169WAT     H242750   0.734   2.137   4.851
14170WAT      O42751   6.463   4.106   7.120
14170WAT     H142752   6.534   4.080   7.055
14170WAT     H242753   6.397   4.031   7.130
14171WAT      O42754   1.643   0.462   0.241
14171WAT     H142755   1.737   0.458   0.276
14171WAT     H242756   1.582   0.415   0.304
14172WAT      O42757   7.211   9.428   8.576
14172WAT     H142758   7.137   9.464   8.518
14172WAT     H242759   7.259   9.356   8.528
14173WAT      O42760   9.612   0.310   5.187
14173WAT     H142761   9.695   0.280   5.139
14173WAT     H242762   9.579   0.237   5.246
14174WAT      O42763   1.120   7.266   1.478
14174WAT     H142764   1.086   7.360   1.469
14174WAT     H242765   1.219   7.265   1.464
14175WAT      O42766   3.509   5.750   6.353
14175WAT     H142767   3.452   5.695   6.414
14175WAT     H242768   3.460   5.832   6.325
14176WAT      O42769   7.642   7.831   7.379
14176WAT     H142770   7.572   7.814   7.309
14176WAT     H242771   7.653   7.749   7.435
14177WAT      O42772   5.184   9.279   5.116
14177WAT     H142773   5.089   9.309   5.117
14177WAT     H242774   5.188   9.179   5.106
14178WAT      O42775   8.767   9.262   2.943
14178WAT     H142776   8.847   9.320   2.932
14178WAT     H242777   8.734   9.233   2.853
14179WAT      O42778   0.784   3.427   0.075
14179WAT     H142779   0.757   3.454   0.167
14179WAT     H242780   0.879   3.454   0.058
14180WAT      O42781   9.794   0.932   9.771
14180WAT     H142782   9.802   0.889   9.681
14180WAT     H242783   9.847   0.880   9.838
14181WAT      O42784   7.865   5.704   6.053
14181WAT     H142785   7.861   5.608   6.024
14181WAT     H242786   7.961   5.735   6.052
14182WAT      O42787   5.464   6.446   8.794
14182WAT     H142788   5.488   6.526   8.739
14182WAT     H242789   5.508   6.365   8.756
14183WAT      O42790   5.997   0.888   7.334
14183WAT     H142791   6.059   0.968   7.332
14183WAT     H242792   5.913   0.910   7.284
14184WAT      O42793   3.380   8.791   7.277
14184WAT     H142794   3.396   8.873   7.331
14184WAT     H242795   3.422   8.712   7.323
14185WAT      O42796   9.186   4.644   3.260
14185WAT     H142797   9.196   4.631   3.162
14185WAT     H242798   9.186   4.555   3.306
14186WAT      O42799   8.823   8.733   6.039
14186WAT     H142800   8.843   8.705   5.945
14186WAT     H242801   8.744   8.681   6.073
14187WAT      O42802   4.408   5.629   3.134
14187WAT     H142803   4.318   5.623   3.178
14187WAT     H242804   4.464   5.697   3.182
14188WAT      O42805   4.536   2.882   9.147
14188WAT     H142806   4.606   2.851   9.211
14188WAT     H242807   4.575   2.947   9.083
14189WAT      O42808   9.823   8.783   3.174
14189WAT     H142809   9.859   8.794   3.082
14189WAT     H242810   9.896   8.750   3.234
14190WAT      O42811   5.311   9.714   2.914
14190WAT     H142812   5.366   9.717   2.997
14190WAT     H242813   5.329   9.629   2.865
14191WAT      O42814   9.854   8.810   7.460
14191WAT     H142815   9.834   8.735   7.524
14191WAT     H242816   9.940   8.854   7.487
14192WAT      O42817   2.262   6.245   5.265
14192WAT     H142818   2.216   6.209   5.346
14192WAT     H242819   2.360   6.224   5.270
14193WAT      O42820   2.409   3.681   8.057
14193WAT     H142821   2.495   3.632   8.043
14193WAT     H242822   2.332   3.618   8.050
14194WAT      O42823   8.997   5.638   0.585
14194WAT     H142824   9.000   5.699   0.664
14194WAT     H242825   9.090   5.621   0.552
14195WAT      O42826   4.375   5.429   7.349
14195WAT     H142827   4.327   5.503   7.397
14195WAT     H242828   4.420   5.370   7.415
14196WAT      O42829   1.769   2.929   9.611
14196WAT     H142830   1.864   2.936   9.584
14196WAT     H242831   1.763   2.897   9.706
14197WAT      O42832   2.300   2.986   6.431
14197WAT     H142833   2.353   2.904   6.452
14197WAT     H242834   2.325   3.020   6.341
14198WAT      O42835   7.995   9.174   8.555
14198WAT     H142836   8.044   9.238   8.613
14198WAT     H242837   8.049   9.153   8.473
14199WAT      O42838   1.387   3.302   2.235
14199WAT     H142839   1.433   3.363   2.171
14199WAT     H242840   1.303   3.345   2.267
14200WAT      O42841   2.984   8.097   8.581
14200WAT     H142842   2.974   8.123   8.485
14200WAT     H242843   2.939   8.164   8.638
14201WAT      O42844   9.511   4.340   8.306
14201WAT     H142845   9.463   4.372   8.225
14201WAT     H242846   9.469   4.380   8.388
14202WAT      O42847   1.754   2.879   8.505
14202WAT     H142848   1.839   2.930   8.514
14202WAT     H242849   1.691   2.928   8.445
14203WAT      O42850   5.198   2.811   3.177
14203WAT     H142851   5.205   2.802   3.078
14203WAT     H242852   5.121   2.871   3.200
14204WAT      O42853   0.253   7.734   4.746
14204WAT     H142854   0.300   7.646   4.735
14204WAT     H242855   0.301   7.804   4.692
14205WAT      O42856   5.620   2.421   1.567
14205WAT     H142857   5.533   2.468   1.584
14205WAT     H242858   5.647   2.434   1.472
14206WAT      O42859   9.621   1.462   0.155
14206WAT     H142860   9.575   1.550   0.165
14206WAT     H242861   9.694   1.470   0.088
14207WAT      O42862   1.030   3.910   9.628
14207WAT     H142863   1.101   3.955   9.574
14207WAT     H242864   0.979   3.978   9.681
14208WAT      O42865   4.219   1.840   1.182
14208WAT     H142866   4.137   1.793   1.214
14208WAT     H242867   4.297   1.778   1.186
14209WAT      O42868   0.968   1.390   0.374
14209WAT     H142869   1.025   1.409   0.293
14209WAT     H242870   0.977   1.294   0.399
14210WAT      O42871   4.873   4.135   0.772
14210WAT     H142872   4.910   4.078   0.846
14210WAT     H242873   4.819   4.209   0.811
14211WAT      O42874   3.794   4.574   3.887
14211WAT     H142875   3.712   4.625   3.861
14211WAT     H242876   3.870   4.637   3.900
14212WAT      O42877   7.751   2.888   8.344
14212WAT     H142878   7.847   2.899   8.316
14212WAT     H242879   7.747   2.857   8.438
14213WAT      O42880   3.522   2.539   6.291
14213WAT     H142881   3.619   2.519   6.301
14213WAT     H242882   3.496   2.610   6.357
14214WAT      O42883   7.722   1.341   5.809
14214WAT     H142884   7.819   1.362   5.819
14214WAT     H242885   7.710   1.243   5.795
14215WAT      O42886   3.857   0.643   2.935
14215WAT     H142887   3.940   0.591   2.953
14215WAT     H242888   3.881   0.728   2.888
14216WAT      O42889   7.037   3.573   1.967
14216WAT     H142890   7.125   3.583   1.920
14216WAT     H242891   7.035   3.633   2.047
14217WAT      O42892   0.635   4.581   0.924
14217WAT     H142893   0.709   4.571   0.857
14217WAT     H242894   0.648   4.515   0.997
14218WAT      O42895   8.144   1.056   6.391
14218WAT     H142896   8.135   0.992   6.468
14218WAT     H242897   8.221   1.029   6.334
14219WAT      O42898   8.057   9.795   4.758
14219WAT     H142899   8.092   9.806   4.851
14219WAT     H242900   8.100   9.715   4.716
14220WAT      O42901   6.327   7.893   8.360
14220WAT     H142902   6.319   7.980   8.409
14220WAT     H242903   6.361   7.910   8.268
14221WAT      O42904   8.705   1.350   8.401
14221WAT     H142905   8.745   1.403   8.476
14221WAT     H242906   8.778   1.310   8.345
14222WAT      O42907   0.903   2.253   3.706
14222WAT     H142908   0.864   2.256   3.798
14222WAT     H242909   0.858   2.319   3.647
14223WAT      O42910   0.737   1.797   2.743
14223WAT     H142911   0.800   1.722   2.724
14223WAT     H242912   0.766   1.878   2.693
14224WAT      O42913   5.847   8.281   3.641
14224WAT     H142914   5.877   8.228   3.720
14224WAT     H242915   5.794   8.222   3.580
14225WAT      O42916   7.063   8.885   6.798
14225WAT     H142917   7.039   8.845   6.709
14225WAT     H242918   6.998   8.854   6.867
14226WAT      O42919   0.999   7.104   4.860
14226WAT     H142920   1.068   7.079   4.792
14226WAT     H242921   0.996   7.033   4.931
14227WAT      O42922   1.204   4.490   3.311
14227WAT     H142923   1.302   4.477   3.321
14227WAT     H242924   1.182   4.501   3.214
14228WAT      O42925   3.885   6.028   6.933
14228WAT     H142926   3.950   5.996   6.864
14228WAT     H242927   3.800   5.976   6.925
14229WAT      O42928   3.688   2.813   7.884
14229WAT     H142929   3.599   2.846   7.917
14229WAT     H242930   3.760   2.843   7.946
14230WAT      O42931   4.732   1.739   8.932
14230WAT     H142932   4.728   1.683   8.850
14230WAT     H242933   4.794   1.817   8.917
14231WAT      O42934   4.695   4.930   0.007
14231WAT     H142935   4.771   4.983   0.044
14231WAT     H242936   4.729   4.865  -0.061
14232WAT      O42937   8.664   8.014   2.630
14232WAT     H142938   8.755   8.040   2.598
14232WAT     H242939   8.596   8.033   2.560
14233WAT      O42940   2.366   5.809   4.725
14233WAT     H142941   2.289   5.872   4.733
14233WAT     H242942   2.444   5.845   4.778
14234WAT      O42943   5.127   2.233   9.605
14234WAT     H142944   5.145   2.146   9.560
14234WAT     H242945   5.213   2.281   9.623
14235WAT      O42946   8.447   3.618   5.963
14235WAT     H142947   8.416   3.526   5.937
14235WAT     H242948   8.459   3.674   5.882
14236WAT      O42949   1.523   9.178   2.105
14236WAT     H142950   1.484   9.238   2.035
14236WAT     H242951   1.454   9.112   2.134
14237WAT      O42952   1.983   3.024   8.537
14237WAT     H142953   1.987   3.114   8.493
14237WAT     H242954   2.054   2.965   8.498
14238WAT      O42955   6.184   0.308   5.005
14238WAT     H142956   6.228   0.397   5.018
14238WAT     H242957   6.095   0.322   4.961
14239WAT      O42958   5.812   1.412   7.334
14239WAT     H142959   5.884   1.408   7.264
14239WAT     H242960   5.756   1.330   7.329
14240WAT      O42961   4.255   2.985   8.770
14240WAT     H142962   4.181   2.939   8.721
14240WAT     H242963   4.223   3.074   8.803
14241WAT      O42964   3.134   0.593   5.140
14241WAT     H142965   3.141   0.540   5.225
14241WAT     H242966   3.200   0.667   5.141
14242WAT      O42967   8.092   3.947   8.894
14242WAT     H142968   8.128   4.035   8.863
14242WAT     H242969   8.041   3.904   8.819
14243WAT      O42970   4.607   0.850   1.814
14243WAT     H142971   4.610   0.774   1.749
14243WAT     H242972   4.517   0.892   1.811
14244WAT      O42973   8.357   1.953   1.420
14244WAT     H142974   8.301   2.033   1.399
14244WAT     H242975   8.357   1.891   1.342
14245WAT      O42976   5.550   7.122   5.703
14245WAT     H142977   5.601   7.037   5.714
14245WAT     H242978   5.493   7.138   5.783
14246WAT      O42979   2.557   9.764   9.865
14246WAT     H142980   2.473   9.819   9.862
14246WAT     H242981   2.607   9.776   9.779
14247WAT      O42982   1.539   2.366   2.146
14247WAT     H142983   1.514   2.439   2.210
14247WAT     H242984   1.639   2.356   2.146
14248WAT      O42985   6.659   0.332   7.489
14248WAT     H142986   6.682   0.241   7.522
14248WAT     H242987   6.669   0.398   7.564
14249WAT      O42988   9.097   1.801   7.732
14249WAT     H142989   9.190   1.837   7.730
14249WAT     H242990   9.032   1.877   7.742
14250WAT      O42991   2.086   7.283   2.314
14250WAT     H142992   1.990   7.311   2.322
14250WAT     H242993   2.124   7.317   2.228
14251WAT      O42994   0.538   0.687   1.204
14251WAT     H142995   0.482   0.745   1.263
14251WAT     H242996   0.536   0.723   1.111
14252WAT      O42997   5.563   1.927   4.814
14252WAT     H142998   5.637   1.920   4.880
14252WAT     H242999   5.559   1.844   4.759
14253WAT      O43000   8.176   2.345   3.243
14253WAT     H143001   8.243   2.420   3.242
14253WAT     H243002   8.224   2.258   3.240
14254WAT      O43003   3.954   5.017   4.847
14254WAT     H143004   3.993   5.106   4.823
14254WAT     H243005   4.020   4.967   4.903
14255WAT      O43006   8.551   4.482   0.975
14255WAT     H143007   8.569   4.580   0.968
14255WAT     H243008   8.464   4.461   0.928
14256WAT      O43009   1.772   3.723   7.774
14256WAT     H143010   1.870   3.723   7.792
14256WAT     H243011   1.756   3.723   7.675
14257WAT      O43012   5.416   4.674   8.053
14257WAT     H143013   5.513   4.700   8.051
14257WAT     H243014   5.365   4.740   8.109
14258WAT      O43015   9.434   6.405   3.763
14258WAT     H143016   9.394   6.314   3.754
14258WAT     H243017   9.489   6.426   3.683
14259WAT      O43018   8.786   4.100   3.335
14259WAT     H143019   8.698   4.056   3.350
14259WAT     H243020   8.802   4.110   3.236
14260WAT      O43021   0.396   3.204   8.998
14260WAT     H143022   0.354   3.177   8.912
14260WAT     H243023   0.326   3.235   9.062
14261WAT      O43024   5.063   3.140   0.534
14261WAT     H143025   4.990   3.163   0.470
14261WAT     H243026   5.142   3.200   0.517
14262WAT      O43027   1.282   2.958   9.490
14262WAT     H143028   1.298   3.018   9.569
14262WAT     H243029   1.184   2.936   9.485
14263WAT      O43030   8.184   0.080   2.075
14263WAT     H143031   8.255   0.071   2.145
14263WAT     H243032   8.170   0.177   2.055
14264WAT      O43033   5.034   5.114   0.574
14264WAT     H143034   5.035   5.148   0.668
14264WAT     H243035   4.953   5.056   0.561
14265WAT      O43036   7.133   0.162   0.386
14265WAT     H143037   7.046   0.114   0.372
14265WAT     H243038   7.140   0.237   0.320
14266WAT      O43039   4.586   5.242   5.995
14266WAT     H143040   4.657   5.176   5.969
14266WAT     H243041   4.497   5.198   5.989
14267WAT      O43042   4.532   4.638   9.307
14267WAT     H143043   4.508   4.541   9.306
14267WAT     H243044   4.451   4.693   9.286
14268WAT      O43045   3.395   8.032   4.172
14268WAT     H143046   3.466   8.102   4.167
14268WAT     H243047   3.380   7.993   4.081
14269WAT      O43048   2.361   0.241   9.389
14269WAT     H143049   2.390   0.196   9.473
14269WAT     H243050   2.442   0.263   9.334
14270WAT      O43051   0.612   7.010   0.586
14270WAT     H143052   0.659   6.992   0.499
14270WAT     H243053   0.568   7.100   0.583
14271WAT      O43054   9.875   5.834   7.992
14271WAT     H143055   9.792   5.863   7.945
14271WAT     H243056   9.900   5.903   8.060
14272WAT      O43057   0.424   7.215   1.752
14272WAT     H143058   0.343   7.273   1.764
14272WAT     H243059   0.450   7.176   1.840
14273WAT      O43060   5.731   4.883   1.331
14273WAT     H143061   5.650   4.830   1.358
14273WAT     H243062   5.786   4.903   1.412
14274WAT      O43063   4.873   6.352   2.216
14274WAT     H143064   4.911   6.443   2.200
14274WAT     H243065   4.948   6.286   2.224
14275WAT      O43066   1.476   6.729   8.541
14275WAT     H143067   1.396   6.757   8.594
14275WAT     H243068   1.447   6.688   8.455
14276WAT      O43069   3.851   9.166   5.335
14276WAT     H143070   3.815   9.194   5.424
14276WAT     H243071   3.819   9.230   5.265
14277WAT      O43072   6.126   0.955   2.075
14277WAT     H143073   6.123   0.866   2.121
14277WAT     H243074   6.182   1.018   2.129
14278WAT      O43075   8.896   1.769   1.184
14278WAT     H143076   8.849   1.722   1.259
14278WAT     H243077   8.958   1.837   1.221
14279WAT      O43078   3.024   8.104   0.160
14279WAT     H143079   2.951   8.172   0.166
14279WAT     H243080   3.012   8.037   0.233
14280WAT      O43081   1.739   0.027   0.369
14280WAT     H143082   1.745  -0.032   0.450
14280WAT     H243083   1.794   0.109   0.385
14281WAT      O43084   8.095   2.693   8.786
14281WAT     H143085   8.079   2.620   8.719
14281WAT     H243086   8.171   2.750   8.755
14282WAT      O43087   2.438   1.931   1.649
14282WAT     H143088   2.439   1.988   1.567
14282WAT     H243089   2.524   1.882   1.657
14283WAT      O43090   2.963   0.828   1.713
14283WAT     H143091   2.957   0.762   1.638
14283WAT     H243092   3.045   0.808   1.767
14284WAT      O43093   0.344   0.838   1.334
14284WAT     H143094   0.430   0.889   1.343
14284WAT     H243095   0.268   0.903   1.327
14285WAT      O43096   0.155   2.767   6.515
14285WAT     H143097   0.163   2.688   6.576
14285WAT     H243098   0.243   2.812   6.506
14286WAT      O43099   4.868   0.218   3.357
14286WAT     H143100   4.964   0.245   3.353
14286WAT     H243101   4.852   0.143   3.293
14287WAT      O43102   6.390   9.126   4.718
14287WAT     H143103   6.344   9.175   4.792
14287WAT     H243104   6.478   9.092   4.750
14288WAT      O43105   3.197   8.845   6.808
14288WAT     H143106   3.193   8.794   6.894
14288WAT     H243107   3.273   8.811   6.753
14289WAT      O43108   0.289   5.400   4.209
14289WAT     H143109   0.341   5.437   4.131
14289WAT     H243110   0.337   5.320   4.245
14290WAT      O43111   3.288   0.401   5.743
14290WAT     H143112   3.291   0.463   5.665
14290WAT     H243113   3.269   0.454   5.826
14291WAT      O43114   3.959   5.062   2.767
14291WAT     H143115   4.021   4.995   2.728
14291WAT     H243116   3.987   5.154   2.738
14292WAT      O43117   3.406   7.475   7.984
14292WAT     H143118   3.400   7.471   7.884
14292WAT     H243119   3.314   7.473   8.023
14293WAT      O43120   1.806   8.425   7.583
14293WAT     H143121   1.836   8.343   7.630
14293WAT     H243122   1.796   8.500   7.649
14294WAT      O43123   4.236   6.182   1.985
14294WAT     H143124   4.335   6.185   1.988
14294WAT     H243125   4.199   6.174   2.078
14295WAT      O43126   9.221   5.478   1.136
14295WAT     H143127   9.154   5.552   1.149
14295WAT     H243128   9.184   5.393   1.174
14296WAT      O43129   4.023   8.001   2.477
14296WAT     H143130   4.029   7.914   2.527
14296WAT     H243131   4.006   8.076   2.542
14297WAT      O43132   7.483   8.289   7.213
14297WAT     H143133   7.447   8.202   7.178
14297WAT     H243134   7.479   8.359   7.142
14298WAT      O43135   0.434   9.368   1.419
14298WAT     H143136   0.401   9.404   1.332
14298WAT     H243137   0.359   9.366   1.485
14299WAT      O43138   8.431   1.210   8.234
14299WAT     H143139   8.528   1.230   8.250
14299WAT     H243140   8.423   1.123   8.186
14300WAT      O43141   7.082   7.757   4.638
14300WAT     H143142   6.984   7.774   4.626
14300WAT     H243143   7.133   7.842   4.619
14301WAT      O43144   0.955   4.199   8.259
14301WAT     H143145   0.961   4.131   8.186
14301WAT     H243146   0.859   4.218   8.279
14302WAT      O43147   2.164   6.256   5.810
14302WAT     H143148   2.074   6.235   5.770
14302WAT     H243149   2.151   6.304   5.897
14303WAT      O43150   9.374   5.381   6.879
14303WAT     H143151   9.291   5.378   6.934
14303WAT     H243152   9.412   5.288   6.870
14304WAT      O43153   9.108   2.773   8.516
14304WAT     H143154   9.114   2.691   8.572
14304WAT     H243155   9.161   2.847   8.559
14305WAT      O43156   1.908   0.356   8.566
14305WAT     H143157   1.922   0.333   8.662
14305WAT     H243158   1.859   0.443   8.560
14306WAT      O43159   7.086   6.360   9.677
14306WAT     H143160   7.139   6.361   9.592
14306WAT     H243161   7.113   6.280   9.731
14307WAT      O43162   2.788   7.277   8.628
14307WAT     H143163   2.870   7.256   8.682
14307WAT     H243164   2.813   7.285   8.532
14308WAT      O43165   3.531   1.698   8.210
14308WAT     H143166   3.531   1.660   8.302
14308WAT     H243167   3.585   1.782   8.208
14309WAT      O43168   2.648   2.584   4.450
14309WAT     H143169   2.720   2.586   4.519
14309WAT     H243170   2.662   2.504   4.391
14310WAT      O43171   0.288   5.073   0.081
14310WAT     H143172   0.378   5.113   0.063
14310WAT     H243173   0.222   5.108   0.015
14311WAT      O43174   3.280   1.664   6.829
14311WAT     H143175   3.365   1.716   6.832
14311WAT     H243176   3.291   1.578   6.879
14312WAT      O43177   0.639   3.572   4.069
14312WAT     H143178   0.726   3.613   4.097
14312WAT     H243179   0.566   3.639   4.079
14313WAT      O43180   7.332   4.966   2.903
14313WAT     H143181   7.415   4.916   2.882
14313WAT     H243182   7.283   4.921   2.977
14314WAT      O43183   0.248   7.650   9.018
14314WAT     H143184   0.265   7.552   9.029
14314WAT     H243185   0.150   7.666   9.010
14315WAT      O43186   1.636   0.583   3.832
14315WAT     H143187   1.615   0.668   3.783
14315WAT     H243188   1.732   0.583   3.859
14316WAT      O43189   6.244   1.149   0.833
14316WAT     H143190   6.320   1.091   0.863
14316WAT     H243191   6.252   1.165   0.734
14317WAT      O43192   1.978   8.413   3.508
14317WAT     H143193   2.068   8.456   3.514
14317WAT     H243194   1.981   8.339   3.441
14318WAT      O43195   3.441   2.231   1.517
14318WAT     H143196   3.510   2.186   1.460
14318WAT     H243197   3.483   2.260   1.604
14319WAT      O43198   7.597   3.175   5.958
14319WAT     H143199   7.554   3.085   5.952
14319WAT     H243200   7.546   3.232   6.023
14320WAT      O43201   4.714   4.946   8.774
14320WAT     H143202   4.743   4.915   8.684
14320WAT     H243203   4.672   4.870   8.824
14321WAT      O43204   1.057   6.514   3.424
14321WAT     H143205   1.062   6.610   3.453
14321WAT     H243206   0.999   6.506   3.343
14322WAT      O43207   1.809   1.152   4.087
14322WAT     H143208   1.901   1.191   4.080
14322WAT     H243209   1.784   1.141   4.183
14323WAT      O43210   4.441   6.360   2.445
14323WAT     H143211   4.430   6.261   2.444
14323WAT     H243212   4.525   6.384   2.494
14324WAT      O43213   2.733   8.186   8.829
14324WAT     H143214   2.725   8.283   8.851
14324WAT     H243215   2.812   8.147   8.877
14325WAT      O43216   1.029   5.003   6.040
14325WAT     H143217   1.100   4.946   6.080
14325WAT     H243218   1.002   4.966   5.951
14326WAT      O43219   3.070   4.524   2.766
14326WAT     H143220   3.118   4.460   2.826
14326WAT     H243221   3.008   4.473   2.706
14327WAT      O43222   4.104   4.505   5.516
14327WAT     H143223   4.043   4.585   5.517
14327WAT     H243224   4.120   4.477   5.422
14328WAT      O43225   2.668   6.565   3.056
14328WAT     H143226   2.652   6.468   3.075
14328WAT     H243227   2.765   6.587   3.072
14329WAT      O43228   7.150   9.745   4.786
14329WAT     H143229   7.249   9.745   4.774
14329WAT     H243230   7.119   9.652   4.805
14330WAT      O43231   9.577   4.539   4.472
14330WAT     H143232   9.672   4.530   4.443
14330WAT     H243233   9.535   4.449   4.479
14331WAT      O43234   5.942   7.463   0.421
14331WAT     H143235   5.867   7.412   0.461
14331WAT     H243236   6.019   7.401   0.405
14332WAT      O43237   2.184   2.931   8.128
14332WAT     H143238   2.104   2.988   8.145
14332WAT     H243239   2.161   2.859   8.062
14333WAT      O43240   8.775   9.517   2.700
14333WAT     H143241   8.808   9.605   2.734
14333WAT     H243242   8.703   9.482   2.760
14334WAT      O43243   6.084   9.376   7.889
14334WAT     H143244   6.046   9.468   7.879
14334WAT     H243245   6.090   9.332   7.800
14335WAT      O43246   4.289   0.501   7.317
14335WAT     H143247   4.293   0.448   7.233
14335WAT     H243248   4.381   0.508   7.356
14336WAT      O43249   2.107   3.255   8.742
14336WAT     H143250   2.131   3.172   8.691
14336WAT     H243251   2.012   3.249   8.773
14337WAT      O43252   5.378   1.303   4.429
14337WAT     H143253   5.289   1.266   4.456
14337WAT     H243254   5.442   1.227   4.413
14338WAT      O43255   6.876   2.717   9.825
14338WAT     H143256   6.855   2.718   9.727
14338WAT     H243257   6.825   2.790   9.871
14339WAT      O43258   2.586   3.092   1.217
14339WAT     H143259   2.630   3.006   1.242
14339WAT     H243260   2.592   3.157   1.293
14340WAT      O43261   1.153   1.542   5.915
14340WAT     H143262   1.220   1.611   5.888
14340WAT     H243263   1.153   1.534   6.015
14341WAT      O43264   1.095   5.887   4.104
14341WAT     H143265   1.001   5.907   4.131
14341WAT     H243266   1.096   5.814   4.036
14342WAT      O43267   6.033   2.865   7.980
14342WAT     H143268   6.110   2.887   7.920
14342WAT     H243269   6.045   2.912   8.068
14343WAT      O43270   2.577   3.410   0.889
14343WAT     H143271   2.635   3.443   0.815
14343WAT     H243272   2.520   3.334   0.857
14344WAT      O43273   6.461   3.013   8.574
14344WAT     H143274   6.426   2.984   8.663
14344WAT     H243275   6.501   3.105   8.582
14345WAT      O43276   4.715   8.873   4.684
14345WAT     H143277   4.777   8.795   4.678
14345WAT     H243278   4.696   8.893   4.780
14346WAT      O43279   9.158   3.307   9.219
14346WAT     H143280   9.239   3.248   9.219
14346WAT     H243281   9.127   3.321   9.125
14347WAT      O43282   3.353   2.494   1.402
14347WAT     H143283   3.259   2.513   1.372
14347WAT     H243284   3.351   2.444   1.488
14348WAT      O43285   9.535   7.303   2.029
14348WAT     H143286   9.561   7.350   1.944
14348WAT     H243287   9.558   7.362   2.107
14349WAT      O43288   5.674   5.564   2.499
14349WAT     H143289   5.637   5.583   2.590
14349WAT     H243290   5.671   5.648   2.444
14350WAT      O43291   4.526   2.518   2.664
14350WAT     H143292   4.442   2.466   2.678
14350WAT     H243293   4.530   2.593   2.729
14351WAT      O43294   9.366   7.547   4.048
14351WAT     H143295   9.398   7.459   4.082
14351WAT     H243296   9.437   7.588   3.990
14352WAT      O43297   1.950   7.055   7.278
14352WAT     H143298   1.898   7.060   7.194
14352WAT     H243299   1.991   7.145   7.298
14353WAT      O43300   2.578   2.783   6.154
14353WAT     H143301   2.605   2.764   6.059
14353WAT     H243302   2.654   2.762   6.215
14354WAT      O43303   3.657   6.999   9.705
14354WAT     H143304   3.736   7.058   9.720
14354WAT     H243305   3.660   6.921   9.767
14355WAT      O43306   1.842   6.391   4.203
14355WAT     H143307   1.774   6.356   4.267
14355WAT     H243308   1.860   6.487   4.222
14356WAT      O43309   3.598   0.088   7.517
14356WAT     H143310   3.588   0.016   7.448
14356WAT     H243311   3.576   0.177   7.476
14357WAT      O43312   4.158   3.145   5.265
14357WAT     H143313   4.179   3.105   5.354
14357WAT     H243314   4.102   3.226   5.277
14358WAT      O43315   3.878   2.797   3.948
14358WAT     H143316   3.913   2.713   3.988
14358WAT     H243317   3.789   2.780   3.905
14359WAT      O43318   9.509   3.099   5.776
14359WAT     H143319   9.423   3.050   5.790
14359WAT     H243320   9.534   3.146   5.861
14360WAT      O43321   2.148   1.292   2.650
14360WAT     H143322   2.073   1.340   2.695
14360WAT     H243323   2.225   1.284   2.713
14361WAT      O43324   4.188   6.199   0.574
14361WAT     H143325   4.240   6.264   0.518
14361WAT     H243326   4.195   6.108   0.534
14362WAT      O43327   9.352   0.842   4.650
14362WAT     H143328   9.409   0.828   4.731
14362WAT     H243329   9.411   0.850   4.569
14363WAT      O43330   2.123   2.291   8.829
14363WAT     H143331   2.213   2.250   8.812
14363WAT     H243332   2.052   2.221   8.820
14364WAT      O43333   4.043   8.842   3.592
14364WAT     H143334   4.066   8.885   3.505
14364WAT     H243335   3.991   8.758   3.575
14365WAT      O43336   1.222   1.122   8.170
14365WAT     H143337   1.294   1.054   8.155
14365WAT     H243338   1.248   1.209   8.128
14366WAT      O43339   8.694   9.558   1.363
14366WAT     H143340   8.777   9.513   1.397
14366WAT     H243341   8.693   9.653   1.395
14367WAT      O43342   4.035   3.679   0.437
14367WAT     H143343   4.012   3.736   0.358
14367WAT     H243344   4.118   3.715   0.480
14368WAT      O43345   2.330   9.482   0.982
14368WAT     H143346   2.420   9.516   1.011
14368WAT     H243347   2.280   9.556   0.937
14369WAT      O43348   6.075   1.588   5.949
14369WAT     H143349   6.124   1.650   5.888
14369WAT     H243350   5.986   1.628   5.972
14370WAT      O43351   7.424   5.016   7.573
14370WAT     H143352   7.488   4.989   7.502
14370WAT     H243353   7.360   4.941   7.590
14371WAT      O43354   9.119   5.243   0.088
14371WAT     H143355   9.066   5.327   0.077
14371WAT     H243356   9.148   5.235   0.184
14372WAT      O43357   3.922   7.761   6.692
14372WAT     H143358   3.966   7.682   6.734
14372WAT     H243359   3.823   7.746   6.690
14373WAT      O43360   8.594   4.774   3.187
14373WAT     H143361   8.533   4.772   3.108
14373WAT     H243362   8.575   4.696   3.246
14374WAT      O43363   1.565   5.788   0.030
14374WAT     H143364   1.558   5.694  -0.001
14374WAT     H243365   1.530   5.795   0.124
14375WAT      O43366   5.629   8.147   8.628
14375WAT     H143367   5.680   8.080   8.575
14375WAT     H243368   5.546   8.172   8.580
14376WAT      O43369   6.147   9.356   0.818
14376WAT     H143370   6.061   9.306   0.829
14376WAT     H243371   6.149   9.432   0.883
14377WAT      O43372   6.379   1.060   9.336
14377WAT     H143373   6.328   1.026   9.415
14377WAT     H243374   6.399   1.157   9.348
14378WAT      O43375   4.300   7.355   7.840
14378WAT     H143376   4.341   7.273   7.878
14378WAT     H243377   4.361   7.433   7.854
14379WAT      O43378   1.763   7.036   8.127
14379WAT     H143379   1.709   7.099   8.071
14379WAT     H243380   1.702   6.973   8.174
14380WAT      O43381   2.119   1.517   4.721
14380WAT     H143382   2.118   1.417   4.727
14380WAT     H243383   2.201   1.553   4.766
14381WAT      O43384   2.352   6.055   4.365
14381WAT     H143385   2.278   6.022   4.423
14381WAT     H243386   2.439   6.045   4.414
14382WAT      O43387   9.790   1.022   2.323
14382WAT     H143388   9.870   1.061   2.368
14382WAT     H243389   9.762   0.939   2.370
14383WAT      O43390   1.500   7.848   7.284
14383WAT     H143391   1.441   7.893   7.351
14383WAT     H243392   1.539   7.766   7.324
14384WAT      O43393   3.175   8.525   9.178
14384WAT     H143394   3.268   8.490   9.183
14384WAT     H243395   3.159   8.568   9.089
14385WAT      O43396   1.229   6.451   8.700
14385WAT     H143397   1.312   6.409   8.663
14385WAT     H243398   1.164   6.466   8.626
14386WAT      O43399   2.333   3.497   2.841
14386WAT     H143400   2.249   3.550   2.836
14386WAT     H243401   2.311   3.400   2.851
14387WAT      O43402   0.829   5.557   5.617
14387WAT     H143403   0.824   5.553   5.717
14387WAT     H243404   0.744   5.522   5.578
14388WAT      O43405   4.471   1.017   4.608
14388WAT     H143406   4.379   0.986   4.632
14388WAT     H243407   4.465   1.101   4.554
14389WAT      O43408   6.257   4.765   3.458
14389WAT     H143409   6.225   4.675   3.427
14389WAT     H243410   6.277   4.761   3.555
14390WAT      O43411   0.527   3.135   6.911
14390WAT     H143412   0.511   3.213   6.850
14390WAT     H243413   0.472   3.147   6.994
14391WAT      O43414   6.302   9.598   3.085
14391WAT     H143415   6.237   9.544   3.032
14391WAT     H243416   6.367   9.642   3.023
14392WAT      O43417   5.177   1.748   4.967
14392WAT     H143418   5.232   1.830   4.953
14392WAT     H243419   5.099   1.749   4.904
14393WAT      O43420   4.562   8.204   7.960
14393WAT     H143421   4.551   8.208   7.860
14393WAT     H243422   4.543   8.111   7.991
14394WAT      O43423   0.738   3.738   4.532
14394WAT     H143424   0.728   3.792   4.616
14394WAT     H243425   0.793   3.657   4.551
14395WAT      O43426   9.308   1.726   1.044
14395WAT     H143427   9.282   1.720   1.141
14395WAT     H243428   9.328   1.821   1.021
14396WAT      O43429   2.021   4.071   6.774
14396WAT     H143430   2.003   4.170   6.778
14396WAT     H243431   2.110   4.052   6.815
14397WAT      O43432   2.072   1.845   0.446
14397WAT     H143433   2.129   1.798   0.514
14397WAT     H243434   2.041   1.779   0.378
14398WAT      O43435   3.225   2.867   5.053
14398WAT     H143436   3.260   2.956   5.083
14398WAT     H243437   3.177   2.823   5.129
14399WAT      O43438   7.709   7.607   4.611
14399WAT     H143439   7.744   7.596   4.704
14399WAT     H243440   7.631   7.669   4.611
14400WAT      O43441   3.016   8.972   5.996
14400WAT     H143442   3.013   8.880   6.034
14400WAT     H243443   3.096   9.020   6.034
14401WAT      O43444   8.893   2.827   9.360
14401WAT     H143445   8.925   2.921   9.352
14401WAT     H243446   8.845   2.801   9.276
14402WAT      O43447   9.337   0.652   0.723
14402WAT     H143448   9.370   0.648   0.817
14402WAT     H243449   9.413   0.674   0.662
14403WAT      O43450   8.387   8.351   9.662
14403WAT     H143451   8.295   8.389   9.666
14403WAT     H243452   8.431   8.360   9.752
14404WAT      O43453   0.157   4.297   6.135
14404WAT     H143454   0.129   4.285   6.230
14404WAT     H243455   0.114   4.378   6.097
14405WAT      O43456   2.679   2.438   7.520
14405WAT     H143457   2.618   2.365   7.488
14405WAT     H243458   2.624   2.516   7.552
14406WAT      O43459   2.441   4.082   4.069
14406WAT     H143460   2.352   4.108   4.031
14406WAT     H243461   2.507   4.071   3.994
14407WAT      O43462   8.103   5.224   1.969
14407WAT     H143463   8.011   5.229   2.008
14407WAT     H243464   8.097   5.223   1.869
14408WAT      O43465   5.381   8.438   7.636
14408WAT     H143466   5.441   8.358   7.644
14408WAT     H243467   5.377   8.468   7.541
14409WAT      O43468   9.416   3.362   6.290
14409WAT     H143469   9.435   3.439   6.350
14409WAT     H243470   9.376   3.395   6.204
14410WAT      O43471   6.579   2.043   6.691
14410WAT     H143472   6.581   2.138   6.660
14410WAT     H243473   6.508   2.032   6.760
14411WAT      O43474   0.750   0.627   9.712
14411WAT     H143475   0.839   0.583   9.700
14411WAT     H243476   0.724   0.673   9.627
14412WAT      O43477   1.139   4.190   2.709
14412WAT     H143478   1.130   4.091   2.716
14412WAT     H243479   1.049   4.232   2.720
14413WAT      O43480   1.702   2.594   4.007
14413WAT     H143481   1.622   2.598   3.947
14413WAT     H243482   1.683   2.534   4.084
14414WAT      O43483   5.901   1.121   5.561
14414WAT     H143484   5.968   1.184   5.601
14414WAT     H243485   5.844   1.083   5.634
14415WAT      O43486   0.288   3.280   7.882
14415WAT     H143487   0.372   3.234   7.911
14415WAT     H243488   0.253   3.335   7.957
14416WAT      O43489   2.130   2.450   7.143
14416WAT     H143490   2.060   2.385   7.111
14416WAT     H243491   2.217   2.430   7.099
14417WAT      O43492   1.614   5.156   9.676
14417WAT     H143493   1.610   5.251   9.644
14417WAT     H243494   1.542   5.141   9.744
14418WAT      O43495   1.263   0.481   5.716
14418WAT     H143496   1.273   0.390   5.756
14418WAT     H243497   1.251   0.549   5.788
14419WAT      O43498   0.102   2.964   5.266
14419WAT     H143499   0.013   2.969   5.310
14419WAT     H243500   0.105   2.884   5.206
14420WAT      O43501   4.618   5.561   8.762
14420WAT     H143502   4.692   5.498   8.738
14420WAT     H243503   4.578   5.535   8.850
14421WAT      O43504   3.362   9.609   9.467
14421WAT     H143505   3.320   9.693   9.434
14421WAT     H243506   3.348   9.535   9.401
14422WAT      O43507   9.086   2.425   7.376
14422WAT     H143508   9.098   2.519   7.408
14422WAT     H243509   9.175   2.381   7.364
14423WAT      O43510   4.598   0.007   3.172
14423WAT     H143511   4.651  -0.057   3.227
14423WAT     H243512   4.660   0.063   3.117
14424WAT      O43513   7.929   1.797   8.995
14424WAT     H143514   7.975   1.714   9.026
14424WAT     H243515   7.835   1.798   9.028
14425WAT      O43516   1.659   6.558   1.901
14425WAT     H143517   1.561   6.576   1.907
14425WAT     H243518   1.689   6.509   1.983
14426WAT      O43519   3.375   3.079   7.702
14426WAT     H143520   3.408   2.987   7.723
14426WAT     H243521   3.319   3.077   7.619
14427WAT      O43522   6.043   6.950   1.181
14427WAT     H143523   5.984   6.982   1.255
14427WAT     H243524   6.010   6.987   1.094
14428WAT      O43525   4.182   6.176   2.239
14428WAT     H143526   4.247   6.119   2.289
14428WAT     H243527   4.137   6.238   2.303
14429WAT      O43528   5.239   5.920   1.183
14429WAT     H143529   5.225   5.898   1.279
14429WAT     H243530   5.152   5.946   1.141
14430WAT      O43531   3.498   9.534   3.361
14430WAT     H143532   3.560   9.456   3.369
14430WAT     H243533   3.489   9.559   3.264
14431WAT      O43534   2.561   8.125   3.895
14431WAT     H143535   2.632   8.055   3.885
14431WAT     H243536   2.520   8.117   3.986
14432WAT      O43537   8.304   2.766   0.266
14432WAT     H143538   8.325   2.760   0.364
14432WAT     H243539   8.223   2.711   0.246
14433WAT      O43540   8.260   2.761   3.406
14433WAT     H143541   8.213   2.807   3.331
14433WAT     H243542   8.195   2.703   3.456
14434WAT      O43543   8.044   2.679   5.535
14434WAT     H143544   7.991   2.627   5.602
14434WAT     H243545   8.140   2.680   5.562
14435WAT      O43546   2.613   7.456   5.852
14435WAT     H143547   2.562   7.519   5.910
14435WAT     H243548   2.565   7.444   5.765
14436WAT      O43549   4.467   9.370   6.755
14436WAT     H143550   4.438   9.463   6.779
14436WAT     H243551   4.566   9.363   6.767
14437WAT      O43552   1.185   4.307   2.243
14437WAT     H143553   1.118   4.303   2.169
14437WAT     H243554   1.271   4.265   2.213
14438WAT      O43555   3.304   9.390   4.081
14438WAT     H143556   3.301   9.292   4.061
14438WAT     H243557   3.254   9.408   4.165
14439WAT      O43558   5.223   2.688   5.372
14439WAT     H143559   5.262   2.599   5.348
14439WAT     H243560   5.263   2.720   5.458
14440WAT      O43561   1.006   1.065   5.570
14440WAT     H143562   1.079   1.051   5.503
14440WAT     H243563   0.930   1.113   5.526
14441WAT      O43564   3.850   4.141   1.419
14441WAT     H143565   3.948   4.121   1.415
14441WAT     H243566   3.798   4.057   1.432
14442WAT      O43567   0.497   0.356   4.569
14442WAT     H143568   0.535   0.284   4.512
14442WAT     H243569   0.485   0.439   4.515
14443WAT      O43570   7.504   9.133   7.075
14443WAT     H143571   7.497   9.048   7.023
14443WAT     H243572   7.412   9.167   7.094
14444WAT      O43573   8.663   2.492   6.766
14444WAT     H143574   8.730   2.562   6.741
14444WAT     H243575   8.627   2.449   6.684
14445WAT      O43576   0.762   6.760   7.299
14445WAT     H143577   0.805   6.684   7.347
14445WAT     H243578   0.707   6.725   7.224
14446WAT      O43579   0.198   5.922   3.486
14446WAT     H143580   0.199   5.885   3.393
14446WAT     H243581   0.290   5.919   3.524
14447WAT      O43582   8.094   9.088   9.111
14447WAT     H143583   8.147   9.138   9.043
14447WAT     H243584   8.143   9.004   9.137
14448WAT      O43585   1.190   6.720   2.489
14448WAT     H143586   1.182   6.814   2.521
14448WAT     H243587   1.113   6.699   2.429
14449WAT      O43588   0.741   9.208   7.588
14449WAT     H143589   0.787   9.295   7.610
14449WAT     H243590   0.703   9.169   7.671
14450WAT      O43591   3.416   7.633   2.234
14450WAT     H143592   3.317   7.645   2.232
14450WAT     H243593   3.446   7.584   2.152
14451WAT      O43594   6.481   0.589   0.143
14451WAT     H143595   6.432   0.566   0.228
14451WAT     H243596   6.435   0.546   0.066
14452WAT      O43597   6.514   8.463   3.707
14452WAT     H143598   6.586   8.511   3.757
14452WAT     H243599   6.437   8.445   3.769
14453WAT      O43600   1.371   3.763   6.610
14453WAT     H143601   1.417   3.718   6.687
14453WAT     H243602   1.437   3.781   6.537
14454WAT      O43603   8.465   2.801   0.064
14454WAT     H143604   8.436   2.829  -0.028
14454WAT     H243605   8.385   2.792   0.123
14455WAT      O43606   1.144   0.469   4.775
14455WAT     H143607   1.121   0.391   4.833
14455WAT     H243608   1.067   0.490   4.716
14456WAT      O43609   7.572   1.425   5.027
14456WAT     H143610   7.495   1.404   4.967
14456WAT     H243611   7.540   1.431   5.122
14457WAT      O43612   9.853   1.303   0.255
14457WAT     H143613   9.909   1.383   0.276
14457WAT     H243614   9.763   1.332   0.223
14458WAT      O43615   6.018   3.325   9.624
14458WAT     H143616   6.102   3.286   9.586
14458WAT     H243617   5.963   3.365   9.551
14459WAT      O43618   3.516   8.543   1.735
14459WAT     H143619   3.451   8.588   1.673
14459WAT     H243620   3.605   8.586   1.727
14460WAT      O43621   4.092   6.847   4.977
14460WAT     H143622   4.095   6.867   5.075
14460WAT     H243623   4.031   6.912   4.931
14461WAT      O43624   7.774   8.835   7.165
14461WAT     H143625   7.721   8.761   7.124
14461WAT     H243626   7.742   8.850   7.259
14462WAT      O43627   9.649   2.305   6.951
14462WAT     H143628   9.626   2.400   6.973
14462WAT     H243629   9.665   2.254   7.036
14463WAT      O43630   3.798   1.753   9.700
14463WAT     H143631   3.764   1.803   9.780
14463WAT     H243632   3.799   1.814   9.621
14464WAT      O43633   8.674   8.915   9.512
14464WAT     H143634   8.584   8.941   9.547
14464WAT     H243635   8.727   8.870   9.585
14465WAT      O43636   1.609   1.465   5.032
14465WAT     H143637   1.695   1.464   4.980
14465WAT     H243638   1.609   1.541   5.097
14466WAT      O43639   9.772   7.544   5.800
14466WAT     H143640   9.696   7.485   5.775
14466WAT     H243641   9.755   7.585   5.890
14467WAT      O43642   4.729   2.481   9.426
14467WAT     H143643   4.713   2.432   9.511
14467WAT     H243644   4.653   2.465   9.363
14468WAT      O43645   4.460   4.158   0.582
14468WAT     H143646   4.393   4.110   0.638
14468WAT     H243647   4.470   4.112   0.494
14469WAT      O43648   5.161   7.761   8.234
14469WAT     H143649   5.105   7.718   8.305
14469WAT     H243650   5.176   7.697   8.159
14470WAT      O43651   0.909   1.938   6.829
14470WAT     H143652   0.968   2.013   6.858
14470WAT     H243653   0.958   1.880   6.763
14471WAT      O43654   1.020   3.783   2.660
14471WAT     H143655   0.980   3.692   2.659
14471WAT     H243656   0.996   3.831   2.576
14472WAT      O43657   5.132   6.379   0.505
14472WAT     H143658   5.158   6.283   0.496
14472WAT     H243659   5.177   6.432   0.433
14473WAT      O43660   9.722   0.058   0.718
14473WAT     H143661   9.632   0.014   0.716
14473WAT     H243662   9.745   0.090   0.626
14474WAT      O43663   0.518   9.830   1.802
14474WAT     H143664   0.527   9.843   1.901
14474WAT     H243665   0.478   9.741   1.783
14475WAT      O43666   2.671   1.527   9.048
14475WAT     H143667   2.698   1.546   9.142
14475WAT     H243668   2.596   1.461   9.047
14476WAT      O43669   6.414   7.401   9.046
14476WAT     H143670   6.421   7.376   9.143
14476WAT     H243671   6.318   7.405   9.020
14477WAT      O43672   7.043   6.057   8.050
14477WAT     H143673   7.113   6.107   8.101
14477WAT     H243674   7.051   5.959   8.069
14478WAT      O43675   2.172   4.362   1.549
14478WAT     H143676   2.179   4.454   1.588
14478WAT     H243677   2.260   4.336   1.507
14479WAT      O43678   4.811   4.785   2.369
14479WAT     H143679   4.827   4.878   2.334
14479WAT     H243680   4.838   4.718   2.300
14480WAT      O43681   5.599   9.169   6.984
14480WAT     H143682   5.653   9.165   7.068
14480WAT     H243683   5.571   9.264   6.969
14481WAT      O43684   8.778   0.601   0.344
14481WAT     H143685   8.686   0.562   0.342
14481WAT     H243686   8.811   0.611   0.250
14482WAT      O43687   3.232   6.354   2.930
14482WAT     H143688   3.205   6.392   3.018
14482WAT     H243689   3.216   6.255   2.930
14483WAT      O43690   6.198   3.476   2.100
14483WAT     H143691   6.165   3.457   2.193
14483WAT     H243692   6.120   3.486   2.039
14484WAT      O43693   2.836   7.851   4.464
14484WAT     H143694   2.809   7.764   4.504
14484WAT     H243695   2.921   7.840   4.412
14485WAT      O43696   4.389   7.223   4.952
14485WAT     H143697   4.406   7.312   4.910
14485WAT     H243698   4.437   7.152   4.900
14486WAT      O43699   8.415   9.583   8.475
14486WAT     H143700   8.466   9.502   8.444
14486WAT     H243701   8.477   9.645   8.522
14487WAT      O43702   8.602   6.524   6.973
14487WAT     H143703   8.528   6.486   6.918
14487WAT     H243704   8.568   6.601   7.026
14488WAT      O43705   0.345   0.801   8.677
14488WAT     H143706   0.433   0.803   8.630
14488WAT     H243707   0.359   0.781   8.774
14489WAT      O43708   3.325   8.083   0.553
14489WAT     H143709   3.386   8.124   0.486
14489WAT     H243710   3.341   7.985   0.559
14490WAT      O43711   3.382   7.811   3.587
14490WAT     H143712   3.325   7.799   3.506
14490WAT     H243713   3.400   7.909   3.601
14491WAT      O43714   6.513   4.873   0.802
14491WAT     H143715   6.526   4.902   0.707
14491WAT     H243716   6.573   4.795   0.822
14492WAT      O43717   7.415   1.809   1.640
14492WAT     H143718   7.339   1.754   1.606
14492WAT     H243719   7.392   1.906   1.632
14493WAT      O43720   6.955   6.910   5.379
14493WAT     H143721   7.017   6.982   5.409
14493WAT     H243722   6.976   6.885   5.284
14494WAT      O43723   7.661   4.328   1.858
14494WAT     H143724   7.582   4.309   1.799
14494WAT     H243725   7.659   4.267   1.937
14495WAT      O43726   5.327   0.703   0.710
14495WAT     H143727   5.417   0.744   0.719
14495WAT     H243728   5.276   0.750   0.638
14496WAT      O43729   8.371   0.200   2.835
14496WAT     H143730   8.374   0.101   2.824
14496WAT     H243731   8.331   0.222   2.924
14497WAT      O43732   9.385   0.285   5.871
14497WAT     H143733   9.394   0.223   5.793
14497WAT     H243734   9.426   0.243   5.952
14498WAT      O43735   2.962   4.097   9.844
14498WAT     H143736   2.892   4.117   9.912
14498WAT     H243737   3.052   4.121   9.881
14499WAT      O43738   5.129   5.703   6.693
14499WAT     H143739   5.114   5.664   6.602
14499WAT     H243740   5.050   5.759   6.718
14500WAT      O43741   0.161   2.696   7.333
14500WAT     H143742   0.117   2.651   7.411
14500WAT     H243743   0.234   2.636   7.298
14501WAT      O43744   8.000   0.744   3.671
14501WAT     H143745   8.087   0.755   3.624
14501WAT     H243746   7.935   0.697   3.611
14502WAT      O43747   2.953   6.094   1.232
14502WAT     H143748   3.016   6.031   1.184
14502WAT     H243749   2.860   6.077   1.200
14503WAT      O43750   0.432   7.204   5.411
14503WAT     H143751   0.455   7.109   5.436
14503WAT     H243752   0.476   7.267   5.476
14504WAT      O43753   3.841   5.192   2.437
14504WAT     H143754   3.788   5.203   2.521
14504WAT     H243755   3.914   5.261   2.434
14505WAT      O43756   7.004   0.075   7.768
14505WAT     H143757   6.922   0.027   7.736
14505WAT     H243758   6.984   0.172   7.778
14506WAT      O43759   9.078   8.010   4.712
14506WAT     H143760   9.065   7.986   4.809
14506WAT     H243761   9.128   7.936   4.667
14507WAT      O43762   5.521   0.668   1.697
14507WAT     H143763   5.529   0.704   1.605
14507WAT     H243764   5.447   0.600   1.700
14508WAT      O43765   4.814   0.780   5.313
14508WAT     H143766   4.854   0.857   5.363
14508WAT     H243767   4.767   0.719   5.378
14509WAT      O43768   6.591   2.794   4.617
14509WAT     H143769   6.575   2.719   4.680
14509WAT     H243770   6.506   2.846   4.606
14510WAT      O43771   5.806   6.874   1.602
14510WAT     H143772   5.803   6.779   1.634
14510WAT     H243773   5.835   6.934   1.676
14511WAT      O43774   1.646   7.763   5.460
14511WAT     H143775   1.597   7.680   5.436
14511WAT     H243776   1.740   7.757   5.428
14512WAT      O43777   2.469   7.543   8.576
14512WAT     H143778   2.420   7.461   8.547
14512WAT     H243779   2.534   7.520   8.649
14513WAT      O43780   0.806   3.589   7.299
14513WAT     H143781   0.779   3.539   7.381
14513WAT     H243782   0.832   3.682   7.323
14514WAT      O43783   6.043   6.307   8.751
14514WAT     H143784   6.132   6.262   8.754
14514WAT     H243785   6.049   6.396   8.796
14515WAT      O43786   1.967   4.292   5.770
14515WAT     H143787   1.950   4.313   5.866
14515WAT     H243788   2.000   4.374   5.723
14516WAT      O43789   1.131   3.251   9.881
14516WAT     H143790   1.154   3.204   9.966
14516WAT     H243791   1.129   3.350   9.897
14517WAT      O43792   1.710   6.556   0.312
14517WAT     H143793   1.789   6.538   0.370
14517WAT     H243794   1.723   6.514   0.223
14518WAT      O43795   9.504   9.446   9.338
14518WAT     H143796   9.603   9.431   9.327
14518WAT     H243797   9.464   9.469   9.250
14519WAT      O43798   2.233   8.433   9.250
14519WAT     H143799   2.249   8.532   9.249
14519WAT     H243800   2.321   8.385   9.257
14520WAT      O43801   7.213   6.680   8.915
14520WAT     H143802   7.251   6.673   9.007
14520WAT     H243803   7.281   6.720   8.854
14521WAT      O43804   1.093   0.283   6.928
14521WAT     H143805   1.109   0.336   6.845
14521WAT     H243806   1.032   0.206   6.909
14522WAT      O43807   8.257   5.633   2.485
14522WAT     H143808   8.263   5.733   2.490
14522WAT     H243809   8.272   5.604   2.391
14523WAT      O43810   8.730   7.569   9.208
14523WAT     H143811   8.713   7.667   9.221
14523WAT     H243812   8.825   7.548   9.232
14524WAT      O43813   3.156   4.772   7.676
14524WAT     H143814   3.142   4.675   7.698
14524WAT     H243815   3.072   4.810   7.637
14525WAT      O43816   5.321   3.374   4.841
14525WAT     H143817   5.223   3.363   4.859
14525WAT     H243818   5.340   3.360   4.744
14526WAT      O43819   9.858   2.919   0.561
14526WAT     H143820   9.801   2.996   0.533
14526WAT     H243821   9.944   2.922   0.510
14527WAT      O43822   3.274   7.534   6.084
14527WAT     H143823   3.328   7.454   6.058
14527WAT     H243824   3.329   7.594   6.143
14528WAT      O43825   5.731   9.581   6.766
14528WAT     H143826   5.769   9.559   6.855
14528WAT     H243827   5.672   9.505   6.736
14529WAT      O43828   3.157   3.569   8.979
14529WAT     H143829   3.205   3.597   9.062
14529WAT     H243830   3.219   3.577   8.900
14530WAT      O43831   3.702   0.634   5.375
14530WAT     H143832   3.799   0.615   5.393
14530WAT     H243833   3.686   0.732   5.381
14531WAT      O43834   6.197   3.351   6.535
14531WAT     H143835   6.261   3.279   6.562
14531WAT     H243836   6.203   3.427   6.600
14532WAT      O43837   7.536   0.798   7.995
14532WAT     H143838   7.440   0.800   7.965
14532WAT     H243839   7.546   0.852   8.078
14533WAT      O43840   7.235   5.543   5.470
14533WAT     H143841   7.295   5.464   5.458
14533WAT     H243842   7.256   5.612   5.401
14534WAT      O43843   0.035   3.755   0.161
14534WAT     H143844  -0.036   3.761   0.092
14534WAT     H243845   0.116   3.711   0.123
14535WAT      O43846   0.345   1.387   6.675
14535WAT     H143847   0.381   1.301   6.638
14535WAT     H243848   0.373   1.463   6.615
14536WAT      O43849   8.887   6.392   5.799
14536WAT     H143850   8.847   6.400   5.890
14536WAT     H243851   8.976   6.349   5.805
14537WAT      O43852   2.234   4.092   7.275
14537WAT     H143853   2.182   4.015   7.312
14537WAT     H243854   2.171   4.157   7.233
14538WAT      O43855   1.666   9.522   6.064
14538WAT     H143856   1.642   9.461   5.989
14538WAT     H243857   1.756   9.562   6.047
14539WAT      O43858   9.152   6.574   0.268
14539WAT     H143859   9.246   6.588   0.236
14539WAT     H243860   9.149   6.584   0.367
14540WAT      O43861   7.361   7.187   9.333
14540WAT     H143862   7.333   7.178   9.428
14540WAT     H243863   7.454   7.153   9.322
14541WAT      O43864   3.128   5.895   5.503
14541WAT     H143865   3.182   5.816   5.476
14541WAT     H243866   3.150   5.973   5.443
14542WAT      O43867   3.711   6.832   6.827
14542WAT     H143868   3.731   6.929   6.815
14542WAT     H243869   3.617   6.814   6.801
14543WAT      O43870   3.885   3.381   6.445
14543WAT     H143871   3.875   3.283   6.464
14543WAT     H243872   3.838   3.434   6.516
14544WAT      O43873   2.133   9.116   5.082
14544WAT     H143874   2.218   9.149   5.042
14544WAT     H243875   2.108   9.172   5.161
14545WAT      O43876   0.787   6.240   6.677
14545WAT     H143877   0.768   6.184   6.596
14545WAT     H243878   0.702   6.284   6.708
14546WAT      O43879   9.628   0.984   4.781
14546WAT     H143880   9.645   0.933   4.697
14546WAT     H243881   9.572   0.929   4.844
14547WAT      O43882   0.369   9.084   0.691
14547WAT     H143883   0.427   9.030   0.753
14547WAT     H243884   0.324   9.023   0.626
14548WAT      O43885   5.220   2.315   9.062
14548WAT     H143886   5.285   2.254   9.108
14548WAT     H243887   5.139   2.327   9.119
14549WAT      O43888   2.097   7.072   8.865
14549WAT     H143889   2.054   6.983   8.850
14549WAT     H243890   2.105   7.120   8.778
14550WAT      O43891   7.492   1.530   9.361
14550WAT     H143892   7.483   1.442   9.408
14550WAT     H243893   7.416   1.543   9.298
14551WAT      O43894   3.477   6.996   0.979
14551WAT     H143895   3.505   7.043   0.896
14551WAT     H243896   3.466   7.062   1.053
14552WAT      O43897   5.142   5.151   8.423
14552WAT     H143898   5.235   5.185   8.408
14552WAT     H243899   5.101   5.200   8.501
14553WAT      O43900   9.261   9.166   1.148
14553WAT     H143901   9.284   9.199   1.057
14553WAT     H243902   9.244   9.243   1.209
14554WAT      O43903   5.632   9.666   9.662
14554WAT     H143904   5.683   9.679   9.576
14554WAT     H243905   5.626   9.754   9.710
14555WAT      O43906   1.951   9.712   5.022
14555WAT     H143907   1.990   9.804   5.022
14555WAT     H243908   1.853   9.717   5.040
14556WAT      O43909   0.570   8.346   0.765
14556WAT     H143910   0.493   8.407   0.783
14556WAT     H243911   0.537   8.258   0.731
14557WAT      O43912   9.328   0.394   6.865
14557WAT     H143913   9.397   0.425   6.930
14557WAT     H243914   9.244   0.369   6.914
14558WAT      O43915   4.097   4.118   4.826
14558WAT     H143916   4.156   4.175   4.769
14558WAT     H243917   4.079   4.031   4.780
14559WAT      O43918   8.770   9.196   7.623
14559WAT     H143919   8.696   9.129   7.634
14559WAT     H243920   8.843   9.156   7.567
14560WAT      O43921   5.413   5.263   9.544
14560WAT     H143922   5.354   5.229   9.617
14560WAT     H243923   5.445   5.355   9.568
14561WAT      O43924   2.088   2.311   0.169
14561WAT     H143925   2.081   2.403   0.130
14561WAT     H243926   2.067   2.243   0.099
14562WAT      O43927   5.370   4.916   2.047
14562WAT     H143928   5.457   4.963   2.060
14562WAT     H243929   5.385   4.817   2.050
14563WAT      O43930   8.451   9.341   9.035
14563WAT     H143931   8.487   9.425   8.995
14563WAT     H243932   8.524   9.273   9.043
14564WAT      O43933   3.731   7.944   5.965
14564WAT     H143934   3.782   8.027   5.943
14564WAT     H243935   3.746   7.920   6.061
14565WAT      O43936   5.153   5.550   1.653
14565WAT     H143937   5.164   5.512   1.745
14565WAT     H243938   5.143   5.649   1.659
14566WAT      O43939   1.648   1.683   8.916
14566WAT     H143940   1.611   1.604   8.965
14566WAT     H243941   1.578   1.755   8.912
14567WAT      O43942   3.093   0.144   9.107
14567WAT     H143943   3.045   0.131   9.194
14567WAT     H243944   3.096   0.058   9.058
14568WAT      O43945   5.953   2.365   1.548
14568WAT     H143946   5.928   2.381   1.644
14568WAT     H243947   6.052   2.373   1.538
14569WAT      O43948   7.719   2.611   7.364
14569WAT     H143949   7.793   2.612   7.296
14569WAT     H243950   7.656   2.536   7.344
14570WAT      O43951   4.173   9.733   9.631
14570WAT     H143952   4.150   9.636   9.621
14570WAT     H243953   4.164   9.759   9.727
14571WAT      O43954   3.639   7.085   4.894
14571WAT     H143955   3.589   7.058   4.976
14571WAT     H243956   3.737   7.075   4.909
14572WAT      O43957   4.587   0.816   2.448
14572WAT     H143958   4.668   0.823   2.505
14572WAT     H243959   4.506   0.810   2.506
14573WAT      O43960   7.768   0.371   2.741
14573WAT     H143961   7.796   0.328   2.655
14573WAT     H243962   7.673   0.402   2.733
14574WAT      O43963   7.317   0.022   2.827
14574WAT     H143964   7.326   0.111   2.782
14574WAT     H243965   7.394  -0.036   2.803
14575WAT      O43966   7.897   7.751   2.194
14575WAT     H143967   7.965   7.682   2.216
14575WAT     H243968   7.891   7.762   2.095
14576WAT      O43969   7.031   8.922   4.455
14576WAT     H143970   6.982   8.851   4.506
14576WAT     H243971   6.981   9.008   4.461
14577WAT      O43972   7.177   8.348   5.468
14577WAT     H143973   7.198   8.410   5.544
14577WAT     H243974   7.223   8.380   5.385
14578WAT      O43975   7.594   5.265   7.490
14578WAT     H143976   7.574   5.181   7.541
14578WAT     H243977   7.660   5.319   7.541
14579WAT      O43978   4.416   8.857   1.963
14579WAT     H143979   4.479   8.847   2.040
14579WAT     H243980   4.409   8.953   1.938
14580WAT      O43981   0.547   6.911   5.824
14580WAT     H143982   0.551   6.816   5.854
14580WAT     H243983   0.458   6.950   5.849
14581WAT      O43984   9.333   0.229   4.118
14581WAT     H143985   9.282   0.155   4.164
14581WAT     H243986   9.378   0.192   4.036
14582WAT      O43987   0.349   0.467   0.350
14582WAT     H143988   0.303   0.555   0.340
14582WAT     H243989   0.446   0.477   0.324
14583WAT      O43990   8.497   3.661   2.911
14583WAT     H143991   8.588   3.625   2.892
14583WAT     H243992   8.434   3.585   2.930
14584WAT      O43993   3.049   0.647   0.631
14584WAT     H143994   3.064   0.625   0.535
14584WAT     H243995   3.108   0.724   0.657
14585WAT      O43996   1.209   6.033   2.673
14585WAT     H143997   1.253   6.114   2.634
14585WAT     H243998   1.139   6.000   2.610
14586WAT      O43999   3.168   0.362   0.698
14586WAT     H144000   3.160   0.380   0.600
14586WAT     H244001   3.115   0.280   0.721
14587WAT      O44002   9.456   3.813   4.951
14587WAT     H144003   9.466   3.910   4.974
14587WAT     H244004   9.366   3.781   4.978
14588WAT      O44005   5.154   5.198   0.121
14588WAT     H144006   5.134   5.210   0.218
14588WAT     H244007   5.226   5.130   0.109
14589WAT      O44008   7.778   1.543   4.215
14589WAT     H144009   7.743   1.636   4.207
14589WAT     H244010   7.836   1.522   4.136
14590WAT      O44011   6.895   9.551   3.037
14590WAT     H144012   6.813   9.504   3.071
14590WAT     H244013   6.973   9.488   3.039
14591WAT      O44014   6.321   5.713   9.779
14591WAT     H144015   6.233   5.707   9.734
14591WAT     H244016   6.330   5.801   9.825
14592WAT      O44017   2.577   3.328   8.931
14592WAT     H144018   2.565   3.349   9.029
14592WAT     H244019   2.507   3.263   8.902
14593WAT      O44020   7.350   6.803   0.214
14593WAT     H144021   7.347   6.707   0.243
14593WAT     H244022   7.446   6.831   0.203
14594WAT      O44023   9.163   6.431   2.696
14594WAT     H144024   9.202   6.450   2.786
14594WAT     H244025   9.136   6.335   2.690
14595WAT      O44026   7.768   6.901   3.937
14595WAT     H144027   7.752   6.835   4.011
14595WAT     H244028   7.722   6.869   3.854
14596WAT      O44029   3.482   1.056   7.097
14596WAT     H144030   3.400   0.999   7.087
14596WAT     H244031   3.552   1.004   7.147
14597WAT      O44032   7.188   2.060   2.396
14597WAT     H144033   7.131   1.981   2.375
14597WAT     H244034   7.280   2.030   2.422
14598WAT      O44035   5.720   1.025   0.762
14598WAT     H144036   5.651   0.953   0.753
14598WAT     H244037   5.811   0.983   0.761
14599WAT      O44038   7.918   1.061   6.687
14599WAT     H144039   7.860   1.020   6.758
14599WAT     H244040   7.860   1.104   6.618
14600WAT      O44041   4.789   7.420   2.099
14600WAT     H144042   4.692   7.400   2.084
14600WAT     H244043   4.836   7.427   2.011
14601WAT      O44044   8.085   4.785   3.620
14601WAT     H144045   7.998   4.835   3.626
14601WAT     H244046   8.071   4.690   3.646
14602WAT      O44047   1.384   4.020   8.495
14602WAT     H144048   1.320   4.009   8.420
14602WAT     H244049   1.366   3.950   8.565
14603WAT      O44050   9.258   9.706   0.378
14603WAT     H144051   9.292   9.753   0.297
14603WAT     H244052   9.159   9.715   0.383
14604WAT      O44053   6.059   5.163   2.397
14604WAT     H144054   6.133   5.188   2.334
14604WAT     H244055   5.993   5.238   2.404
14605WAT      O44056   2.237   9.461   1.270
14605WAT     H144057   2.276   9.465   1.178
14605WAT     H244058   2.177   9.381   1.278
14606WAT      O44059   8.682   5.907   0.895
14606WAT     H144060   8.652   5.994   0.857
14606WAT     H244061   8.603   5.855   0.926
14607WAT      O44062   1.570   1.526   0.677
14607WAT     H144063   1.590   1.600   0.742
14607WAT     H244064   1.475   1.496   0.689
14608WAT      O44065   6.451   9.161   5.373
14608WAT     H144066   6.487   9.253   5.355
14608WAT     H244067   6.351   9.164   5.375
14609WAT      O44068   6.818   0.901   6.689
14609WAT     H144069   6.821   0.928   6.593
14609WAT     H244070   6.902   0.852   6.712
14610WAT      O44071   7.940   3.836   3.048
14610WAT     H144072   7.932   3.777   2.968
14610WAT     H244073   7.904   3.927   3.026
14611WAT      O44074   9.160   7.961   5.984
14611WAT     H144075   9.238   7.955   6.048
14611WAT     H244076   9.191   7.999   5.897
14612WAT      O44077   3.757   2.602   8.476
14612WAT     H144078   3.711   2.680   8.435
14612WAT     H244079   3.709   2.518   8.452
14613WAT      O44080   8.570   2.013   5.915
14613WAT     H144081   8.556   1.915   5.903
14613WAT     H244082   8.657   2.039   5.873
14614WAT      O44083   1.394   3.718   7.839
14614WAT     H144084   1.389   3.731   7.938
14614WAT     H244085   1.452   3.789   7.799
14615WAT      O44086   5.750   1.722   2.485
14615WAT     H144087   5.752   1.814   2.523
14615WAT     H244088   5.844   1.688   2.474
14616WAT      O44089   7.401   9.355   7.868
14616WAT     H144090   7.434   9.343   7.774
14616WAT     H244091   7.455   9.298   7.930
14617WAT      O44092   6.145   6.967   9.270
14617WAT     H144093   6.190   6.962   9.180
14617WAT     H244094   6.209   6.941   9.341
14618WAT      O44095   6.721   1.397   6.403
14618WAT     H144096   6.681   1.486   6.382
14618WAT     H244097   6.668   1.325   6.358
14619WAT      O44098   4.239   8.813   6.065
14619WAT     H144099   4.235   8.861   6.153
14619WAT     H244100   4.169   8.851   6.004
14620WAT      O44101   6.979   7.822   2.930
14620WAT     H144102   6.955   7.727   2.949
14620WAT     H244103   6.974   7.838   2.831
14621WAT      O44104   8.106   6.189   6.583
14621WAT     H144105   8.131   6.228   6.672
14621WAT     H244106   8.007   6.179   6.578
14622WAT      O44107   6.094   6.224   3.824
14622WAT     H144108   6.003   6.255   3.853
14622WAT     H244109   6.085   6.143   3.767
14623WAT      O44110   5.774   6.186   1.124
14623WAT     H144111   5.717   6.180   1.206
14623WAT     H244112   5.721   6.154   1.045
14624WAT      O44113   5.830   3.704   0.146
14624WAT     H144114   5.886   3.644   0.089
14624WAT     H244115   5.887   3.773   0.189
14625WAT      O44116   0.795   6.780   0.314
14625WAT     H144117   0.782   6.879   0.319
14625WAT     H244118   0.856   6.752   0.388
14626WAT      O44119   0.139   0.442   3.705
14626WAT     H144120   0.192   0.484   3.631
14626WAT     H244121   0.050   0.413   3.669
14627WAT      O44122   4.968   6.693   5.304
14627WAT     H144123   5.019   6.769   5.346
14627WAT     H244124   4.921   6.641   5.375
14628WAT      O44125   7.166   4.626   5.009
14628WAT     H144126   7.079   4.589   4.975
14628WAT     H244127   7.148   4.680   5.091
14629WAT      O44128   3.878   3.537   8.445
14629WAT     H144129   3.951   3.483   8.486
14629WAT     H244130   3.838   3.598   8.513
14630WAT      O44131   9.234   1.244   5.261
14630WAT     H144132   9.265   1.272   5.170
14630WAT     H244133   9.189   1.321   5.306
14631WAT      O44134   4.812   4.225   4.355
14631WAT     H144135   4.887   4.257   4.414
14631WAT     H244136   4.762   4.304   4.320
14632WAT      O44137   2.420   9.532   9.119
14632WAT     H144138   2.331   9.489   9.131
14632WAT     H244139   2.423   9.579   9.030
14633WAT      O44140   2.116   3.825   8.400
14633WAT     H144141   2.199   3.773   8.380
14633WAT     H244142   2.097   3.888   8.325
14634WAT      O44143   7.353   4.596   3.646
14634WAT     H144144   7.286   4.531   3.609
14634WAT     H244145   7.321   4.689   3.630
14635WAT      O44146   3.773   7.759   9.348
14635WAT     H144147   3.764   7.805   9.259
14635WAT     H244148   3.688   7.767   9.399
14636WAT      O44149   2.288   6.998   6.799
14636WAT     H144150   2.216   7.049   6.751
14636WAT     H244151   2.247   6.919   6.845
14637WAT      O44152   2.766   0.853   0.295
14637WAT     H144153   2.697   0.807   0.239
14637WAT     H244154   2.784   0.944   0.257
14638WAT      O44155   6.359   7.457   3.178
14638WAT     H144156   6.358   7.537   3.238
14638WAT     H244157   6.449   7.415   3.179
14639WAT      O44158   5.626   3.213   1.303
14639WAT     H144159   5.666   3.182   1.217
14639WAT     H244160   5.690   3.195   1.378
14640WAT      O44161   9.693   6.163   9.415
14640WAT     H144162   9.693   6.254   9.372
14640WAT     H244163   9.612   6.112   9.386
14641WAT      O44164   9.288   1.340   0.895
14641WAT     H144165   9.222   1.414   0.908
14641WAT     H244166   9.351   1.337   0.972
14642WAT      O44167   6.845   0.135   8.421
14642WAT     H144168   6.903   0.117   8.501
14642WAT     H244169   6.902   0.169   8.346
14643WAT      O44170   8.184   8.922   9.459
14643WAT     H144171   8.161   8.895   9.366
14643WAT     H244172   8.100   8.946   9.508
14644WAT      O44173   7.416   3.772   5.716
14644WAT     H144174   7.385   3.867   5.716
14644WAT     H244175   7.378   3.725   5.636
14645WAT      O44176   7.000   5.559   3.231
14645WAT     H144177   6.950   5.634   3.274
14645WAT     H244178   6.939   5.509   3.169
14646WAT      O44179   0.456   2.410   8.256
14646WAT     H144180   0.526   2.465   8.212
14646WAT     H244181   0.497   2.350   8.324
14647WAT      O44182   2.504   8.932   1.048
14647WAT     H144183   2.531   8.958   0.955
14647WAT     H244184   2.484   8.834   1.051
14648WAT      O44185   8.710   3.152   8.784
14648WAT     H144186   8.743   3.216   8.715
14648WAT     H244187   8.714   3.059   8.748
14649WAT      O44188   9.694   3.308   7.780
14649WAT     H144189   9.682   3.359   7.695
14649WAT     H244190   9.792   3.294   7.796
14650WAT      O44191   3.251   5.138   5.132
14650WAT     H144192   3.321   5.165   5.066
14650WAT     H244193   3.284   5.158   5.225
14651WAT      O44194   5.466   3.887   0.751
14651WAT     H144195   5.462   3.928   0.842
14651WAT     H244196   5.467   3.960   0.682
14652WAT      O44197   0.644   4.264   3.926
14652WAT     H144198   0.638   4.195   3.854
14652WAT     H244199   0.561   4.262   3.982
14653WAT      O44200   3.566   2.753   3.847
14653WAT     H144201   3.535   2.780   3.756
14653WAT     H244202   3.626   2.673   3.840
14654WAT      O44203   2.729   2.000   7.038
14654WAT     H144204   2.778   1.946   7.106
14654WAT     H244205   2.722   2.095   7.070
14655WAT      O44206   0.359   4.026   9.075
14655WAT     H144207   0.268   4.060   9.098
14655WAT     H244208   0.410   4.009   9.159
14656WAT      O44209   4.718   9.027   8.546
14656WAT     H144210   4.797   9.066   8.595
14656WAT     H244211   4.723   9.053   8.450
14657WAT      O44212   3.556   7.026   6.420
14657WAT     H144213   3.577   6.928   6.420
14657WAT     H244214   3.495   7.047   6.496
14658WAT      O44215   3.706   5.633   8.980
14658WAT     H144216   3.802   5.640   9.008
14658WAT     H244217   3.687   5.540   8.947
14659WAT      O44218   7.426   6.851   7.649
14659WAT     H144219   7.411   6.758   7.682
14659WAT     H244220   7.521   6.863   7.623
14660WAT      O44221   6.523   2.570   7.871
14660WAT     H144222   6.428   2.549   7.892
14660WAT     H244223   6.526   2.641   7.800
14661WAT      O44224   4.690   7.249   9.574
14661WAT     H144225   4.783   7.280   9.595
14661WAT     H244226   4.627   7.282   9.644
14662WAT      O44227   0.525   5.127   9.346
14662WAT     H144228   0.623   5.108   9.338
14662WAT     H244229   0.477   5.044   9.373
14663WAT      O44230   8.737   3.555   4.378
14663WAT     H144231   8.647   3.528   4.413
14663WAT     H244232   8.799   3.477   4.382
14664WAT      O44233   6.343   0.055   0.277
14664WAT     H144234   6.253   0.022   0.307
14664WAT     H244235   6.375   0.126   0.340
14665WAT      O44236   5.324   1.165   1.646
14665WAT     H144237   5.277   1.076   1.650
14665WAT     H244238   5.386   1.174   1.724
14666WAT      O44239   2.923   6.019   8.831
14666WAT     H144240   2.848   6.039   8.767
14666WAT     H244241   2.897   6.049   8.922
14667WAT      O44242   5.243   9.386   0.995
14667WAT     H144243   5.270   9.311   1.055
14667WAT     H244244   5.280   9.472   1.031
14668WAT      O44245   8.682   6.341   2.168
14668WAT     H144246   8.597   6.290   2.179
14668WAT     H244247   8.725   6.354   2.257
14669WAT      O44248   3.501   4.874   2.480
14669WAT     H144249   3.480   4.870   2.577
14669WAT     H244250   3.418   4.852   2.428
14670WAT      O44251   2.035   4.539   7.794
14670WAT     H144252   2.073   4.450   7.769
14670WAT     H244253   2.059   4.607   7.724
14671WAT      O44254   5.505   9.267   5.962
14671WAT     H144255   5.408   9.266   5.937
14671WAT     H244256   5.516   9.308   6.052
14672WAT      O44257   2.406   1.694   7.726
14672WAT     H144258   2.351   1.776   7.712
14672WAT     H244259   2.440   1.692   7.820
14673WAT      O44260   4.805   5.658   0.484
14673WAT     H144261   4.885   5.675   0.427
14673WAT     H244262   4.729   5.628   0.426
14674WAT      O44263   5.427   9.748   1.459
14674WAT     H144264   5.458   9.816   1.392
14674WAT     H244265   5.499   9.680   1.472
14675WAT      O44266   2.224   0.203   2.262
14675WAT     H144267   2.221   0.105   2.245
14675WAT     H244268   2.282   0.247   2.193
14676WAT      O44269   1.389   2.134   1.185
14676WAT     H144270   1.362   2.072   1.112
14676WAT     H244271   1.375   2.229   1.156
14677WAT      O44272   2.684   4.588   6.103
14677WAT     H144273   2.614   4.602   6.032
14677WAT     H244274   2.652   4.627   6.189
14678WAT      O44275   5.751   3.004   5.686
14678WAT     H144276   5.712   3.076   5.628
14678WAT     H244277   5.730   3.024   5.782
14679WAT      O44278   7.560   3.599   7.705
14679WAT     H144279   7.591   3.663   7.775
14679WAT     H244280   7.529   3.515   7.749
14680WAT      O44281   3.296   8.991   6.390
14680WAT     H144282   3.233   9.040   6.329
14680WAT     H244283   3.329   9.053   6.461
14681WAT      O44284   2.540   7.664   7.381
14681WAT     H144285   2.471   7.716   7.432
14681WAT     H244286   2.547   7.700   7.288
14682WAT      O44287   6.698   9.581   8.645
14682WAT     H144288   6.599   9.581   8.660
14682WAT     H244289   6.728   9.490   8.615
14683WAT      O44290   0.906   8.906   9.117
14683WAT     H144291   0.814   8.870   9.135
14683WAT     H244292   0.941   8.949   9.200
14684WAT      O44293   9.463   0.544   6.043
14684WAT     H144294   9.546   0.490   6.026
14684WAT     H244295   9.411   0.502   6.117
14685WAT      O44296   7.071   6.891   3.904
14685WAT     H144297   7.123   6.893   3.819
14685WAT     H244298   7.116   6.948   3.972
14686WAT      O44299   3.792   6.380   0.624
14686WAT     H144300   3.757   6.292   0.594
14686WAT     H244301   3.746   6.453   0.574
14687WAT      O44302   6.106   2.456   4.415
14687WAT     H144303   6.204   2.473   4.402
14687WAT     H244304   6.055   2.540   4.397
14688WAT      O44305   8.796   4.005   7.601
14688WAT     H144306   8.727   3.982   7.533
14688WAT     H244307   8.806   4.104   7.607
14689WAT      O44308   8.438   7.735   7.134
14689WAT     H144309   8.485   7.714   7.049
14689WAT     H244310   8.426   7.834   7.143
14690WAT      O44311   2.817   6.539   6.178
14690WAT     H144312   2.799   6.462   6.238
14690WAT     H244313   2.780   6.623   6.218
14691WAT      O44314   6.821   3.144   1.867
14691WAT     H144315   6.782   3.222   1.917
14691WAT     H244316   6.882   3.093   1.927
14692WAT      O44317   8.045   2.949   1.514
14692WAT     H144318   8.114   2.953   1.442
14692WAT     H244319   7.988   2.868   1.501
14693WAT      O44320   9.824   4.086   8.848
14693WAT     H144321   9.769   4.161   8.884
14693WAT     H244322   9.819   4.008   8.910
14694WAT      O44323   7.567   5.307   9.408
14694WAT     H144324   7.562   5.407   9.412
14694WAT     H244325   7.647   5.275   9.458
14695WAT      O44326   9.688   7.680   6.670
14695WAT     H144327   9.781   7.714   6.653
14695WAT     H244328   9.685   7.636   6.759
14696WAT      O44329   7.394   6.328   0.295
14696WAT     H144330   7.334   6.287   0.225
14696WAT     H244331   7.358   6.417   0.322
14697WAT      O44332   7.993   3.897   6.248
14697WAT     H144333   7.953   3.835   6.316
14697WAT     H244334   8.079   3.858   6.214
14698WAT      O44335   4.006   0.982   0.246
14698WAT     H144336   4.003   0.886   0.274
14698WAT     H244337   4.087   1.025   0.286
14699WAT      O44338   0.928   8.447   5.394
14699WAT     H144339   0.966   8.507   5.464
14699WAT     H244340   0.845   8.488   5.356
14700WAT      O44341   7.224   7.245   3.494
14700WAT     H144342   7.181   7.299   3.566
14700WAT     H244343   7.241   7.152   3.527
14701WAT      O44344   4.172   6.395   8.150
14701WAT     H144345   4.198   6.448   8.070
14701WAT     H244346   4.106   6.325   8.123
14702WAT      O44347   5.036   7.047   6.390
14702WAT     H144348   5.104   7.008   6.451
14702WAT     H244349   5.019   7.143   6.416
14703WAT      O44350   7.540   5.420   7.820
14703WAT     H144351   7.574   5.509   7.851
14703WAT     H244352   7.617   5.361   7.798
14704WAT      O44353   0.772   5.165   0.427
14704WAT     H144354   0.720   5.136   0.347
14704WAT     H244355   0.863   5.125   0.424
14705WAT      O44356   0.548   6.909   8.161
14705WAT     H144357   0.548   7.009   8.160
14705WAT     H244358   0.461   6.876   8.200
14706WAT      O44359   8.943   7.872   0.107
14706WAT     H144360   9.014   7.871   0.036
14706WAT     H244361   8.896   7.784   0.108
14707WAT      O44362   6.459   0.437   1.119
14707WAT     H144363   6.497   0.499   1.050
14707WAT     H244364   6.453   0.485   1.207
14708WAT      O44365   5.590   2.106   0.040
14708WAT     H144366   5.560   2.187   0.089
14708WAT     H244367   5.642   2.047   0.101
14709WAT      O44368   7.539   9.008   8.199
14709WAT     H144369   7.444   9.000   8.228
14709WAT     H244370   7.598   8.955   8.260
14710WAT      O44371   6.658   1.966   1.794
14710WAT     H144372   6.685   2.011   1.708
14710WAT     H244373   6.624   1.875   1.774
14711WAT      O44374   1.671   0.117   8.203
14711WAT     H144375   1.631   0.185   8.265
14711WAT     H244376   1.598   0.076   8.147
14712WAT      O44377   0.928   1.742   0.375
14712WAT     H144378   1.012   1.731   0.429
14712WAT     H244379   0.879   1.823   0.406
14713WAT      O44380   6.308   3.228   6.198
14713WAT     H144381   6.305   3.240   6.099
14713WAT     H244382   6.214   3.225   6.233
14714WAT      O44383   7.699   8.974   2.936
14714WAT     H144384   7.683   9.035   2.858
14714WAT     H244385   7.717   9.028   3.018
14715WAT      O44386   2.142   1.972   9.681
14715WAT     H144387   2.232   1.983   9.639
14715WAT     H244388   2.132   1.878   9.713
14716WAT      O44389   2.069   6.576   9.179
14716WAT     H144390   2.136   6.638   9.219
14716WAT     H244391   1.991   6.567   9.242
14717WAT      O44392   7.851   4.114   3.032
14717WAT     H144393   7.759   4.092   3.065
14717WAT     H244394   7.849   4.201   2.984
14718WAT      O44395   0.524   0.938   2.396
14718WAT     H144396   0.542   0.947   2.494
14718WAT     H244397   0.453   0.869   2.382
14719WAT      O44398   8.977   7.020   3.900
14719WAT     H144399   9.056   7.053   3.951
14719WAT     H244400   9.006   6.987   3.811
14720WAT      O44401   6.620   7.246   4.813
14720WAT     H144402   6.592   7.341   4.822
14720WAT     H244403   6.636   7.207   4.904
14721WAT      O44404   2.267   3.733   6.112
14721WAT     H144405   2.225   3.646   6.140
14721WAT     H244406   2.227   3.762   6.025
14722WAT      O44407   0.066   1.120   8.615
14722WAT     H144408   0.128   1.051   8.578
14722WAT     H244409   0.029   1.175   8.540
14723WAT      O44410   2.351   2.773   2.393
14723WAT     H144411   2.407   2.792   2.312
14723WAT     H244412   2.256   2.796   2.373
14724WAT      O44413   0.585   5.604   8.329
14724WAT     H144414   0.538   5.667   8.391
14724WAT     H244415   0.519   5.542   8.288
14725WAT      O44416   5.606   7.133   2.165
14725WAT     H144417   5.558   7.055   2.204
14725WAT     H244418   5.556   7.167   2.085
14726WAT      O44419   7.318   0.285   7.466
14726WAT     H144420   7.408   0.324   7.447
14726WAT     H244421   7.278   0.248   7.382
14727WAT      O44422   8.391   9.244   7.634
14727WAT     H144423   8.364   9.272   7.726
14727WAT     H244424   8.311   9.207   7.586
14728WAT      O44425   3.085   7.066   7.923
14728WAT     H144426   3.129   7.085   8.011
14728WAT     H244427   3.032   7.147   7.895
14729WAT      O44428   2.392   2.508   2.305
14729WAT     H144429   2.382   2.603   2.335
14729WAT     H244430   2.438   2.506   2.217
14730WAT      O44431   5.490   3.349   4.572
14730WAT     H144432   5.587   3.343   4.599
14730WAT     H244433   5.448   3.259   4.578
14731WAT      O44434   4.291   8.567   6.542
14731WAT     H144435   4.231   8.558   6.463
14731WAT     H244436   4.358   8.639   6.525
14732WAT      O44437   3.646   1.187   9.053
14732WAT     H144438   3.641   1.111   9.118
14732WAT     H244439   3.739   1.224   9.052
14733WAT      O44440   3.772   3.741   1.910
14733WAT     H144441   3.677   3.765   1.889
14733WAT     H244442   3.791   3.649   1.878
14734WAT      O44443   9.232   4.342   4.662
14734WAT     H144444   9.195   4.391   4.584
14734WAT     H244445   9.332   4.349   4.662
14735WAT      O44446   7.812   2.532   3.991
14735WAT     H144447   7.745   2.464   3.962
14735WAT     H244448   7.896   2.523   3.937
14736WAT      O44449   9.670   3.975   2.080
14736WAT     H144450   9.672   3.990   1.981
14736WAT     H244451   9.575   3.965   2.111
14737WAT      O44452   1.955   7.336   3.593
14737WAT     H144453   1.926   7.308   3.684
14737WAT     H244454   1.926   7.268   3.526
14738WAT      O44455   6.826   8.097   7.242
14738WAT     H144456   6.896   8.031   7.270
14738WAT     H244457   6.751   8.048   7.196
14739WAT      O44458   6.662   0.642   0.419
14739WAT     H144459   6.618   0.553   0.407
14739WAT     H244460   6.643   0.700   0.339
14740WAT      O44461   9.013   0.420   3.873
14740WAT     H144462   9.113   0.433   3.873
14740WAT     H244463   8.977   0.448   3.962
14741WAT      O44464   7.012   1.845   3.427
14741WAT     H144465   6.969   1.846   3.517
14741WAT     H244466   7.028   1.939   3.397
14742WAT      O44467   5.053   9.553   2.789
14742WAT     H144468   5.066   9.604   2.874
14742WAT     H244469   5.097   9.601   2.714
14743WAT      O44470   0.822   6.489   8.768
14743WAT     H144471   0.911   6.485   8.815
14743WAT     H244472   0.807   6.581   8.732
14744WAT      O44473   0.841   8.440   3.128
14744WAT     H144474   0.809   8.347   3.144
14744WAT     H244475   0.786   8.505   3.181
14745WAT      O44476   1.070   9.109   7.103
14745WAT     H144477   1.099   9.183   7.164
14745WAT     H244478   0.980   9.076   7.131
14746WAT      O44479   7.095   2.838   5.409
14746WAT     H144480   7.009   2.811   5.366
14746WAT     H244481   7.149   2.892   5.345
14747WAT      O44482   1.243   9.215   2.845
14747WAT     H144483   1.237   9.273   2.763
14747WAT     H244484   1.318   9.247   2.903
14748WAT      O44485   8.000   3.976   1.429
14748WAT     H144486   8.026   3.886   1.392
14748WAT     H244487   7.905   3.994   1.407
14749WAT      O44488   0.947   1.569   1.043
14749WAT     H144489   0.940   1.482   1.092
14749WAT     H244490   0.999   1.634   1.099
14750WAT      O44491   9.772   6.844   8.847
14750WAT     H144492   9.712   6.764   8.856
14750WAT     H244493   9.792   6.882   8.937
14751WAT      O44494   4.716   6.434   3.842
14751WAT     H144495   4.623   6.469   3.841
14751WAT     H244496   4.734   6.387   3.929
14752WAT      O44497   5.013   6.263   1.889
14752WAT     H144498   5.056   6.176   1.915
14752WAT     H244499   5.050   6.337   1.946
14753WAT      O44500   4.402   9.781   4.776
14753WAT     H144501   4.487   9.811   4.732
14753WAT     H244502   4.423   9.744   4.867
14754WAT      O44503   0.993   6.602   1.785
14754WAT     H144504   0.903   6.570   1.815
14754WAT     H244505   1.059   6.527   1.793
14755WAT      O44506   8.263   4.678   7.665
14755WAT     H144507   8.322   4.724   7.599
14755WAT     H244508   8.252   4.736   7.746
14756WAT      O44509   0.331   3.141   6.010
14756WAT     H144510   0.323   3.091   6.096
14756WAT     H244511   0.424   3.177   6.000
14757WAT      O44512   3.615   8.911   5.872
14757WAT     H144513   3.645   8.934   5.779
14757WAT     H244514   3.693   8.877   5.925
14758WAT      O44515   1.186   5.499   2.057
14758WAT     H144516   1.201   5.431   2.128
14758WAT     H244517   1.272   5.517   2.009
14759WAT      O44518   5.226   7.428   6.551
14759WAT     H144519   5.233   7.374   6.467
14759WAT     H244520   5.306   7.410   6.608
14760WAT      O44521   5.642   3.643   2.280
14760WAT     H144522   5.715   3.696   2.324
14760WAT     H244523   5.592   3.702   2.217
14761WAT      O44524   5.095   3.488   9.353
14761WAT     H144525   5.022   3.557   9.351
14761WAT     H244526   5.119   3.468   9.447
14762WAT      O44527   6.593   3.414   4.115
14762WAT     H144528   6.614   3.510   4.128
14762WAT     H244529   6.644   3.359   4.182
14763WAT      O44530   5.773   8.797   3.431
14763WAT     H144531   5.678   8.817   3.406
14763WAT     H244532   5.793   8.701   3.412
14764WAT      O44533   5.959   2.467   3.032
14764WAT     H144534   5.963   2.383   2.978
14764WAT     H244535   6.040   2.522   3.014
14765WAT      O44536   3.459   1.150   4.921
14765WAT     H144537   3.521   1.187   4.852
14765WAT     H244538   3.450   1.051   4.908
14766WAT      O44539   7.925   2.074   9.012
14766WAT     H144540   7.925   1.974   9.009
14766WAT     H244541   7.857   2.110   8.949
14767WAT      O44542   4.572   9.640   1.333
14767WAT     H144543   4.655   9.586   1.339
14767WAT     H244544   4.507   9.597   1.271
14768WAT      O44545   5.781   3.703   8.043
14768WAT     H144546   5.804   3.713   8.140
14768WAT     H244547   5.681   3.703   8.033
14769WAT      O44548   1.417   5.768   4.505
14769WAT     H144549   1.483   5.838   4.478
14769WAT     H244550   1.381   5.790   4.596
14770WAT      O44551   7.088   3.074   0.159
14770WAT     H144552   7.000   3.104   0.196
14770WAT     H244553   7.138   3.152   0.121
14771WAT      O44554   0.206   1.696   5.710
14771WAT     H144555   0.226   1.598   5.704
14771WAT     H244556   0.230   1.729   5.801
14772WAT      O44557   9.766   4.917   3.507
14772WAT     H144558   9.860   4.951   3.501
14772WAT     H244559   9.764   4.837   3.568
14773WAT      O44560   0.688   1.650   1.728
14773WAT     H144561   0.691   1.551   1.736
14773WAT     H244562   0.635   1.688   1.804
14774WAT      O44563   7.585   7.882   5.574
14774WAT     H144564   7.542   7.951   5.516
14774WAT     H244565   7.568   7.903   5.670
14775WAT      O44566   4.336   8.468   6.991
14775WAT     H144567   4.297   8.377   6.979
14775WAT     H244568   4.381   8.473   7.080
14776WAT      O44569   9.331   0.557   4.016
14776WAT     H144570   9.335   0.507   3.929
14776WAT     H244571   9.300   0.496   4.088
14777WAT      O44572   0.825   5.400   2.893
14777WAT     H144573   0.894   5.397   2.821
14777WAT     H244574   0.855   5.342   2.970
14778WAT      O44575   5.224   7.045   2.232
14778WAT     H144576   5.223   7.144   2.224
14778WAT     H244577   5.167   7.018   2.310
14779WAT      O44578   1.252   7.292   4.402
14779WAT     H144579   1.216   7.286   4.495
14779WAT     H244580   1.318   7.367   4.396
14780WAT      O44581   0.583   7.675   2.041
14780WAT     H144582   0.655   7.705   1.978
14780WAT     H244583   0.614   7.594   2.091
14781WAT      O44584   8.063   1.452   6.835
14781WAT     H144585   8.041   1.546   6.808
14781WAT     H244586   7.978   1.403   6.857
14782WAT      O44587   1.934   7.436   6.557
14782WAT     H144588   1.929   7.531   6.526
14782WAT     H244589   2.012   7.391   6.513
14783WAT      O44590   8.937   3.739   4.654
14783WAT     H144591   8.857   3.730   4.714
14783WAT     H244592   8.907   3.745   4.559
14784WAT      O44593   5.244   1.561   4.665
14784WAT     H144594   5.258   1.647   4.714
14784WAT     H244595   5.236   1.486   4.730
14785WAT      O44596   1.268   3.369   5.078
14785WAT     H144597   1.298   3.363   5.174
14785WAT     H244598   1.182   3.320   5.067
14786WAT      O44599   7.096   3.072   6.892
14786WAT     H144600   7.015   3.071   6.833
14786WAT     H244601   7.087   2.999   6.960
14787WAT      O44602   0.836   6.170   4.234
14787WAT     H144603   0.859   6.243   4.170
14787WAT     H244604   0.879   6.189   4.322
14788WAT      O44605   3.074   5.024   5.685
14788WAT     H144606   3.106   5.083   5.610
14788WAT     H244607   3.036   4.940   5.646
14789WAT      O44608   6.330   8.139   8.459
14789WAT     H144609   6.409   8.150   8.398
14789WAT     H244610   6.331   8.210   8.529
14790WAT      O44611   6.938   5.139   5.045
14790WAT     H144612   6.969   5.141   4.950
14790WAT     H244613   6.894   5.226   5.068
14791WAT      O44614   6.470   5.530   9.438
14791WAT     H144615   6.504   5.440   9.467
14791WAT     H244616   6.520   5.601   9.487
14792WAT      O44617   3.887   0.912   2.796
14792WAT     H144618   3.887   0.924   2.697
14792WAT     H244619   3.817   0.971   2.837
14793WAT      O44620   1.528   1.740   7.249
14793WAT     H144621   1.625   1.766   7.248
14793WAT     H244622   1.474   1.813   7.291
14794WAT      O44623   8.825   2.578   8.671
14794WAT     H144624   8.861   2.523   8.595
14794WAT     H244625   8.741   2.624   8.642
14795WAT      O44626   8.386   9.808   9.185
14795WAT     H144627   8.345   9.802   9.276
14795WAT     H244628   8.316   9.832   9.118
14796WAT      O44629   5.839   4.601   7.256
14796WAT     H144630   5.850   4.506   7.226
14796WAT     H244631   5.850   4.607   7.355
14797WAT      O44632   4.757   9.051   8.279
14797WAT     H144633   4.837   9.012   8.325
14797WAT     H244634   4.734   8.994   8.200
14798WAT      O44635   7.721   6.729   6.805
14798WAT     H144636   7.766   6.818   6.802
14798WAT     H244637   7.642   6.730   6.744
14799WAT      O44638   8.917   1.535   4.513
14799WAT     H144639   8.842   1.582   4.560
14799WAT     H244640   8.883   1.492   4.430
14800WAT      O44641   4.726   5.388   1.361
14800WAT     H144642   4.800   5.413   1.298
14800WAT     H244643   4.766   5.366   1.451
14801WAT      O44644   5.575   8.664   5.514
14801WAT     H144645   5.541   8.745   5.562
14801WAT     H244646   5.513   8.587   5.531
14802WAT      O44647   9.797   2.071   3.414
14802WAT     H144648   9.844   2.061   3.326
14802WAT     H244649   9.698   2.068   3.399
14803WAT      O44650   3.689   9.346   3.401
14803WAT     H144651   3.732   9.256   3.395
14803WAT     H244652   3.656   9.362   3.494
14804WAT      O44653   4.366   2.723   5.134
14804WAT     H144654   4.391   2.803   5.189
14804WAT     H244655   4.448   2.683   5.093
14805WAT      O44656   5.528   6.688   3.013
14805WAT     H144657   5.543   6.628   2.935
14805WAT     H244658   5.522   6.634   3.096
14806WAT      O44659   6.133   5.102   1.449
14806WAT     H144660   6.138   5.183   1.392
14806WAT     H244661   6.204   5.107   1.520
14807WAT      O44662   5.624   9.080   3.947
14807WAT     H144663   5.660   9.002   3.999
14807WAT     H244664   5.581   9.046   3.863
14808WAT      O44665   7.507   0.265   0.096
14808WAT     H144666   7.510   0.240   0.192
14808WAT     H244667   7.425   0.226   0.054
14809WAT      O44668   0.021   5.142   8.736
14809WAT     H144669   0.111   5.154   8.693
14809WAT     H244670  -0.005   5.227   8.781
14810WAT      O44671   5.942   1.838   5.140
14810WAT     H144672   5.972   1.743   5.132
14810WAT     H244673   5.864   1.844   5.201
14811WAT      O44674   4.099   0.881   0.899
14811WAT     H144675   4.054   0.798   0.865
14811WAT     H244676   4.194   0.882   0.870
14812WAT      O44677   0.806   8.688   3.465
14812WAT     H144678   0.787   8.786   3.460
14812WAT     H244679   0.846   8.666   3.554
14813WAT      O44680   7.790   6.772   7.387
14813WAT     H144681   7.709   6.765   7.329
14813WAT     H244682   7.843   6.853   7.362
14814WAT      O44683   6.241   8.731   7.900
14814WAT     H144684   6.321   8.742   7.841
14814WAT     H244685   6.266   8.756   7.994
14815WAT      O44686   2.802   2.566   8.445
14815WAT     H144687   2.741   2.633   8.487
14815WAT     H244688   2.879   2.614   8.403
14816WAT      O44689   5.818   8.346   5.838
14816WAT     H144690   5.881   8.395   5.779
14816WAT     H244691   5.731   8.395   5.843
14817WAT      O44692   5.509   2.334   3.936
14817WAT     H144693   5.550   2.255   3.981
14817WAT     H244694   5.436   2.304   3.875
14818WAT      O44695   8.022   9.423   9.188
14818WAT     H144696   8.114   9.390   9.205
14818WAT     H244697   7.989   9.387   9.100
14819WAT      O44698   3.196   1.668   8.454
14819WAT     H144699   3.204   1.574   8.487
14819WAT     H244700   3.119   1.675   8.391
14820WAT      O44701   1.447   7.697   8.447
14820WAT     H144702   1.413   7.668   8.358
14820WAT     H244703   1.455   7.797   8.448
14821WAT      O44704   4.839   7.427   2.858
14821WAT     H144705   4.919   7.375   2.827
14821WAT     H244706   4.824   7.505   2.797
14822WAT      O44707   3.354   1.337   6.363
14822WAT     H144708   3.287   1.278   6.407
14822WAT     H244709   3.444   1.320   6.401
14823WAT      O44710   3.841   2.944   7.376
14823WAT     H144711   3.818   2.914   7.468
14823WAT     H244712   3.779   2.901   7.310
14824WAT      O44713   9.125   6.372   6.779
14824WAT     H144714   9.140   6.468   6.803
14824WAT     H244715   9.085   6.367   6.687
14825WAT      O44716   9.668   2.516   8.318
14825WAT     H144717   9.685   2.519   8.417
14825WAT     H244718   9.755   2.526   8.269
14826WAT      O44719   4.331   3.350   4.030
14826WAT     H144720   4.412   3.315   4.076
14826WAT     H244721   4.349   3.441   3.994
14827WAT      O44722   3.833   9.001   1.047
14827WAT     H144723   3.796   9.011   0.955
14827WAT     H244724   3.786   9.064   1.109
14828WAT      O44725   7.965   1.077   7.973
14828WAT     H144726   7.976   1.164   8.022
14828WAT     H244727   7.950   1.095   7.876
14829WAT      O44728   7.318   0.503   0.645
14829WAT     H144729   7.332   0.540   0.554
14829WAT     H244730   7.372   0.419   0.655
14830WAT      O44731   7.840   2.296   2.294
14830WAT     H144732   7.789   2.286   2.379
14830WAT     H244733   7.777   2.315   2.219
14831WAT      O44734   9.733   1.101   1.550
14831WAT     H144735   9.653   1.098   1.490
14831WAT     H244736   9.705   1.131   1.641
14832WAT      O44737   0.999   3.155   5.755
14832WAT     H144738   1.000   3.072   5.699
14832WAT     H244739   0.955   3.229   5.704
14833WAT      O44740   6.567   5.961   1.746
14833WAT     H144741   6.574   5.973   1.647
14833WAT     H244742   6.535   6.046   1.788
14834WAT      O44743   4.829   2.611   3.396
14834WAT     H144744   4.925   2.602   3.368
14834WAT     H244745   4.802   2.707   3.390
14835WAT      O44746   5.578   1.746   0.553
14835WAT     H144747   5.533   1.682   0.615
14835WAT     H244748   5.661   1.781   0.596
14836WAT      O44749   7.927   2.618   4.978
14836WAT     H144750   7.934   2.615   5.078
14836WAT     H244751   7.831   2.625   4.951
14837WAT      O44752   5.535   6.457   7.938
14837WAT     H144753   5.468   6.394   7.900
14837WAT     H244754   5.496   6.504   8.017
14838WAT      O44755   1.979   4.660   3.163
14838WAT     H144756   2.000   4.655   3.065
14838WAT     H244757   2.014   4.747   3.200
14839WAT      O44758   8.641   9.407   7.286
14839WAT     H144759   8.630   9.405   7.187
14839WAT     H244760   8.727   9.362   7.311
14840WAT      O44761   0.606   5.705   2.210
14840WAT     H144762   0.510   5.681   2.192
14840WAT     H244763   0.666   5.637   2.168
14841WAT      O44764   2.235   2.439   4.675
14841WAT     H144765   2.332   2.459   4.658
14841WAT     H244766   2.214   2.460   4.771
14842WAT      O44767   2.574   6.694   8.703
14842WAT     H144768   2.475   6.702   8.691
14842WAT     H244769   2.618   6.697   8.613
14843WAT      O44770   0.562   7.685   1.627
14843WAT     H144771   0.572   7.589   1.655
14843WAT     H244772   0.642   7.737   1.658
14844WAT      O44773   6.750   0.498   2.820
14844WAT     H144774   6.708   0.490   2.911
14844WAT     H244775   6.812   0.577   2.819
14845WAT      O44776   0.585   4.336   9.687
14845WAT     H144777   0.655   4.299   9.626
14845WAT     H244778   0.629   4.392   9.757
14846WAT      O44779   6.582   1.901   7.074
14846WAT     H144780   6.516   1.948   7.016
14846WAT     H244781   6.580   1.803   7.055
14847WAT      O44782   3.800   4.597   1.155
14847WAT     H144783   3.893   4.599   1.118
14847WAT     H244784   3.788   4.513   1.209
14848WAT      O44785   4.063   6.507   9.482
14848WAT     H144786   4.079   6.606   9.485
14848WAT     H244787   4.094   6.472   9.394
14849WAT      O44788   2.408   3.405   7.128
14849WAT     H144789   2.330   3.380   7.070
14849WAT     H244790   2.400   3.357   7.216
14850WAT      O44791   4.196   1.182   6.557
14850WAT     H144792   4.192   1.100   6.614
14850WAT     H244793   4.264   1.170   6.485
14851WAT      O44794   1.217   4.502   9.356
14851WAT     H144795   1.309   4.464   9.354
14851WAT     H244796   1.161   4.460   9.285
14852WAT      O44797   9.304   5.305   7.442
14852WAT     H144798   9.222   5.353   7.413
14852WAT     H244799   9.336   5.344   7.529
14853WAT      O44800   4.107   2.027   8.916
14853WAT     H144801   4.105   1.933   8.882
14853WAT     H244802   4.197   2.067   8.896
14854WAT      O44803   9.129   0.218   9.692
14854WAT     H144804   9.145   0.136   9.747
14854WAT     H244805   9.078   0.194   9.610
14855WAT      O44806   6.828   5.458   8.393
14855WAT     H144807   6.744   5.473   8.341
14855WAT     H244808   6.812   5.486   8.488
14856WAT      O44809   6.945   4.523   2.669
14856WAT     H144810   6.952   4.478   2.758
14856WAT     H244811   7.037   4.543   2.634
14857WAT      O44812   4.298   8.265   7.226
14857WAT     H144813   4.234   8.237   7.155
14857WAT     H244814   4.345   8.185   7.263
14858WAT      O44815   1.381   7.823   2.597
14858WAT     H144816   1.440   7.743   2.608
14858WAT     H244817   1.438   7.904   2.583
14859WAT      O44818   7.448   2.258   1.361
14859WAT     H144819   7.462   2.175   1.308
14859WAT     H244820   7.375   2.313   1.320
14860WAT      O44821   8.041   2.614   3.496
14860WAT     H144822   7.997   2.529   3.524
14860WAT     H244823   8.003   2.690   3.548
14861WAT      O44824   8.359   3.363   0.971
14861WAT     H144825   8.438   3.377   1.031
14861WAT     H244826   8.362   3.428   0.896
14862WAT      O44827   8.152   4.276   6.660
14862WAT     H144828   8.189   4.184   6.644
14862WAT     H244829   8.052   4.273   6.649
14863WAT      O44830   8.474   8.706   2.637
14863WAT     H144831   8.538   8.662   2.574
14863WAT     H244832   8.505   8.692   2.731
14864WAT      O44833   2.311   7.829   3.116
14864WAT     H144834   2.318   7.736   3.153
14864WAT     H244835   2.398   7.876   3.129
14865WAT      O44836   5.719   7.461   8.619
14865WAT     H144837   5.653   7.390   8.643
14865WAT     H244838   5.730   7.465   8.520
14866WAT      O44839   9.634   5.224   6.111
14866WAT     H144840   9.569   5.257   6.179
14866WAT     H244841   9.606   5.133   6.080
14867WAT      O44842   6.980   7.524   4.503
14867WAT     H144843   7.025   7.613   4.511
14867WAT     H244844   7.022   7.460   4.568
14868WAT      O44845   9.116   0.879   3.627
14868WAT     H144846   9.026   0.913   3.652
14868WAT     H244847   9.184   0.915   3.691
14869WAT      O44848   4.634   3.324   2.169
14869WAT     H144849   4.605   3.326   2.265
14869WAT     H244850   4.714   3.265   2.160
14870WAT      O44851   4.929   8.258   1.180
14870WAT     H144852   4.966   8.346   1.151
14870WAT     H244853   4.985   8.184   1.141
14871WAT      O44854   3.001   5.865   7.125
14871WAT     H144855   2.973   5.774   7.154
14871WAT     H244856   3.065   5.858   7.048
14872WAT      O44857   1.220   5.967   8.437
14872WAT     H144858   1.200   5.981   8.340
14872WAT     H244859   1.138   5.932   8.483
14873WAT      O44860   4.928   1.759   3.763
14873WAT     H144861   4.887   1.769   3.672
14873WAT     H244862   5.001   1.690   3.759
14874WAT      O44863   3.538   1.414   8.578
14874WAT     H144864   3.559   1.390   8.673
14874WAT     H244865   3.571   1.506   8.559
14875WAT      O44866   4.778   4.080   1.514
14875WAT     H144867   4.832   3.998   1.531
14875WAT     H244868   4.792   4.145   1.589
14876WAT      O44869   3.796   4.406   9.643
14876WAT     H144870   3.805   4.378   9.547
14876WAT     H244871   3.705   4.383   9.676
14877WAT      O44872   8.434   4.533   4.243
14877WAT     H144873   8.476   4.624   4.234
14877WAT     H244874   8.405   4.519   4.337
14878WAT      O44875   2.097   5.469   2.120
14878WAT     H144876   1.999   5.485   2.103
14878WAT     H244877   2.150   5.513   2.047
14879WAT      O44878   4.897   4.737   7.817
14879WAT     H144879   4.986   4.692   7.808
14879WAT     H244880   4.836   4.703   7.745
14880WAT      O44881   2.831   6.916   3.261
14880WAT     H144882   2.749   6.859   3.255
14880WAT     H244883   2.804   7.012   3.267
14881WAT      O44884   9.550   3.751   1.316
14881WAT     H144885   9.595   3.662   1.311
14881WAT     H244886   9.476   3.755   1.249
14882WAT      O44887   9.584   5.303   7.871
14882WAT     H144888   9.597   5.343   7.962
14882WAT     H244889   9.673   5.291   7.827
14883WAT      O44890   7.734   2.507   2.682
14883WAT     H144891   7.756   2.425   2.734
14883WAT     H244892   7.791   2.583   2.714
14884WAT      O44893   2.323   4.438   2.466
14884WAT     H144894   2.412   4.444   2.420
14884WAT     H244895   2.258   4.393   2.405
14885WAT      O44896   5.090   3.588   4.984
14885WAT     H144897   5.157   3.571   5.057
14885WAT     H244898   5.075   3.503   4.933
14886WAT      O44899   0.005   2.016   1.765
14886WAT     H144900   0.045   1.983   1.850
14886WAT     H244901   0.030   1.955   1.690
14887WAT      O44902   3.898   3.751   5.028
14887WAT     H144903   3.889   3.851   5.031
14887WAT     H244904   3.841   3.715   4.954
14888WAT      O44905   2.316   2.408   5.219
14888WAT     H144906   2.314   2.312   5.193
14888WAT     H244907   2.384   2.422   5.291
14889WAT      O44908   7.831   9.808   5.700
14889WAT     H144909   7.902   9.756   5.654
14889WAT     H244910   7.844   9.802   5.799
14890WAT      O44911   5.794   6.404   0.595
14890WAT     H144912   5.797   6.414   0.496
14890WAT     H244913   5.700   6.381   0.624
14891WAT      O44914   2.235   0.916   0.660
14891WAT     H144915   2.280   0.974   0.593
14891WAT     H244916   2.242   0.958   0.751
14892WAT      O44917   8.022   6.543   6.435
14892WAT     H144918   7.972   6.605   6.374
14892WAT     H244919   7.994   6.449   6.417
14893WAT      O44920   0.201   7.340   6.060
14893WAT     H144921   0.190   7.241   6.051
14893WAT     H244922   0.189   7.383   5.970
14894WAT      O44923   0.746   0.606   5.234
14894WAT     H144924   0.817   0.536   5.238
14894WAT     H244925   0.666   0.570   5.186
14895WAT      O44926   2.728   8.105   9.124
14895WAT     H144927   2.650   8.084   9.064
14895WAT     H244928   2.813   8.083   9.076
14896WAT      O44929   7.205   5.155   5.908
14896WAT     H144930   7.261   5.174   5.989
14896WAT     H244931   7.191   5.240   5.857
14897WAT      O44932   6.552   2.753   2.712
14897WAT     H144933   6.588   2.694   2.784
14897WAT     H244934   6.547   2.702   2.626
14898WAT      O44935   5.291   7.016   7.813
14898WAT     H144936   5.346   7.048   7.735
14898WAT     H244937   5.352   6.996   7.890
14899WAT      O44938   4.372   9.698   8.799
14899WAT     H144939   4.335   9.685   8.890
14899WAT     H244940   4.468   9.726   8.806
14900WAT      O44941   4.450   5.375   4.419
14900WAT     H144942   4.382   5.353   4.349
14900WAT     H244943   4.475   5.291   4.468
14901WAT      O44944   4.625   3.651   3.647
14901WAT     H144945   4.530   3.627   3.670
14901WAT     H244946   4.625   3.717   3.572
14902WAT      O44947   4.940   8.472   6.184
14902WAT     H144948   4.986   8.560   6.180
14902WAT     H244949   4.993   8.404   6.134
14903WAT      O44950   4.371   7.988   0.260
14903WAT     H144951   4.424   8.072   0.265
14903WAT     H244952   4.366   7.958   0.164
14904WAT      O44953   1.746   9.147   7.120
14904WAT     H144954   1.740   9.237   7.163
14904WAT     H244955   1.834   9.138   7.072
14905WAT      O44956   6.078   0.269   3.002
14905WAT     H144957   5.978   0.278   3.008
14905WAT     H244958   6.104   0.173   3.006
14906WAT      O44959   1.275   4.538   7.094
14906WAT     H144960   1.235   4.527   7.002
14906WAT     H244961   1.374   4.525   7.089
14907WAT      O44962   2.454   0.613   8.047
14907WAT     H144963   2.473   0.690   8.108
14907WAT     H244964   2.513   0.619   7.967
14908WAT      O44965   7.080   7.621   1.964
14908WAT     H144966   7.113   7.710   1.993
14908WAT     H244967   7.020   7.632   1.884
14909WAT      O44968   7.394   1.673   3.309
14909WAT     H144969   7.436   1.607   3.247
14909WAT     H244970   7.403   1.641   3.403
14910WAT      O44971   3.757   6.936   8.103
14910WAT     H144972   3.826   6.992   8.057
14910WAT     H244973   3.791   6.843   8.113
14911WAT      O44974   4.222   4.387   3.269
14911WAT     H144975   4.193   4.293   3.288
14911WAT     H244976   4.245   4.395   3.172
14912WAT      O44977   2.415   7.100   1.543
14912WAT     H144978   2.328   7.118   1.587
14912WAT     H244979   2.405   7.023   1.480
14913WAT      O44980   3.548   4.258   3.812
14913WAT     H144981   3.484   4.194   3.769
14913WAT     H244982   3.498   4.321   3.871
14914WAT      O44983   2.140   7.663   4.845
14914WAT     H144984   2.112   7.603   4.921
14914WAT     H244985   2.099   7.753   4.857
14915WAT      O44986   3.089   8.580   4.560
14915WAT     H144987   3.038   8.578   4.474
14915WAT     H244988   3.058   8.504   4.619
14916WAT      O44989   7.906   0.393   4.346
14916WAT     H144990   7.929   0.307   4.301
14916WAT     H244991   7.985   0.455   4.342
14917WAT      O44992   0.936   3.076   1.518
14917WAT     H144993   1.001   3.029   1.458
14917WAT     H244994   0.958   3.174   1.521
14918WAT      O44995   8.176   4.892   8.753
14918WAT     H144996   8.084   4.854   8.752
14918WAT     H244997   8.242   4.820   8.771
14919WAT      O44998   5.063   0.016   0.428
14919WAT     H144999   4.963   0.023   0.425
14919WAT     H245000   5.097   0.057   0.512
14920WAT      O45001   2.992   8.221   3.381
14920WAT     H145002   2.980   8.318   3.399
14920WAT     H245003   2.997   8.171   3.467
14921WAT      O45004   7.533   5.261   5.280
14921WAT     H145005   7.583   5.348   5.280
14921WAT     H245006   7.455   5.268   5.218
14922WAT      O45007   0.917   6.575   4.136
14922WAT     H145008   0.836   6.585   4.193
14922WAT     H245009   0.910   6.492   4.082
14923WAT      O45010   9.607   5.675   6.721
14923WAT     H145011   9.614   5.682   6.821
14923WAT     H245012   9.697   5.688   6.680
14924WAT      O45013   2.277   2.241   4.935
14924WAT     H145014   2.334   2.292   4.870
14924WAT     H245015   2.332   2.220   5.016
14925WAT      O45016   5.033   5.751   6.179
14925WAT     H145017   4.944   5.785   6.146
14925WAT     H245018   5.106   5.800   6.132
14926WAT      O45019   5.816   7.525   8.889
14926WAT     H145020   5.834   7.622   8.874
14926WAT     H245021   5.765   7.488   8.812
14927WAT      O45022   8.305   4.400   7.758
14927WAT     H145023   8.278   4.443   7.672
14927WAT     H245024   8.224   4.386   7.815
14928WAT      O45025   1.576   0.952   5.763
14928WAT     H145026   1.498   0.899   5.797
14928WAT     H245027   1.628   0.896   5.698
14929WAT      O45028   7.131   0.291   7.235
14929WAT     H145029   7.137   0.391   7.235
14929WAT     H245030   7.158   0.256   7.146
14930WAT      O45031   4.522   0.456   8.549
14930WAT     H145032   4.564   0.409   8.471
14930WAT     H245033   4.485   0.388   8.612
14931WAT      O45034   9.191   1.654   8.070
14931WAT     H145035   9.103   1.609   8.057
14931WAT     H245036   9.200   1.729   8.005
14932WAT      O45037   7.495   8.833   9.743
14932WAT     H145038   7.412   8.855   9.795
14932WAT     H245039   7.534   8.747   9.776
14933WAT      O45040   3.549   9.797   3.984
14933WAT     H145041   3.494   9.830   4.061
14933WAT     H245042   3.632   9.754   4.020
14934WAT      O45043   3.893   7.437   1.445
14934WAT     H145044   3.908   7.438   1.544
14934WAT     H245045   3.831   7.512   1.420
14935WAT      O45046   8.856   0.479   2.474
14935WAT     H145047   8.869   0.456   2.571
14935WAT     H245048   8.859   0.579   2.463
14936WAT      O45049   0.347   7.173   4.141
14936WAT     H145050   0.409   7.204   4.214
14936WAT     H245051   0.397   7.172   4.054
14937WAT      O45052   6.009   6.413   2.080
14937WAT     H145053   6.001   6.485   2.011
14937WAT     H245054   5.927   6.356   2.079
14938WAT      O45055   4.982   6.377   4.293
14938WAT     H145056   4.949   6.356   4.385
14938WAT     H245057   5.003   6.292   4.245
14939WAT      O45058   3.510   3.421   6.378
14939WAT     H145059   3.458   3.489   6.325
14939WAT     H245060   3.577   3.377   6.318
14940WAT      O45061   2.676   5.002   9.158
14940WAT     H145062   2.625   4.920   9.183
14940WAT     H245063   2.623   5.056   9.093
14941WAT      O45064   4.552   7.592   2.662
14941WAT     H145065   4.650   7.590   2.643
14941WAT     H245066   4.524   7.504   2.702
14942WAT      O45067   7.629   0.189   3.043
14942WAT     H145068   7.663   0.162   2.953
14942WAT     H245069   7.679   0.270   3.074
14943WAT      O45070   4.884   1.283   9.624
14943WAT     H145071   4.874   1.372   9.580
14943WAT     H245072   4.809   1.270   9.690
14944WAT      O45073   7.766   2.403   8.229
14944WAT     H145074   7.720   2.315   8.239
14944WAT     H245075   7.770   2.427   8.132
14945WAT      O45076   6.132   6.177   9.232
14945WAT     H145077   6.105   6.272   9.247
14945WAT     H245078   6.071   6.116   9.283
14946WAT      O45079   1.558   8.646   5.399
14946WAT     H145080   1.581   8.707   5.475
14946WAT     H245081   1.468   8.604   5.416
14947WAT      O45082   8.819   2.902   4.302
14947WAT     H145083   8.863   2.909   4.391
14947WAT     H245084   8.880   2.857   4.237
14948WAT      O45085   1.664   1.854   4.583
14948WAT     H145086   1.678   1.787   4.656
14948WAT     H245087   1.579   1.903   4.599
14949WAT      O45088   3.592   0.512   0.883
14949WAT     H145089   3.503   0.510   0.838
14949WAT     H245090   3.638   0.598   0.861
14950WAT      O45091   7.077   1.154   5.488
14950WAT     H145092   7.164   1.158   5.441
14950WAT     H245093   7.003   1.174   5.424
14951WAT      O45094   4.911   6.677   6.922
14951WAT     H145095   4.875   6.619   6.849
14951WAT     H245096   4.964   6.751   6.882
14952WAT      O45097   5.834   7.311   4.049
14952WAT     H145098   5.922   7.263   4.045
14952WAT     H245099   5.778   7.284   3.971
14953WAT      O45100   1.271   5.716   0.164
14953WAT     H145101   1.254   5.785   0.094
14953WAT     H245102   1.294   5.629   0.120
14954WAT      O45103   7.175   6.931   8.671
14954WAT     H145104   7.098   6.939   8.734
14954WAT     H245105   7.175   7.009   8.608
14955WAT      O45106   7.876   0.124   8.303
14955WAT     H145107   7.899   0.040   8.352
14955WAT     H245108   7.816   0.103   8.226
14956WAT      O45109   8.565   8.589   2.096
14956WAT     H145110   8.596   8.655   2.164
14956WAT     H245111   8.475   8.554   2.122
14957WAT      O45112   9.773   7.433   8.547
14957WAT     H145113   9.763   7.373   8.467
14957WAT     H245114   9.752   7.382   8.630
14958WAT      O45115   1.000   7.144   0.717
14958WAT     H145116   0.986   7.213   0.788
14958WAT     H245117   0.915   7.091   0.704
14959WAT      O45118   9.016   5.793   6.026
14959WAT     H145119   8.945   5.733   6.061
14959WAT     H245120   9.091   5.738   5.990
14960WAT      O45121   3.317   2.811   6.184
14960WAT     H145122   3.298   2.909   6.177
14960WAT     H245123   3.359   2.791   6.273
14961WAT      O45124   6.469   1.720   4.398
14961WAT     H145125   6.516   1.802   4.366
14961WAT     H245126   6.447   1.661   4.320
14962WAT      O45127   7.254   5.550   6.423
14962WAT     H145128   7.285   5.632   6.376
14962WAT     H245129   7.208   5.489   6.357
14963WAT      O45130   1.235   4.349   3.819
14963WAT     H145131   1.252   4.324   3.724
14963WAT     H245132   1.286   4.287   3.879
14964WAT      O45133   5.953   7.719   6.065
14964WAT     H145134   5.930   7.788   5.996
14964WAT     H245135   5.976   7.764   6.151
14965WAT      O45136   7.501   0.996   6.487
14965WAT     H145137   7.413   1.016   6.530
14965WAT     H245138   7.493   1.008   6.388
14966WAT      O45139   8.941   0.735   4.308
14966WAT     H145140   9.006   0.794   4.261
14966WAT     H245141   8.935   0.647   4.260
14967WAT      O45142   5.386   6.035   9.472
14967WAT     H145143   5.328   6.116   9.485
14967WAT     H245144   5.340   5.955   9.511
14968WAT      O45145   1.028   9.603   6.741
14968WAT     H145146   1.054   9.508   6.756
14968WAT     H245147   0.931   9.608   6.718
14969WAT      O45148   0.055   3.027   9.277
14969WAT     H145149   0.121   2.981   9.219
14969WAT     H245150  -0.020   2.965   9.299
14970WAT      O45151   5.635   3.910   7.735
14970WAT     H145152   5.703   3.923   7.808
14970WAT     H245153   5.672   3.944   7.648
14971WAT      O45154   3.283   0.098   9.759
14971WAT     H145155   3.257   0.109   9.663
14971WAT     H245156   3.268   0.184   9.808
14972WAT      O45157   9.135   1.575   9.318
14972WAT     H145158   9.063   1.508   9.299
14972WAT     H245159   9.222   1.527   9.329
14973WAT      O45160   9.741   6.189   6.282
14973WAT     H145161   9.717   6.276   6.238
14973WAT     H245162   9.660   6.131   6.287
14974WAT      O45163   4.176   6.909   8.728
14974WAT     H145164   4.144   6.999   8.757
14974WAT     H245165   4.270   6.916   8.696
14975WAT      O45166   8.894   5.083   8.800
14975WAT     H145167   8.799   5.109   8.783
14975WAT     H245168   8.903   5.049   8.893
14976WAT      O45169   5.314   1.863   8.528
14976WAT     H145170   5.337   1.947   8.576
14976WAT     H245171   5.395   1.804   8.523
14977WAT      O45172   5.105   3.094   7.294
14977WAT     H145173   5.185   3.154   7.303
14977WAT     H245174   5.060   3.086   7.382
14978WAT      O45175   7.242   0.388   4.097
14978WAT     H145176   7.216   0.349   4.185
14978WAT     H245177   7.335   0.423   4.101
14979WAT      O45178   4.097   2.650   5.906
14979WAT     H145179   4.170   2.695   5.856
14979WAT     H245180   4.132   2.617   5.994
14980WAT      O45181   0.757   3.718   5.784
14980WAT     H145182   0.740   3.816   5.783
14980WAT     H245183   0.676   3.670   5.749
14981WAT      O45184   7.040   1.622   1.356
14981WAT     H145185   7.031   1.524   1.337
14981WAT     H245186   7.017   1.675   1.275
14982WAT      O45187   4.359   7.168   4.280
14982WAT     H145188   4.369   7.212   4.191
14982WAT     H245189   4.313   7.231   4.343
14983WAT      O45190   4.733   2.861   3.377
14983WAT     H145191   4.634   2.859   3.359
14983WAT     H245192   4.751   2.919   3.455
14984WAT      O45193   0.226   1.278   1.022
14984WAT     H145194   0.291   1.318   1.087
14984WAT     H245195   0.201   1.346   0.953
14985WAT      O45196   1.974   2.362   3.650
14985WAT     H145197   1.978   2.264   3.667
14985WAT     H245198   1.920   2.379   3.567
14986WAT      O45199   6.103   1.300   8.632
14986WAT     H145200   6.194   1.287   8.671
14986WAT     H245201   6.044   1.225   8.659
14987WAT      O45202   3.766   4.337   1.883
14987WAT     H145203   3.678   4.288   1.879
14987WAT     H245204   3.816   4.308   1.964
14988WAT      O45205   4.718   0.958   6.545
14988WAT     H145206   4.776   1.026   6.590
14988WAT     H245207   4.772   0.876   6.527
14989WAT      O45208   4.660   7.160   0.472
14989WAT     H145209   4.645   7.254   0.441
14989WAT     H245210   4.725   7.160   0.548
14990WAT      O45211   6.617   8.760   4.498
14990WAT     H145212   6.676   8.680   4.486
14990WAT     H245213   6.588   8.766   4.593
14991WAT      O45214   6.986   0.501   8.436
14991WAT     H145215   7.056   0.572   8.443
14991WAT     H245216   6.926   0.505   8.516
14992WAT      O45217   8.238   9.069   0.550
14992WAT     H145218   8.257   9.166   0.567
14992WAT     H245219   8.317   9.027   0.504
14993WAT      O45220   2.154   2.682   9.761
14993WAT     H145221   2.162   2.780   9.775
14993WAT     H245222   2.076   2.663   9.701
14994WAT      O45223   6.106   1.399   0.410
14994WAT     H145224   6.150   1.358   0.489
14994WAT     H245225   6.037   1.336   0.373
14995WAT      O45226   4.559   6.423   4.841
14995WAT     H145227   4.580   6.517   4.815
14995WAT     H245228   4.468   6.420   4.883
14996WAT      O45229   5.570   3.831   2.100
14996WAT     H145230   5.576   3.926   2.131
14996WAT     H245231   5.556   3.829   2.001
14997WAT      O45232   3.194   0.668   2.305
14997WAT     H145233   3.133   0.737   2.265
14997WAT     H245234   3.289   0.692   2.285
14998WAT      O45235   8.589   7.661   8.434
14998WAT     H145236   8.536   7.746   8.430
14998WAT     H245237   8.686   7.682   8.422
14999WAT      O45238   3.387   5.988   8.213
14999WAT     H145239   3.302   5.937   8.198
14999WAT     H245240   3.397   6.008   8.310
15000WAT      O45241   9.073   6.409   8.826
15000WAT     H145242   9.054   6.505   8.848
15000WAT     H245243   9.172   6.396   8.818
15001WAT      O45244   8.484   7.380   8.336
15001WAT     H145245   8.514   7.472   8.363
15001WAT     H245246   8.521   7.357   8.246
15002WAT      O45247   9.785   2.473   8.571
15002WAT     H145248   9.857   2.542   8.566
15002WAT     H245249   9.827   2.382   8.573
15003WAT      O45250   4.543   7.046   2.352
15003WAT     H145251   4.453   7.051   2.394
15003WAT     H245252   4.535   7.065   2.254
15004WAT      O45253   4.582   8.543   6.812
15004WAT     H145254   4.574   8.625   6.755
15004WAT     H245255   4.501   8.535   6.870
15005WAT      O45256   4.959   2.359   5.608
15005WAT     H145257   4.888   2.290   5.624
15005WAT     H245258   5.049   2.318   5.620
15006WAT      O45259   3.897   3.010   8.653
15006WAT     H145260   3.965   2.965   8.595
15006WAT     H245261   3.922   3.106   8.666
15007WAT      O45262   5.284   3.888   9.043
15007WAT     H145263   5.367   3.916   9.090
15007WAT     H245264   5.294   3.902   8.944
15008WAT      O45265   7.894   6.158   0.111
15008WAT     H145266   7.858   6.065   0.098
15008WAT     H245267   7.818   6.223   0.116
15009WAT      O45268   3.388   2.749   0.576
15009WAT     H145269   3.412   2.820   0.510
15009WAT     H245270   3.401   2.659   0.535
15010WAT      O45271   0.852   0.353   9.449
15010WAT     H145272   0.753   0.355   9.466
15010WAT     H245273   0.877   0.264   9.411
15011WAT      O45274   4.662   8.993   4.461
15011WAT     H145275   4.742   8.985   4.402
15011WAT     H245276   4.684   8.957   4.552
15012WAT      O45277   1.705   7.398   0.992
15012WAT     H145278   1.797   7.367   0.970
15012WAT     H245279   1.638   7.335   0.951
15013WAT      O45280   7.485   2.195   5.560
15013WAT     H145281   7.512   2.179   5.465
15013WAT     H245282   7.391   2.227   5.563
15014WAT      O45283   2.666   0.118   0.914
15014WAT     H145284   2.567   0.133   0.922
15014WAT     H245285   2.715   0.194   0.956
15015WAT      O45286   8.003   9.277   0.682
15015WAT     H145287   7.984   9.204   0.747
15015WAT     H245288   7.935   9.275   0.609
15016WAT      O45289   3.276   0.100   3.024
15016WAT     H145290   3.338   0.142   2.958
15016WAT     H245291   3.201   0.164   3.043
15017WAT      O45292   3.245   6.211   6.157
15017WAT     H145293   3.284   6.303   6.161
15017WAT     H245294   3.147   6.214   6.177
15018WAT      O45295   7.009   0.986   1.333
15018WAT     H145296   6.989   1.050   1.259
15018WAT     H245297   6.958   0.901   1.319
15019WAT      O45298   0.493   1.347   6.928
15019WAT     H145299   0.588   1.373   6.909
15019WAT     H245300   0.434   1.382   6.856
15020WAT      O45301   2.420   4.245   5.501
15020WAT     H145302   2.478   4.169   5.470
15020WAT     H245303   2.324   4.221   5.485
15021WAT      O45304   1.203   7.682   3.186
15021WAT     H145305   1.272   7.723   3.126
15021WAT     H245306   1.159   7.754   3.241
15022WAT      O45307   7.318   4.145  -0.001
15022WAT     H145308   7.279   4.237   0.001
15022WAT     H245309   7.332   4.112   0.092
15023WAT      O45310   1.175   1.792   9.279
15023WAT     H145311   1.079   1.762   9.284
15023WAT     H245312   1.180   1.891   9.290
15024WAT      O45313   4.296   4.372   6.541
15024WAT     H145314   4.370   4.411   6.486
15024WAT     H245315   4.334   4.304   6.604
15025WAT      O45316   3.329   5.311   1.224
15025WAT     H145317   3.345   5.233   1.285
15025WAT     H245318   3.409   5.372   1.225
15026WAT      O45319   4.477   5.875   4.010
15026WAT     H145320   4.550   5.912   4.068
15026WAT     H245321   4.491   5.777   3.998
15027WAT      O45322   1.240   8.953   2.756
15027WAT     H145323   1.338   8.937   2.741
15027WAT     H245324   1.226   9.047   2.786
15028WAT      O45325   2.291   3.310   8.931
15028WAT     H145326   2.241   3.390   8.962
15028WAT     H245327   2.243   3.269   8.854
15029WAT      O45328   9.295   5.375   3.107
15029WAT     H145329   9.305   5.343   3.201
15029WAT     H245330   9.366   5.333   3.050
15030WAT      O45331   6.903   0.215   0.585
15030WAT     H145332   6.840   0.227   0.662
15030WAT     H245333   6.850   0.203   0.501
15031WAT      O45334   2.558   9.735   9.278
15031WAT     H145335   2.515   9.651   9.312
15031WAT     H245336   2.493   9.785   9.221
15032WAT      O45337   7.016   1.443   7.801
15032WAT     H145338   6.918   1.447   7.820
15032WAT     H245339   7.030   1.417   7.705
15033WAT      O45340   0.976   7.854   9.002
15033WAT     H145341   0.901   7.919   9.013
15033WAT     H245342   1.060   7.893   9.039
15034WAT      O45343   7.217   5.944   6.097
15034WAT     H145344   7.303   5.986   6.124
15034WAT     H245345   7.235   5.869   6.033
15035WAT      O45346   7.142   2.060   5.139
15035WAT     H145347   7.237   2.088   5.147
15035WAT     H245348   7.129   2.009   5.054
15036WAT      O45349   8.405   2.563   8.129
15036WAT     H145350   8.386   2.473   8.168
15036WAT     H245351   8.400   2.558   8.029
15037WAT      O45352   4.483   8.043   4.288
15037WAT     H145353   4.549   7.975   4.320
15037WAT     H245354   4.431   8.078   4.366
15038WAT      O45355   2.019   3.704   4.852
15038WAT     H145356   2.054   3.797   4.853
15038WAT     H245357   1.939   3.697   4.911
15039WAT      O45358   4.445   2.227   1.153
15039WAT     H145359   4.348   2.214   1.177
15039WAT     H245360   4.502   2.176   1.216
15040WAT      O45361   0.271   1.321   4.964
15040WAT     H145362   0.362   1.314   5.004
15040WAT     H245363   0.273   1.287   4.870
15041WAT      O45364   0.870   2.790   7.038
15041WAT     H145365   0.890   2.869   6.980
15041WAT     H245366   0.831   2.821   7.125
15042WAT      O45367   4.978   8.890   0.876
15042WAT     H145368   4.904   8.931   0.930
15042WAT     H245369   4.938   8.837   0.801
15043WAT      O45370   4.295   9.787   3.759
15043WAT     H145371   4.215   9.825   3.713
15043WAT     H245372   4.352   9.739   3.692
15044WAT      O45373   4.601   1.587   6.662
15044WAT     H145374   4.528   1.525   6.634
15044WAT     H245375   4.634   1.560   6.753
15045WAT      O45376   4.370   1.246   6.333
15045WAT     H145377   4.378   1.206   6.242
15045WAT     H245378   4.455   1.294   6.355
15046WAT      O45379   7.588   4.956   1.328
15046WAT     H145380   7.611   4.867   1.288
15046WAT     H245381   7.609   5.028   1.262
15047WAT      O45382   8.755   4.607   0.706
15047WAT     H145383   8.708   4.540   0.648
15047WAT     H245384   8.712   4.609   0.796
15048WAT      O45385   4.668   7.821   3.075
15048WAT     H145386   4.602   7.747   3.061
15048WAT     H245387   4.621   7.908   3.079
15049WAT      O45388   5.400   6.622   8.122
15049WAT     H145389   5.352   6.571   8.194
15049WAT     H245390   5.353   6.708   8.105
15050WAT      O45391   4.752   6.819   9.178
15050WAT     H145392   4.686   6.857   9.243
15050WAT     H245393   4.713   6.818   9.086
15051WAT      O45394   4.901   9.745   7.945
15051WAT     H145395   4.843   9.683   7.997
15051WAT     H245396   4.997   9.720   7.957
15052WAT      O45397   5.734   0.933   7.188
15052WAT     H145398   5.766   0.857   7.131
15052WAT     H245399   5.693   1.003   7.130
15053WAT      O45400   3.762   8.457   5.659
15053WAT     H145401   3.738   8.550   5.629
15053WAT     H245402   3.787   8.460   5.756
15054WAT      O45403   5.439   7.355   5.393
15054WAT     H145404   5.400   7.447   5.402
15054WAT     H245405   5.539   7.361   5.400
15055WAT      O45406   1.721   6.082   5.510
15055WAT     H145407   1.745   6.053   5.418
15055WAT     H245408   1.699   6.001   5.565
15056WAT      O45409   0.993   8.748   2.600
15056WAT     H145410   0.903   8.725   2.637
15056WAT     H245411   1.011   8.845   2.614
15057WAT      O45412   8.486   2.777   1.902
15057WAT     H145413   8.583   2.755   1.903
15057WAT     H245414   8.471   2.869   1.939
15058WAT      O45415   4.658   2.365   7.489
15058WAT     H145416   4.666   2.342   7.586
15058WAT     H245417   4.658   2.281   7.435
15059WAT      O45418   6.966   4.290   1.908
15059WAT     H145419   6.960   4.192   1.926
15059WAT     H245420   6.895   4.338   1.961
15060WAT      O45421   1.665   7.219   4.253
15060WAT     H145422   1.737   7.286   4.235
15060WAT     H245423   1.693   7.130   4.218
15061WAT      O45424   3.710   6.487   2.501
15061WAT     H145425   3.755   6.569   2.538
15061WAT     H245426   3.625   6.514   2.456
15062WAT      O45427   3.155   2.199   4.763
15062WAT     H145428   3.142   2.234   4.671
15062WAT     H245429   3.235   2.138   4.764
15063WAT      O45430   5.005   0.468   4.616
15063WAT     H145431   4.928   0.405   4.617
15063WAT     H245432   5.047   0.471   4.706
15064WAT      O45433   9.815   2.522   2.701
15064WAT     H145434   9.912   2.497   2.696
15064WAT     H245435   9.760   2.450   2.660
15065WAT      O45436   6.806   7.462   3.408
15065WAT     H145437   6.796   7.520   3.327
15065WAT     H245438   6.862   7.383   3.384
15066WAT      O45439   4.502   4.442   0.828
15066WAT     H145440   4.412   4.400   0.839
15066WAT     H245441   4.527   4.442   0.732
15067WAT      O45442   0.901   3.497   1.361
15067WAT     H145443   0.887   3.531   1.268
15067WAT     H245444   0.827   3.433   1.384
15068WAT      O45445   9.017   7.605   8.213
15068WAT     H145446   8.983   7.651   8.131
15068WAT     H245447   8.976   7.645   8.295
15069WAT      O45448   3.893   4.759   1.378
15069WAT     H145449   3.867   4.686   1.315
15069WAT     H245450   3.850   4.744   1.467
15070WAT      O45451   7.516   0.414   4.070
15070WAT     H145452   7.502   0.326   4.114
15070WAT     H245453   7.609   0.446   4.087
15071WAT      O45454   4.521   2.687   2.935
15071WAT     H145455   4.449   2.755   2.940
15071WAT     H245456   4.593   2.710   3.000
15072WAT      O45457   7.960   2.125   0.863
15072WAT     H145458   8.030   2.096   0.927
15072WAT     H245459   7.984   2.214   0.824
15073WAT      O45460   1.890   9.023   0.578
15073WAT     H145461   1.945   9.080   0.517
15073WAT     H245462   1.875   9.072   0.664
15074WAT      O45463   7.051   1.145   8.170
15074WAT     H145464   7.033   1.100   8.083
15074WAT     H245465   7.097   1.232   8.155
15075WAT      O45466   6.020   8.823   2.220
15075WAT     H145467   5.992   8.865   2.134
15075WAT     H245468   5.955   8.752   2.246
15076WAT      O45469   1.550   9.646   7.853
15076WAT     H145470   1.460   9.617   7.885
15076WAT     H245471   1.554   9.746   7.852
15077WAT      O45472   1.083   4.001   0.547
15077WAT     H145473   1.053   3.919   0.594
15077WAT     H245474   1.010   4.070   0.551
15078WAT      O45475   0.941   1.820   3.662
15078WAT     H145476   0.888   1.748   3.707
15078WAT     H245477   1.029   1.830   3.707
15079WAT      O45478   1.238   3.777   3.434
15079WAT     H145479   1.212   3.773   3.530
15079WAT     H245480   1.264   3.686   3.402
15080WAT      O45481   2.381   0.918   2.801
15080WAT     H145482   2.362   0.905   2.898
15080WAT     H245483   2.351   0.837   2.750
15081WAT      O45484   9.464   8.491   4.163
15081WAT     H145485   9.544   8.543   4.194
15081WAT     H245486   9.495   8.409   4.113
15082WAT      O45487   2.135   9.445   0.610
15082WAT     H145488   2.136   9.348   0.632
15082WAT     H245489   2.168   9.497   0.689
15083WAT      O45490   2.548   5.497   2.083
15083WAT     H145491   2.570   5.595   2.077
15083WAT     H245492   2.503   5.479   2.170
15084WAT      O45493   3.444   9.371   2.608
15084WAT     H145494   3.481   9.365   2.515
15084WAT     H245495   3.402   9.283   2.633
15085WAT      O45496   6.614   5.540   6.460
15085WAT     H145497   6.616   5.583   6.550
15085WAT     H245498   6.703   5.501   6.439
15086WAT      O45499   0.766   5.059   1.057
15086WAT     H145500   0.745   5.056   1.154
15086WAT     H245501   0.861   5.087   1.044
15087WAT      O45502   0.974   1.889   4.101
15087WAT     H145503   0.912   1.951   4.053
15087WAT     H245504   0.945   1.880   4.196
15088WAT      O45505   8.606   3.337   9.645
15088WAT     H145506   8.610   3.259   9.707
15088WAT     H245507   8.511   3.361   9.626
15089WAT      O45508   2.739   5.537   2.402
15089WAT     H145509   2.757   5.635   2.396
15089WAT     H245510   2.793   5.489   2.333
15090WAT      O45511   0.402   7.026   5.148
15090WAT     H145512   0.344   6.945   5.158
15090WAT     H245513   0.359   7.104   5.193
15091WAT      O45514   4.333   6.270   8.366
15091WAT     H145515   4.301   6.284   8.272
15091WAT     H245516   4.257   6.241   8.424
15092WAT      O45517   6.504   0.558   4.195
15092WAT     H145518   6.429   0.491   4.187
15092WAT     H245519   6.476   0.643   4.151
15093WAT      O45520   4.507   7.982   0.015
15093WAT     H145521   4.508   8.082   0.026
15093WAT     H245522   4.592   7.953  -0.028
15094WAT      O45523   5.873   6.186   9.450
15094WAT     H145524   5.865   6.129   9.368
15094WAT     H245525   5.829   6.274   9.435
15095WAT      O45526   3.936   8.097   3.584
15095WAT     H145527   3.918   8.138   3.494
15095WAT     H245528   3.851   8.059   3.621
15096WAT      O45529   7.561   1.368   4.530
15096WAT     H145530   7.471   1.331   4.553
15096WAT     H245531   7.575   1.454   4.579
15097WAT      O45532   2.009   4.525   2.561
15097WAT     H145533   2.037   4.455   2.497
15097WAT     H245534   2.059   4.514   2.647
15098WAT      O45535   7.851   0.533   9.731
15098WAT     H145536   7.828   0.607   9.667
15098WAT     H245537   7.773   0.518   9.792
15099WAT      O45538   4.497   4.795   0.123
15099WAT     H145539   4.420   4.841   0.080
15099WAT     H245540   4.583   4.829   0.083
15100WAT      O45541   1.254   7.578   7.933
15100WAT     H145542   1.295   7.508   7.874
15100WAT     H245543   1.266   7.553   8.029
15101WAT      O45544   9.044   9.759   4.734
15101WAT     H145545   9.029   9.666   4.702
15101WAT     H245546   9.129   9.763   4.787
15102WAT      O45547   7.890   3.380   6.549
15102WAT     H145548   7.882   3.417   6.457
15102WAT     H245549   7.800   3.377   6.592
15103WAT      O45550   7.311   5.330   5.156
15103WAT     H145551   7.215   5.308   5.174
15103WAT     H245552   7.317   5.388   5.075
15104WAT      O45553   0.720   2.824   4.879
15104WAT     H145554   0.730   2.733   4.920
15104WAT     H245555   0.625   2.854   4.890
15105WAT      O45556   7.053   2.090   9.004
15105WAT     H145557   7.084   2.183   9.024
15105WAT     H245558   7.072   2.068   8.908
15106WAT      O45559   5.962   9.218   1.867
15106WAT     H145560   5.918   9.284   1.927
15106WAT     H245561   6.045   9.183   1.911
15107WAT      O45562   7.347   0.009   1.750
15107WAT     H145563   7.409   0.054   1.815
15107WAT     H245564   7.304  -0.070   1.793
15108WAT      O45565   5.867   5.767   4.989
15108WAT     H145566   5.874   5.832   5.065
15108WAT     H245567   5.783   5.714   4.998
15109WAT      O45568   6.347   5.638   5.652
15109WAT     H145569   6.416   5.592   5.596
15109WAT     H245570   6.306   5.573   5.715
15110WAT      O45571   6.958   1.740   8.488
15110WAT     H145572   6.967   1.834   8.523
15110WAT     H245573   6.944   1.742   8.389
15111WAT      O45574   9.729   5.487   2.431
15111WAT     H145575   9.805   5.465   2.369
15111WAT     H245576   9.757   5.559   2.494
15112WAT      O45577   2.448   0.312   8.472
15112WAT     H145578   2.395   0.312   8.557
15112WAT     H245579   2.389   0.286   8.396
15113WAT      O45580   9.014   1.443   5.820
15113WAT     H145581   9.023   1.392   5.906
15113WAT     H245582   9.104   1.467   5.786
15114WAT      O45583   2.024   9.808   9.555
15114WAT     H145584   2.013   9.907   9.548
15114WAT     H245585   1.954   9.763   9.500
15115WAT      O45586   4.624   3.701   0.993
15115WAT     H145587   4.653   3.753   1.074
15115WAT     H245588   4.690   3.628   0.975
15116WAT      O45589   1.400   0.424   3.782
15116WAT     H145590   1.407   0.358   3.857
15116WAT     H245591   1.478   0.486   3.784
15117WAT      O45592   7.762   1.365   2.444
15117WAT     H145593   7.734   1.271   2.462
15117WAT     H245594   7.727   1.425   2.516
15118WAT      O45595   2.809   2.050   3.428
15118WAT     H145596   2.804   2.099   3.341
15118WAT     H245597   2.900   2.061   3.468
15119WAT      O45598   1.377   9.362   4.489
15119WAT     H145599   1.469   9.347   4.525
15119WAT     H245600   1.314   9.381   4.564
15120WAT      O45601   1.446   2.819   0.475
15120WAT     H145602   1.394   2.868   0.546
15120WAT     H245603   1.403   2.834   0.386
15121WAT      O45604   3.643   5.911   6.937
15121WAT     H145605   3.571   5.844   6.954
15121WAT     H245606   3.608   6.003   6.956
15122WAT      O45607   2.344   9.779   7.623
15122WAT     H145608   2.293   9.864   7.610
15122WAT     H245609   2.377   9.774   7.717
15123WAT      O45610   8.009   9.344   1.315
15123WAT     H145611   8.062   9.290   1.380
15123WAT     H245612   7.948   9.406   1.364
15124WAT      O45613   3.572   2.543   6.910
15124WAT     H145614   3.512   2.480   6.959
15124WAT     H245615   3.611   2.609   6.973
15125WAT      O45616   4.711   5.335   8.376
15125WAT     H145617   4.654   5.320   8.295
15125WAT     H245618   4.758   5.249   8.400
15126WAT      O45619   1.543   7.538   3.012
15126WAT     H145620   1.552   7.469   2.940
15126WAT     H245621   1.460   7.593   2.995
15127WAT      O45622   1.009   7.696   2.722
15127WAT     H145623   1.067   7.620   2.693
15127WAT     H245624   0.915   7.680   2.691
15128WAT      O45625   9.567   0.128   9.104
15128WAT     H145626   9.470   0.152   9.099
15128WAT     H245627   9.578   0.031   9.085
15129WAT      O45628   6.228   0.669   8.187
15129WAT     H145629   6.263   0.576   8.198
15129WAT     H245630   6.130   0.666   8.169
15130WAT      O45631   7.821   7.262   4.919
15130WAT     H145632   7.867   7.213   4.993
15130WAT     H245633   7.880   7.262   4.837
15131WAT      O45634   0.063   1.521   6.021
15131WAT     H145635  -0.015   1.489   5.968
15131WAT     H245636   0.132   1.449   6.026
15132WAT      O45637   7.731   7.536   8.505
15132WAT     H145638   7.757   7.445   8.472
15132WAT     H245639   7.648   7.566   8.458
15133WAT      O45640   0.176   2.743   9.841
15133WAT     H145641   0.128   2.658   9.818
15133WAT     H245642   0.125   2.821   9.806
15134WAT      O45643   4.356   4.010   8.062
15134WAT     H145644   4.419   4.046   7.993
15134WAT     H245645   4.265   4.001   8.022
15135WAT      O45646   0.758   9.201   6.640
15135WAT     H145647   0.702   9.177   6.561
15135WAT     H245648   0.762   9.300   6.649
15136WAT      O45649   2.960   7.529   8.015
15136WAT     H145650   2.869   7.569   8.023
15136WAT     H245651   2.984   7.520   7.919
15137WAT      O45652   7.922   3.465   4.526
15137WAT     H145653   7.886   3.396   4.463
15137WAT     H245654   7.972   3.535   4.475
15138WAT      O45655   4.346   0.604   7.748
15138WAT     H145656   4.400   0.649   7.676
15138WAT     H245657   4.264   0.564   7.707
15139WAT      O45658   4.738   4.323   0.932
15139WAT     H145659   4.723   4.259   1.008
15139WAT     H245660   4.655   4.376   0.916
15140WAT      O45661   5.327   0.806   3.911
15140WAT     H145662   5.340   0.899   3.876
15140WAT     H245663   5.414   0.756   3.906
15141WAT      O45664   1.308   5.751   8.774
15141WAT     H145665   1.317   5.845   8.740
15141WAT     H245666   1.212   5.723   8.771
15142WAT      O45667   0.248   0.679   7.872
15142WAT     H145668   0.337   0.639   7.848
15142WAT     H245669   0.176   0.611   7.857
15143WAT      O45670   6.549   8.344   9.441
15143WAT     H145671   6.594   8.255   9.439
15143WAT     H245672   6.454   8.333   9.470
15144WAT      O45673   5.772   3.096   1.102
15144WAT     H145674   5.773   3.071   1.005
15144WAT     H245675   5.864   3.125   1.130
15145WAT      O45676   2.173   4.161   8.980
15145WAT     H145677   2.180   4.232   9.050
15145WAT     H245678   2.082   4.165   8.938
15146WAT      O45679   7.394   6.718   4.833
15146WAT     H145680   7.465   6.787   4.843
15146WAT     H245681   7.433   6.636   4.791
15147WAT      O45682   5.939   1.753   6.410
15147WAT     H145683   5.880   1.736   6.489
15147WAT     H245684   5.988   1.669   6.387
15148WAT      O45685   2.120   0.170   7.201
15148WAT     H145686   2.183   0.092   7.191
15148WAT     H245687   2.136   0.235   7.127
15149WAT      O45688   0.072   3.591   3.110
15149WAT     H145689   0.003   3.623   3.175
15149WAT     H245690   0.126   3.518   3.151
15150WAT      O45691   8.639   3.806   6.289
15150WAT     H145692   8.727   3.853   6.299
15150WAT     H245693   8.652   3.720   6.241
15151WAT      O45694   2.495   0.699   9.788
15151WAT     H145695   2.415   0.756   9.769
15151WAT     H245696   2.510   0.635   9.713
15152WAT      O45697   1.351   1.137   7.847
15152WAT     H145698   1.325   1.220   7.896
15152WAT     H245699   1.273   1.074   7.845
15153WAT      O45700   1.800   6.331   5.190
15153WAT     H145701   1.772   6.398   5.259
15153WAT     H245702   1.778   6.239   5.223
15154WAT      O45703   9.514   2.815   0.144
15154WAT     H145704   9.520   2.744   0.214
15154WAT     H245705   9.571   2.790   0.066
15155WAT      O45706   9.202   9.681   3.167
15155WAT     H145707   9.175   9.620   3.241
15155WAT     H245708   9.125   9.693   3.104
15156WAT      O45709   5.419   7.956   0.362
15156WAT     H145710   5.398   7.985   0.455
15156WAT     H245711   5.458   8.034   0.311
15157WAT      O45712   5.049   7.747   9.568
15157WAT     H145713   5.040   7.775   9.663
15157WAT     H245714   4.964   7.702   9.539
15158WAT      O45715   3.695   0.318   4.180
15158WAT     H145716   3.600   0.326   4.148
15158WAT     H245717   3.708   0.230   4.225
15159WAT      O45718   7.372   2.362   7.065
15159WAT     H145719   7.303   2.291   7.079
15159WAT     H245720   7.377   2.385   6.968
15160WAT      O45721   4.874   4.042   8.722
15160WAT     H145722   4.826   4.129   8.712
15160WAT     H245723   4.843   3.996   8.805
15161WAT      O45724   8.871   2.508   6.521
15161WAT     H145725   8.772   2.497   6.514
15161WAT     H245726   8.912   2.421   6.550
15162WAT      O45727   0.485   3.910   7.024
15162WAT     H145728   0.510   3.938   6.931
15162WAT     H245729   0.565   3.916   7.083
15163WAT      O45730   0.080   7.328   0.863
15163WAT     H145731   0.124   7.256   0.916
15163WAT     H245732  -0.019   7.314   0.863
15164WAT      O45733   1.925   6.667   4.144
15164WAT     H145734   1.978   6.719   4.077
15164WAT     H245735   1.974   6.667   4.231
15165WAT      O45736   9.850   7.271   0.412
15165WAT     H145737   9.835   7.366   0.385
15165WAT     H245738   9.785   7.212   0.364
15166WAT      O45739   8.133   8.912   7.382
15166WAT     H145740   8.181   8.826   7.400
15166WAT     H245741   8.101   8.914   7.288
15167WAT      O45742   0.553   2.742   0.607
15167WAT     H145743   0.614   2.809   0.564
15167WAT     H245744   0.591   2.650   0.594
15168WAT      O45745   2.030   8.580   4.617
15168WAT     H145746   2.073   8.507   4.562
15168WAT     H245747   2.012   8.659   4.558
15169WAT      O45748   3.261   5.345   8.278
15169WAT     H145749   3.232   5.438   8.253
15169WAT     H245750   3.352   5.328   8.240
15170WAT      O45751   6.016   8.127   1.607
15170WAT     H145752   6.100   8.117   1.552
15170WAT     H245753   5.939   8.148   1.546
15171WAT      O45754   3.954   6.429   0.858
15171WAT     H145755   3.903   6.431   0.772
15171WAT     H245756   3.952   6.520   0.899
15172WAT      O45757   0.213   7.121   1.016
15172WAT     H145758   0.158   7.039   1.033
15172WAT     H245759   0.248   7.157   1.102
15173WAT      O45760   4.225   6.310   3.103
15173WAT     H145761   4.275   6.243   3.158
15173WAT     H245762   4.244   6.402   3.137
15174WAT      O45763   4.494   8.939   9.140
15174WAT     H145764   4.429   8.938   9.064
15174WAT     H245765   4.454   8.990   9.216
15175WAT      O45766   1.628   8.420   1.906
15175WAT     H145767   1.531   8.440   1.887
15175WAT     H245768   1.677   8.409   1.819
15176WAT      O45769   0.698   9.398   2.567
15176WAT     H145770   0.662   9.456   2.494
15176WAT     H245771   0.622   9.358   2.618
15177WAT      O45772   4.211   7.679   7.612
15177WAT     H145773   4.172   7.769   7.593
15177WAT     H245774   4.145   7.624   7.662
15178WAT      O45775   3.902   2.729   2.603
15178WAT     H145776   3.826   2.664   2.606
15178WAT     H245777   3.878   2.812   2.653
15179WAT      O45778   3.004   5.597   7.219
15179WAT     H145779   2.923   5.539   7.219
15179WAT     H245780   3.086   5.540   7.215
15180WAT      O45781   5.156   8.896   2.189
15180WAT     H145782   5.165   8.936   2.098
15180WAT     H245783   5.072   8.931   2.232
15181WAT      O45784   8.707   9.502   3.069
15181WAT     H145785   8.688   9.527   3.163
15181WAT     H245786   8.699   9.402   3.058
15182WAT      O45787   8.546   9.729   3.747
15182WAT     H145788   8.556   9.821   3.707
15182WAT     H245789   8.635   9.697   3.779
15183WAT      O45790   1.873   5.626   4.742
15183WAT     H145791   1.860   5.624   4.643
15183WAT     H245792   1.954   5.573   4.766
15184WAT      O45793   7.140   1.038   6.332
15184WAT     H145794   7.191   1.028   6.418
15184WAT     H245795   7.181   1.112   6.279
15185WAT      O45796   4.239   4.304   6.926
15185WAT     H145797   4.153   4.265   6.959
15185WAT     H245798   4.221   4.389   6.878
15186WAT      O45799   5.240   8.208   3.873
15186WAT     H145800   5.202   8.213   3.780
15186WAT     H245801   5.320   8.269   3.880
15187WAT      O45802   7.793   4.788   9.749
15187WAT     H145803   7.805   4.830   9.839
15187WAT     H245804   7.731   4.845   9.694
15188WAT      O45805   2.706   4.253   0.359
15188WAT     H145806   2.661   4.270   0.272
15188WAT     H245807   2.800   4.287   0.355
15189WAT      O45808   3.105   5.045   2.051
15189WAT     H145809   3.087   5.000   2.139
15189WAT     H245810   3.047   5.006   1.980
15190WAT      O45811   0.066   8.374   1.077
15190WAT     H145812   0.110   8.458   1.106
15190WAT     H245813   0.092   8.299   1.138
15191WAT      O45814   7.265   0.950   1.219
15191WAT     H145815   7.179   0.958   1.269
15191WAT     H245816   7.250   0.975   1.123
15192WAT      O45817   6.698   6.914   4.359
15192WAT     H145818   6.688   6.962   4.446
15192WAT     H245819   6.657   6.823   4.365
15193WAT      O45820   2.387   1.247   5.995
15193WAT     H145821   2.417   1.334   5.956
15193WAT     H245822   2.460   1.180   5.985
15194WAT      O45823   1.820   3.211   5.166
15194WAT     H145824   1.738   3.268   5.171
15194WAT     H245825   1.819   3.144   5.240
15195WAT      O45826   0.624   7.606   3.045
15195WAT     H145827   0.648   7.510   3.059
15195WAT     H245828   0.556   7.612   2.972
15196WAT      O45829   1.571   6.037   6.346
15196WAT     H145830   1.612   5.975   6.279
15196WAT     H245831   1.472   6.040   6.333
15197WAT      O45832   3.616   9.581   5.245
15197WAT     H145833   3.544   9.565   5.177
15197WAT     H245834   3.584   9.646   5.314
15198WAT      O45835   6.909   5.804   1.228
15198WAT     H145836   6.990   5.840   1.181
15198WAT     H245837   6.895   5.708   1.200
15199WAT      O45838   1.517   1.706   2.396
15199WAT     H145839   1.547   1.800   2.410
15199WAT     H245840   1.426   1.706   2.354
15200WAT      O45841   3.675   4.126   9.365
15200WAT     H145842   3.606   4.139   9.436
15200WAT     H245843   3.662   4.038   9.321
15201WAT      O45844   9.764   3.520   8.048
15201WAT     H145845   9.760   3.498   8.146
15201WAT     H245846   9.684   3.484   8.002
15202WAT      O45847   3.108   5.368   7.063
15202WAT     H145848   3.024   5.314   7.054
15202WAT     H245849   3.105   5.444   6.998
15203WAT      O45850   5.898   0.059   6.846
15203WAT     H145851   5.958  -0.016   6.871
15203WAT     H245852   5.917   0.088   6.752
15204WAT      O45853   5.873   9.750   7.207
15204WAT     H145854   5.958   9.795   7.178
15204WAT     H245855   5.870   9.749   7.307
15205WAT      O45856   5.156   1.216   3.102
15205WAT     H145857   5.235   1.218   3.163
15205WAT     H245858   5.075   1.247   3.151
15206WAT      O45859   2.786   3.047   4.497
15206WAT     H145860   2.825   3.018   4.584
15206WAT     H245861   2.720   3.120   4.513
15207WAT      O45862   7.808   0.003   2.299
15207WAT     H145863   7.731   0.067   2.303
15207WAT     H245864   7.888   0.043   2.343
15208WAT      O45865   6.448   4.630   8.163
15208WAT     H145866   6.460   4.676   8.251
15208WAT     H245867   6.537   4.618   8.119
15209WAT      O45868   3.052   1.591   4.006
15209WAT     H145869   3.032   1.602   4.103
15209WAT     H245870   3.109   1.667   3.975
15210WAT      O45871   2.323   7.084   1.988
15210WAT     H145872   2.324   7.046   2.080
15210WAT     H245873   2.244   7.048   1.938
15211WAT      O45874   3.877   3.621   9.069
15211WAT     H145875   3.902   3.550   9.136
15211WAT     H245876   3.778   3.622   9.059
15212WAT      O45877   6.959   8.736   7.055
15212WAT     H145878   6.910   8.657   7.018
15212WAT     H245879   7.038   8.705   7.108
15213WAT      O45880   6.396   2.928   2.874
15213WAT     H145881   6.463   2.876   2.821
15213WAT     H245882   6.429   2.941   2.967
15214WAT      O45883   6.498   1.236   3.362
15214WAT     H145884   6.480   1.331   3.389
15214WAT     H245885   6.411   1.187   3.355
15215WAT      O45886   3.284   6.953   3.066
15215WAT     H145887   3.332   7.015   3.004
15215WAT     H245888   3.260   7.001   3.151
15216WAT      O45889   1.941   8.501   2.992
15216WAT     H145890   1.992   8.415   2.988
15216WAT     H245891   1.951   8.550   2.905
15217WAT      O45892   3.801   2.059   5.362
15217WAT     H145893   3.869   1.999   5.319
15217WAT     H245894   3.796   2.038   5.460
15218WAT      O45895   1.121   8.633   0.891
15218WAT     H145896   1.112   8.535   0.876
15218WAT     H245897   1.163   8.649   0.981
15219WAT      O45898   6.319   1.403   3.693
15219WAT     H145899   6.252   1.368   3.759
15219WAT     H245900   6.411   1.380   3.725
15220WAT      O45901   7.685   5.689   6.453
15220WAT     H145902   7.774   5.676   6.497
15220WAT     H245903   7.699   5.719   6.359
15221WAT      O45904   2.790   3.999   6.759
15221WAT     H145905   2.767   4.096   6.759
15221WAT     H245906   2.834   3.976   6.846
15222WAT      O45907   1.123   9.635   5.292
15222WAT     H145908   1.045   9.661   5.348
15222WAT     H245909   1.175   9.564   5.339
15223WAT      O45910   0.992   7.840   2.128
15223WAT     H145911   0.984   7.939   2.113
15223WAT     H245912   1.085   7.810   2.107
15224WAT      O45913   7.835   0.134   2.068
15224WAT     H145914   7.826   0.072   2.146
15224WAT     H245915   7.916   0.190   2.080
15225WAT      O45916   5.687   1.885   8.600
15225WAT     H145917   5.703   1.927   8.689
15225WAT     H245918   5.609   1.822   8.606
15226WAT      O45919   8.148   3.983   4.410
15226WAT     H145920   8.056   4.017   4.389
15226WAT     H245921   8.152   3.956   4.507
15227WAT      O45922   7.699   8.865   5.468
15227WAT     H145923   7.604   8.892   5.455
15227WAT     H245924   7.718   8.856   5.566
15228WAT      O45925   6.212   4.026   3.263
15228WAT     H145926   6.231   4.036   3.361
15228WAT     H245927   6.187   3.931   3.243
15229WAT      O45928   8.206   8.343   2.963
15229WAT     H145929   8.233   8.318   2.870
15229WAT     H245930   8.123   8.399   2.959
15230WAT      O45931   5.002   4.428   9.249
15230WAT     H145932   5.083   4.451   9.303
15230WAT     H245933   4.943   4.367   9.303
15231WAT      O45934   9.264   0.843   0.384
15231WAT     H145935   9.355   0.819   0.350
15231WAT     H245936   9.204   0.864   0.306
15232WAT      O45937   4.373   8.408   8.313
15232WAT     H145938   4.458   8.444   8.351
15232WAT     H245939   4.364   8.438   8.218
15233WAT      O45940   2.388   6.875   3.651
15233WAT     H145941   2.474   6.829   3.675
15233WAT     H245942   2.361   6.847   3.559
15234WAT      O45943   2.246   7.387   0.863
15234WAT     H145944   2.284   7.343   0.782
15234WAT     H245945   2.281   7.481   0.869
15235WAT      O45946   5.042   8.894   1.468
15235WAT     H145947   4.955   8.926   1.429
15235WAT     H245948   5.116   8.956   1.439
15236WAT      O45949   0.437   8.395   7.626
15236WAT     H145950   0.406   8.397   7.721
15236WAT     H245951   0.401   8.312   7.581
15237WAT      O45952   2.578   0.404   0.081
15237WAT     H145953   2.618   0.494   0.064
15237WAT     H245954   2.641   0.333   0.049
15238WAT      O45955   7.214   4.336   1.802
15238WAT     H145956   7.123   4.331   1.842
15238WAT     H245957   7.282   4.318   1.872
15239WAT      O45958   0.192   0.265   2.446
15239WAT     H145959   0.187   0.276   2.346
15239WAT     H245960   0.186   0.167   2.468
15240WAT      O45961   6.078   0.264   7.370
15240WAT     H145962   5.984   0.297   7.371
15240WAT     H245963   6.094   0.207   7.451
15241WAT      O45964   2.843   1.410   2.544
15241WAT     H145965   2.916   1.364   2.494
15241WAT     H245966   2.874   1.500   2.573
15242WAT      O45967   4.434   7.525   0.742
15242WAT     H145968   4.458   7.604   0.797
15242WAT     H245969   4.445   7.547   0.645
15243WAT      O45970   5.013   7.332   0.429
15243WAT     H145971   5.039   7.420   0.390
15243WAT     H245972   4.924   7.341   0.474
15244WAT      O45973   2.734   3.177   4.952
15244WAT     H145974   2.684   3.103   4.998
15244WAT     H245975   2.716   3.263   4.998
15245WAT      O45976   7.301   2.184   7.720
15245WAT     H145977   7.393   2.169   7.685
15245WAT     H245978   7.273   2.278   7.701
15246WAT      O45979   3.765   5.372   9.807
15246WAT     H145980   3.704   5.370   9.886
15246WAT     H245981   3.720   5.417   9.730
15247WAT      O45982   7.553   6.042   4.194
15247WAT     H145983   7.569   6.033   4.096
15247WAT     H245984   7.618   6.107   4.233
15248WAT      O45985   0.553   2.051   7.714
15248WAT     H145986   0.519   2.112   7.786
15248WAT     H245987   0.532   1.956   7.739
15249WAT      O45988   8.718   6.591   2.086
15249WAT     H145989   8.816   6.596   2.067
15249WAT     H245990   8.694   6.497   2.110
15250WAT      O45991   0.605   3.618   9.677
15250WAT     H145992   0.703   3.627   9.659
15250WAT     H245993   0.582   3.521   9.682
15251WAT      O45994   7.522   3.299   1.097
15251WAT     H145995   7.610   3.289   1.052
15251WAT     H245996   7.453   3.245   1.049
15252WAT      O45997   3.060   4.787   2.163
15252WAT     H145998   3.115   4.763   2.242
15252WAT     H245999   2.967   4.752   2.175
15253WAT      O46000   2.934   4.838   1.036
15253WAT     H146001   2.949   4.874   0.945
15253WAT     H246002   2.864   4.766   1.033
15254WAT      O46003   5.916   7.553   2.933
15254WAT     H146004   5.841   7.506   2.981
15254WAT     H246005   6.001   7.503   2.947
15255WAT      O46006   3.186   3.777   8.055
15255WAT     H146007   3.228   3.817   8.137
15255WAT     H246008   3.256   3.763   7.985
15256WAT      O46009   0.762   0.247   1.211
15256WAT     H146010   0.741   0.191   1.291
15256WAT     H246011   0.695   0.230   1.139
15257WAT      O46012   9.671   2.871   5.831
15257WAT     H146013   9.621   2.956   5.811
15257WAT     H246014   9.640   2.834   5.919
15258WAT      O46015   2.850   7.883   1.910
15258WAT     H146016   2.836   7.784   1.909
15258WAT     H246017   2.873   7.914   1.818
15259WAT      O46018   7.304   3.182   6.992
15259WAT     H146019   7.222   3.155   6.942
15259WAT     H246020   7.346   3.102   7.034
15260WAT      O46021   7.964   8.209   3.823
15260WAT     H146022   7.960   8.218   3.723
15260WAT     H246023   8.053   8.172   3.849
15261WAT      O46024   1.909   6.491   1.754
15261WAT     H146025   1.912   6.469   1.656
15261WAT     H246026   1.816   6.480   1.788
15262WAT      O46027   1.371   5.502   1.713
15262WAT     H146028   1.391   5.503   1.811
15262WAT     H246029   1.369   5.595   1.678
15263WAT      O46030   0.677   3.251   2.631
15263WAT     H146031   0.577   3.250   2.634
15263WAT     H246032   0.713   3.166   2.670
15264WAT      O46033   7.859   3.780   7.021
15264WAT     H146034   7.929   3.833   7.070
15264WAT     H246035   7.903   3.717   6.957
15265WAT      O46036   9.467   2.218   9.250
15265WAT     H146037   9.496   2.184   9.339
15265WAT     H246038   9.548   2.242   9.196
15266WAT      O46039   2.227   1.493   5.558
15266WAT     H146040   2.131   1.495   5.586
15266WAT     H246041   2.254   1.582   5.523
15267WAT      O46042   5.475   6.053   4.790
15267WAT     H146043   5.543   6.117   4.826
15267WAT     H246044   5.400   6.044   4.857
15268WAT      O46045   7.378   9.241   0.599
15268WAT     H146046   7.390   9.210   0.693
15268WAT     H246047   7.328   9.172   0.547
15269WAT      O46048   1.067   4.211   9.572
15269WAT     H146049   1.034   4.205   9.666
15269WAT     H246050   1.166   4.230   9.572
15270WAT      O46051   7.542   7.624   5.519
15270WAT     H146052   7.499   7.622   5.429
15270WAT     H246053   7.563   7.718   5.544
15271WAT      O46054   8.762   1.148   4.666
15271WAT     H146055   8.704   1.166   4.586
15271WAT     H246056   8.853   1.118   4.635
15272WAT      O46057   9.556   4.654   6.611
15272WAT     H146058   9.575   4.557   6.631
15272WAT     H246059   9.625   4.711   6.656
15273WAT      O46060   7.168   1.355   4.284
15273WAT     H146061   7.157   1.447   4.247
15273WAT     H246062   7.099   1.339   4.354
15274WAT      O46063   7.477   9.671   8.820
15274WAT     H146064   7.537   9.685   8.899
15274WAT     H246065   7.388   9.713   8.838
15275WAT      O46066   5.950   5.718   4.722
15275WAT     H146067   5.934   5.744   4.818
15275WAT     H246068   5.910   5.786   4.662
15276WAT      O46069   9.091   9.244   5.439
15276WAT     H146070   9.093   9.262   5.341
15276WAT     H246071   9.177   9.277   5.480
15277WAT      O46072   5.313   2.350   0.516
15277WAT     H146073   5.310   2.430   0.576
15277WAT     H246074   5.221   2.311   0.508
15278WAT      O46075   7.897   8.420   3.104
15278WAT     H146076   7.874   8.333   3.062
15278WAT     H246077   7.819   8.483   3.095
15279WAT      O46078   6.230   5.920   8.552
15279WAT     H146079   6.304   5.854   8.551
15279WAT     H246080   6.142   5.872   8.549
15280WAT      O46081   9.758   7.024   4.370
15280WAT     H146082   9.720   7.116   4.379
15280WAT     H246083   9.695   6.958   4.413
15281WAT      O46084   4.838   7.765   4.835
15281WAT     H146085   4.765   7.706   4.867
15281WAT     H246086   4.803   7.826   4.764
15282WAT      O46087   1.703   1.411   6.430
15282WAT     H146088   1.802   1.408   6.446
15282WAT     H246089   1.675   1.506   6.411
15283WAT      O46090   9.203   1.750   9.088
15283WAT     H146091   9.216   1.839   9.132
15283WAT     H246092   9.167   1.684   9.154
15284WAT      O46093   0.080   3.437   1.424
15284WAT     H146094  -0.010   3.460   1.460
15284WAT     H246095   0.102   3.342   1.444
15285WAT      O46096   8.311   6.531   5.423
15285WAT     H146097   8.399   6.557   5.385
15285WAT     H246098   8.239   6.586   5.382
15286WAT      O46099   7.866   4.625   2.895
15286WAT     H146100   7.833   4.556   2.959
15286WAT     H246101   7.893   4.707   2.945
15287WAT      O46102   7.039   3.690   0.502
15287WAT     H146103   7.138   3.693   0.488
15287WAT     H246104   7.001   3.612   0.452
15288WAT      O46105   0.780   2.691   5.834
15288WAT     H146106   0.873   2.692   5.870
15288WAT     H246107   0.727   2.763   5.879
15289WAT      O46108   6.569   5.233   9.458
15289WAT     H146109   6.513   5.166   9.409
15289WAT     H246110   6.655   5.247   9.408
15290WAT      O46111   2.065   3.698   7.159
15290WAT     H146112   2.046   3.615   7.211
15290WAT     H246113   2.099   3.674   7.068
15291WAT      O46114   6.780   6.124   0.720
15291WAT     H146115   6.878   6.127   0.742
15291WAT     H246116   6.768   6.122   0.621
15292WAT      O46117   8.469   5.843   7.759
15292WAT     H146118   8.402   5.769   7.760
15292WAT     H246119   8.538   5.826   7.830
15293WAT      O46120   0.235   0.700   0.311
15293WAT     H146121   0.194   0.754   0.385
15293WAT     H246122   0.288   0.760   0.252
15294WAT      O46123   9.328   6.286   2.209
15294WAT     H146124   9.257   6.230   2.167
15294WAT     H246125   9.383   6.329   2.138
15295WAT      O46126   3.457   2.815   2.614
15295WAT     H146127   3.425   2.737   2.559
15295WAT     H246128   3.429   2.802   2.709
15296WAT      O46129   5.164   4.931   5.296
15296WAT     H146130   5.157   5.003   5.226
15296WAT     H246131   5.252   4.938   5.342
15297WAT      O46132   0.024   9.057   7.114
15297WAT     H146133  -0.048   9.049   7.183
15297WAT     H246134   0.092   9.125   7.143
15298WAT      O46135   5.411   7.962   4.798
15298WAT     H146136   5.366   7.874   4.787
15298WAT     H246137   5.510   7.951   4.789
15299WAT      O46138   7.676   6.626   2.698
15299WAT     H146139   7.662   6.724   2.681
15299WAT     H246140   7.768   6.612   2.734
15300WAT      O46141   8.950   0.127   9.488
15300WAT     H146142   8.894   0.087   9.561
15300WAT     H246143   8.889   0.168   9.419
15301WAT      O46144   3.925   2.277   7.823
15301WAT     H146145   3.897   2.240   7.735
15301WAT     H246146   3.898   2.373   7.829
15302WAT      O46147   0.420   6.361   2.989
15302WAT     H146148   0.338   6.418   2.983
15302WAT     H246149   0.490   6.409   3.042
15303WAT      O46150   3.153   3.300   5.285
15303WAT     H146151   3.054   3.297   5.301
15303WAT     H246152   3.171   3.350   5.200
15304WAT      O46153   5.046   7.564   8.417
15304WAT     H146154   4.978   7.512   8.366
15304WAT     H246155   5.080   7.510   8.494
15305WAT      O46156   9.349   5.659   5.094
15305WAT     H146157   9.384   5.747   5.060
15305WAT     H246158   9.249   5.664   5.102
15306WAT      O46159   6.468   9.099   6.776
15306WAT     H146160   6.497   9.175   6.833
15306WAT     H246161   6.387   9.125   6.724
15307WAT      O46162   0.325   4.396   8.954
15307WAT     H146163   0.337   4.459   9.030
15307WAT     H246164   0.372   4.310   8.975
15308WAT      O46165   8.354   0.734   0.566
15308WAT     H146166   8.450   0.760   0.583
15308WAT     H246167   8.348   0.635   0.557
15309WAT      O46168   8.421   6.165   8.234
15309WAT     H146169   8.490   6.195   8.300
15309WAT     H246170   8.460   6.163   8.142
15310WAT      O46171   5.122   1.638   7.754
15310WAT     H146172   5.033   1.593   7.761
15310WAT     H246173   5.187   1.578   7.706
15311WAT      O46174   2.183   0.149   4.284
15311WAT     H146175   2.147   0.067   4.329
15311WAT     H246176   2.279   0.135   4.261
15312WAT      O46177   7.326   2.080   6.032
15312WAT     H146178   7.324   2.180   6.028
15312WAT     H246179   7.359   2.044   5.945
15313WAT      O46180   2.554   8.110   1.583
15313WAT     H146181   2.588   8.108   1.677
15313WAT     H246182   2.519   8.019   1.559
15314WAT      O46183   7.241   1.126   9.682
15314WAT     H146184   7.270   1.049   9.738
15314WAT     H246185   7.309   1.199   9.687
15315WAT      O46186   2.752   3.001   7.853
15315WAT     H146187   2.758   3.101   7.855
15315WAT     H246188   2.842   2.962   7.874
15316WAT      O46189   3.705   7.532   6.167
15316WAT     H146190   3.662   7.455   6.120
15316WAT     H246191   3.802   7.513   6.181
15317WAT      O46192   2.362   7.058   4.661
15317WAT     H146193   2.367   7.136   4.723
15317WAT     H246194   2.274   7.011   4.672
15318WAT      O46195   5.101   5.387   7.836
15318WAT     H146196   5.198   5.394   7.814
15318WAT     H246197   5.091   5.365   7.933
15319WAT      O46198   6.577   4.261   2.354
15319WAT     H146199   6.532   4.234   2.439
15319WAT     H246200   6.517   4.239   2.277
15320WAT      O46201   6.586   8.910   2.133
15320WAT     H146202   6.682   8.935   2.143
15320WAT     H246203   6.534   8.948   2.210
15321WAT      O46204   0.556   4.889   0.289
15321WAT     H146205   0.478   4.836   0.255
15321WAT     H246206   0.541   4.986   0.272
15322WAT      O46207   0.276   0.554   5.960
15322WAT     H146208   0.289   0.485   6.032
15322WAT     H246209   0.364   0.576   5.919
15323WAT      O46210   6.568   1.233   4.732
15323WAT     H146211   6.667   1.237   4.721
15323WAT     H246212   6.544   1.242   4.828
15324WAT      O46213   3.733   5.885   8.262
15324WAT     H146214   3.707   5.945   8.186
15324WAT     H246215   3.754   5.794   8.226
15325WAT      O46216   7.056   0.756   3.595
15325WAT     H146217   7.081   0.794   3.683
15325WAT     H246218   6.966   0.713   3.601
15326WAT      O46219   6.618   4.239   9.029
15326WAT     H146220   6.673   4.321   9.043
15326WAT     H246221   6.523   4.257   9.058
15327WAT      O46222   5.040   1.184   5.885
15327WAT     H146223   5.110   1.254   5.895
15327WAT     H246224   4.985   1.202   5.804
15328WAT      O46225   1.063   3.799   8.200
15328WAT     H146226   1.012   3.877   8.165
15328WAT     H246227   1.000   3.722   8.214
15329WAT      O46228   6.731   0.513   7.705
15329WAT     H146229   6.766   0.601   7.673
15329WAT     H246230   6.657   0.528   7.771
15330WAT      O46231   4.498   8.610   7.296
15330WAT     H146232   4.571   8.626   7.363
15330WAT     H246233   4.441   8.534   7.326
15331WAT      O46234   9.606   5.912   3.356
15331WAT     H146235   9.548   5.878   3.282
15331WAT     H246236   9.676   5.844   3.378
15332WAT      O46237   0.975   0.086   8.353
15332WAT     H146238   0.932   0.014   8.298
15332WAT     H246239   0.914   0.166   8.356
15333WAT      O46240   4.646   6.916   1.666
15333WAT     H146241   4.573   6.848   1.655
15333WAT     H246242   4.728   6.871   1.702
15334WAT      O46243   0.918   4.733   5.616
15334WAT     H146244   0.985   4.675   5.570
15334WAT     H246245   0.933   4.828   5.590
15335WAT      O46246   8.080   7.472   0.351
15335WAT     H146247   8.124   7.554   0.315
15335WAT     H246248   8.134   7.392   0.327
15336WAT      O46249   9.205   8.160   2.082
15336WAT     H146250   9.279   8.093   2.077
15336WAT     H246251   9.117   8.113   2.073
15337WAT      O46252   3.367   5.991   6.285
15337WAT     H146253   3.368   6.013   6.383
15337WAT     H246254   3.306   6.055   6.238
15338WAT      O46255   3.582   2.667   4.605
15338WAT     H146256   3.509   2.715   4.654
15338WAT     H246257   3.593   2.707   4.514
15339WAT      O46258   4.857   2.827   6.376
15339WAT     H146259   4.762   2.795   6.385
15339WAT     H246260   4.897   2.791   6.292
15340WAT      O46261   8.523   3.042   2.009
15340WAT     H146262   8.589   3.044   1.933
15340WAT     H246263   8.571   3.058   2.095
15341WAT      O46264   8.147   7.108   3.732
15341WAT     H146265   8.196   7.047   3.670
15341WAT     H246266   8.098   7.177   3.679
15342WAT      O46267   8.383   3.449   8.611
15342WAT     H146268   8.404   3.395   8.693
15342WAT     H246269   8.426   3.406   8.532
15343WAT      O46270   5.085   1.311   2.683
15343WAT     H146271   5.048   1.219   2.680
15343WAT     H246272   5.169   1.316   2.629
15344WAT      O46273   5.131   8.407   4.819
15344WAT     H146274   5.153   8.318   4.780
15344WAT     H246275   5.040   8.435   4.788
15345WAT      O46276   0.033   7.248   8.008
15345WAT     H146277   0.110   7.275   7.950
15345WAT     H246278   0.056   7.164   8.057
15346WAT      O46279   0.377   7.858   4.309
15346WAT     H146280   0.473   7.832   4.303
15346WAT     H246281   0.324   7.783   4.347
15347WAT      O46282   2.617   2.796   9.683
15347WAT     H146283   2.641   2.790   9.587
15347WAT     H246284   2.543   2.731   9.703
15348WAT      O46285   0.769   8.647   1.404
15348WAT     H146286   0.831   8.726   1.397
15348WAT     H246287   0.782   8.602   1.493
15349WAT      O46288   1.990   0.791   3.831
15349WAT     H146289   1.922   0.859   3.803
15349WAT     H246290   2.066   0.792   3.766
15350WAT      O46291   9.077   6.117   5.292
15350WAT     H146292   9.089   6.180   5.369
15350WAT     H246293   9.052   6.169   5.211
15351WAT      O46294   0.102   3.715   1.218
15351WAT     H146295   0.198   3.702   1.242
15351WAT     H246296   0.060   3.627   1.194
15352WAT      O46297   8.072   3.590   1.713
15352WAT     H146298   8.136   3.513   1.711
15352WAT     H246299   8.015   3.588   1.631
15353WAT      O46300   6.763   7.610   0.162
15353WAT     H146301   6.790   7.534   0.221
15353WAT     H246302   6.772   7.696   0.213
15354WAT      O46303   4.961   5.449   0.280
15354WAT     H146304   4.884   5.443   0.344
15354WAT     H246305   5.040   5.399   0.318
15355WAT      O46306   7.609   4.642   6.473
15355WAT     H146307   7.672   4.710   6.509
15355WAT     H246308   7.647   4.601   6.390
15356WAT      O46309   4.618   3.448   7.363
15356WAT     H146310   4.689   3.382   7.385
15356WAT     H246311   4.557   3.459   7.442
15357WAT      O46312   3.473   4.233   8.731
15357WAT     H146313   3.551   4.210   8.674
15357WAT     H246314   3.429   4.149   8.765
15358WAT      O46315   7.956   1.630   5.711
15358WAT     H146316   7.992   1.537   5.721
15358WAT     H246317   7.856   1.627   5.713
15359WAT      O46318   5.294   1.904   0.585
15359WAT     H146319   5.389   1.892   0.613
15359WAT     H246320   5.247   1.816   0.589
15360WAT      O46321   5.943   7.046   9.398
15360WAT     H146322   6.015   6.995   9.352
15360WAT     H246323   5.871   7.069   9.333
15361WAT      O46324   2.076   0.379   4.388
15361WAT     H146325   2.102   0.294   4.342
15361WAT     H246326   2.102   0.374   4.485
15362WAT      O46327   8.986   6.547   4.187
15362WAT     H146328   9.083   6.529   4.202
15362WAT     H246329   8.959   6.513   4.097
15363WAT      O46330   4.967   4.065   4.815
15363WAT     H146331   5.005   4.152   4.847
15363WAT     H246332   4.954   4.067   4.716
15364WAT      O46333   1.246   3.950   9.450
15364WAT     H146334   1.308   4.023   9.422
15364WAT     H246335   1.268   3.866   9.400
15365WAT      O46336   9.053   3.826   8.605
15365WAT     H146337   9.053   3.793   8.511
15365WAT     H246338   8.993   3.905   8.613
15366WAT      O46339   3.628   3.845   5.299
15366WAT     H146340   3.677   3.827   5.384
15366WAT     H246341   3.567   3.768   5.278
15367WAT      O46342   4.855   8.127   5.823
15367WAT     H146343   4.855   8.038   5.778
15367WAT     H246344   4.761   8.162   5.827
15368WAT      O46345   1.742   3.591   2.244
15368WAT     H146346   1.667   3.629   2.189
15368WAT     H246347   1.731   3.492   2.249
15369WAT      O46348   4.384   3.253   7.764
15369WAT     H146349   4.443   3.312   7.708
15369WAT     H246350   4.334   3.190   7.705
15370WAT      O46351   0.393   0.141   3.641
15370WAT     H146352   0.375   0.057   3.590
15370WAT     H246353   0.367   0.220   3.585
15371WAT      O46354   7.328   9.262   7.406
15371WAT     H146355   7.374   9.351   7.408
15371WAT     H246356   7.304   9.239   7.312
15372WAT      O46357   2.170   6.644   6.319
15372WAT     H146358   2.083   6.625   6.273
15372WAT     H246359   2.157   6.715   6.388
15373WAT      O46360   0.062   2.320   5.116
15373WAT     H146361   0.157   2.308   5.147
15373WAT     H246362   0.002   2.261   5.170
15374WAT      O46363   8.962   1.757   6.755
15374WAT     H146364   9.021   1.830   6.721
15374WAT     H246365   9.017   1.683   6.794
15375WAT      O46366   7.702   2.366   1.316
15375WAT     H146367   7.627   2.324   1.368
15375WAT     H246368   7.671   2.451   1.274
15376WAT      O46369   5.262   5.060   6.966
15376WAT     H146370   5.188   5.072   6.900
15376WAT     H246371   5.325   4.990   6.933
15377WAT      O46372   5.969   2.372   3.640
15377WAT     H146373   5.973   2.389   3.738
15377WAT     H246374   5.950   2.275   3.623
15378WAT      O46375   3.719   0.276   1.952
15378WAT     H146376   3.731   0.375   1.959
15378WAT     H246377   3.807   0.233   1.931
15379WAT      O46378   0.702   1.626   1.349
15379WAT     H146379   0.743   1.651   1.261
15379WAT     H246380   0.714   1.528   1.364
15380WAT      O46381   3.816   3.536   2.844
15380WAT     H146382   3.813   3.482   2.928
15380WAT     H246383   3.764   3.620   2.857
15381WAT      O46384   4.196   5.630   0.440
15381WAT     H146385   4.129   5.702   0.461
15381WAT     H246386   4.148   5.546   0.417
15382WAT      O46387   7.596   7.666   0.981
15382WAT     H146388   7.629   7.713   0.899
15382WAT     H246389   7.668   7.667   1.051
15383WAT      O46390   7.957   1.151   9.213
15383WAT     H146391   7.985   1.133   9.307
15383WAT     H246392   7.946   1.064   9.165
15384WAT      O46393   0.576   9.726   2.081
15384WAT     H146394   0.617   9.768   2.161
15384WAT     H246395   0.602   9.629   2.077
15385WAT      O46396   5.211   8.195   3.342
15385WAT     H146397   5.272   8.215   3.265
15385WAT     H246398   5.188   8.097   3.342
15386WAT      O46399   4.535   4.001   7.293
15386WAT     H146400   4.480   4.062   7.349
15386WAT     H246401   4.598   3.949   7.351
15387WAT      O46402   1.877   3.741   4.618
15387WAT     H146403   1.802   3.801   4.649
15387WAT     H246404   1.919   3.697   4.697
15388WAT      O46405   3.757   4.748   9.326
15388WAT     H146406   3.704   4.769   9.408
15388WAT     H246407   3.853   4.734   9.350
15389WAT      O46408   9.675   7.082   1.049
15389WAT     H146409   9.653   6.995   1.007
15389WAT     H246410   9.690   7.151   0.978
15390WAT      O46411   8.249   4.046   1.235
15390WAT     H146412   8.225   4.132   1.280
15390WAT     H246413   8.228   3.970   1.297
15391WAT      O46414   1.419   3.736   7.354
15391WAT     H146415   1.352   3.697   7.291
15391WAT     H246416   1.388   3.721   7.448
15392WAT      O46417   6.232   2.736   4.665
15392WAT     H146418   6.281   2.789   4.596
15392WAT     H246419   6.195   2.653   4.623
15393WAT      O46420   0.064   0.461   4.257
15393WAT     H146421   0.043   0.411   4.341
15393WAT     H246422   0.123   0.406   4.199
15394WAT      O46423   3.943   7.693   1.622
15394WAT     H146424   3.935   7.599   1.657
15394WAT     H246425   4.018   7.697   1.557
15395WAT      O46426   0.634   3.287   0.902
15395WAT     H146427   0.647   3.201   0.952
15395WAT     H246428   0.616   3.266   0.806
15396WAT      O46429   9.414   0.533   2.672
15396WAT     H146430   9.478   0.463   2.639
15396WAT     H246431   9.427   0.546   2.771
15397WAT      O46432   5.741   1.239   3.015
15397WAT     H146433   5.744   1.144   2.986
15397WAT     H246434   5.831   1.267   3.049
15398WAT      O46435   8.808   4.697   8.635
15398WAT     H146436   8.862   4.655   8.562
15398WAT     H246437   8.869   4.730   8.707
15399WAT      O46438   3.773   7.804   8.515
15399WAT     H146439   3.719   7.720   8.509
15399WAT     H246440   3.711   7.883   8.518
15400WAT      O46441   1.067   5.571   6.235
15400WAT     H146442   0.979   5.608   6.264
15400WAT     H246443   1.086   5.487   6.285
15401WAT      O46444   3.533   5.920   0.854
15401WAT     H146445   3.495   5.880   0.937
15401WAT     H246446   3.464   5.920   0.782
15402WAT      O46447   2.790   9.648   4.726
15402WAT     H146448   2.691   9.659   4.735
15402WAT     H246449   2.830   9.734   4.695
15403WAT      O46450   0.402   3.343   3.202
15403WAT     H146451   0.304   3.332   3.186
15403WAT     H246452   0.442   3.398   3.128
15404WAT      O46453   7.723   5.601   8.853
15404WAT     H146454   7.677   5.598   8.764
15404WAT     H246455   7.798   5.668   8.850
15405WAT      O46456   8.754   0.738   5.999
15405WAT     H146457   8.709   0.679   6.066
15405WAT     H246458   8.740   0.834   6.025
15406WAT      O46459   6.741   7.238   4.386
15406WAT     H146460   6.827   7.190   4.406
15406WAT     H246461   6.668   7.201   4.444
15407WAT      O46462   7.158   5.538   4.447
15407WAT     H146463   7.166   5.616   4.385
15407WAT     H246464   7.239   5.534   4.506
15408WAT      O46465   1.312   5.272   8.593
15408WAT     H146466   1.351   5.353   8.550
15408WAT     H246467   1.382   5.201   8.599
15409WAT      O46468   4.072   3.750   5.465
15409WAT     H146469   4.013   3.717   5.392
15409WAT     H246470   4.164   3.765   5.430
15410WAT      O46471   0.491   6.549   5.102
15410WAT     H146472   0.506   6.620   5.034
15410WAT     H246473   0.460   6.591   5.187
15411WAT      O46474   8.598   1.991   4.024
15411WAT     H146475   8.600   2.069   3.962
15411WAT     H246476   8.687   1.980   4.068
15412WAT      O46477   4.324   6.856   8.361
15412WAT     H146478   4.351   6.920   8.433
15412WAT     H246479   4.359   6.765   8.383
15413WAT      O46480   3.548   4.579   5.150
15413WAT     H146481   3.594   4.668   5.142
15413WAT     H246482   3.564   4.526   5.066
15414WAT      O46483   5.323   9.212   0.325
15414WAT     H146484   5.225   9.232   0.335
15414WAT     H246485   5.369   9.294   0.290
15415WAT      O46486   8.516   9.766   8.629
15415WAT     H146487   8.487   9.788   8.721
15415WAT     H246488   8.536   9.850   8.578
15416WAT      O46489   9.232   2.349   6.468
15416WAT     H146490   9.299   2.291   6.514
15416WAT     H246491   9.168   2.386   6.536
15417WAT      O46492   5.544   0.865   4.770
15417WAT     H146493   5.573   0.951   4.728
15417WAT     H246494   5.449   0.847   4.745
15418WAT      O46495   4.689   0.686   7.406
15418WAT     H146496   4.698   0.590   7.382
15418WAT     H246497   4.770   0.736   7.375
15419WAT      O46498   6.017   1.484   6.357
15419WAT     H146499   5.991   1.389   6.345
15419WAT     H246500   6.100   1.503   6.305
15420WAT      O46501   6.984   1.309   8.864
15420WAT     H146502   7.046   1.387   8.860
15420WAT     H246503   6.989   1.267   8.954
15421WAT      O46504   8.852   3.918   0.077
15421WAT     H146505   8.852   4.017   0.065
15421WAT     H246506   8.942   3.889   0.111
15422WAT      O46507   0.855   4.621   0.748
15422WAT     H146508   0.943   4.592   0.710
15422WAT     H246509   0.845   4.720   0.737
15423WAT      O46510   9.269   8.666   1.249
15423WAT     H146511   9.180   8.628   1.223
15423WAT     H246512   9.291   8.743   1.189
15424WAT      O46513   9.820   0.350   3.965
15424WAT     H146514   9.762   0.350   4.046
15424WAT     H246515   9.831   0.256   3.931
15425WAT      O46516   7.588   3.424   4.622
15425WAT     H146517   7.620   3.470   4.539
15425WAT     H246518   7.665   3.376   4.665
15426WAT      O46519   3.500   5.433   4.279
15426WAT     H146520   3.471   5.491   4.355
15426WAT     H246521   3.435   5.441   4.204
15427WAT      O46522   7.696   8.089   7.031
15427WAT     H146523   7.775   8.028   7.024
15427WAT     H246524   7.621   8.054   6.975
15428WAT      O46525   3.125   4.647   3.016
15428WAT     H146526   3.225   4.636   3.019
15428WAT     H246527   3.090   4.612   2.929
15429WAT      O46528   6.547   1.533   2.005
15429WAT     H146529   6.577   1.625   2.028
15429WAT     H246530   6.571   1.511   1.911
15430WAT      O46531   1.420   3.208   6.223
15430WAT     H146532   1.459   3.118   6.244
15430WAT     H246533   1.326   3.196   6.190
15431WAT      O46534   5.732   9.027   8.655
15431WAT     H146535   5.696   8.995   8.567
15431WAT     H246536   5.655   9.050   8.715
15432WAT      O46537   7.765   0.888   0.716
15432WAT     H146538   7.697   0.848   0.654
15432WAT     H246539   7.839   0.823   0.730
15433WAT      O46540   5.149   1.110   6.486
15433WAT     H146541   5.118   1.126   6.393
15433WAT     H246542   5.070   1.091   6.545
15434WAT      O46543   3.714   6.428   4.785
15434WAT     H146544   3.761   6.410   4.699
15434WAT     H246545   3.768   6.391   4.861
15435WAT      O46546   8.590   6.143   0.799
15435WAT     H146547   8.678   6.190   0.797
15435WAT     H246548   8.550   6.143   0.707
15436WAT      O46549   4.391   9.829   1.511
15436WAT     H146550   4.364   9.774   1.591
15436WAT     H246551   4.458   9.778   1.457
15437WAT      O46552   2.284   7.769   8.599
15437WAT     H146553   2.188   7.741   8.594
15437WAT     H246554   2.342   7.689   8.589
15438WAT      O46555   0.464   5.514   7.197
15438WAT     H146556   0.505   5.539   7.284
15438WAT     H246557   0.535   5.507   7.127
15439WAT      O46558   3.337   3.594   6.262
15439WAT     H146559   3.271   3.542   6.208
15439WAT     H246560   3.288   3.643   6.335
15440WAT      O46561   2.366   6.150   6.747
15440WAT     H146562   2.451   6.167   6.796
15440WAT     H246563   2.289   6.185   6.802
15441WAT      O46564   3.676   3.692   3.211
15441WAT     H146565   3.629   3.781   3.212
15441WAT     H246566   3.622   3.627   3.158
15442WAT      O46567   7.491   9.383   0.128
15442WAT     H146568   7.508   9.477   0.098
15442WAT     H246569   7.452   9.384   0.221
15443WAT      O46570   9.772   8.999   0.395
15443WAT     H146571   9.821   9.011   0.309
15443WAT     H246572   9.751   8.902   0.408
15444WAT      O46573   4.509   5.178   9.230
15444WAT     H146574   4.525   5.099   9.171
15444WAT     H246575   4.415   5.177   9.262
15445WAT      O46576   5.304   6.902   2.955
15445WAT     H146577   5.376   6.833   2.965
15445WAT     H246578   5.232   6.885   3.022
15446WAT      O46579   4.924   6.470   3.663
15446WAT     H146580   4.921   6.405   3.587
15446WAT     H246581   4.841   6.461   3.718
15447WAT      O46582   6.362   4.080   0.880
15447WAT     H146583   6.345   4.137   0.960
15447WAT     H246584   6.277   4.035   0.853
15448WAT      O46585   5.319   1.116   9.165
15448WAT     H146586   5.272   1.167   9.236
15448WAT     H246587   5.253   1.067   9.109
15449WAT      O46588   4.812   7.737   3.494
15449WAT     H146589   4.801   7.655   3.437
15449WAT     H246590   4.840   7.710   3.586
15450WAT      O46591   2.080   7.868   7.647
15450WAT     H146592   2.038   7.937   7.706
15450WAT     H246593   2.171   7.845   7.683
15451WAT      O46594   6.228   5.223   2.215
15451WAT     H146595   6.318   5.189   2.243
15451WAT     H246596   6.239   5.305   2.160
15452WAT      O46597   6.288   3.119   0.206
15452WAT     H146598   6.349   3.093   0.131
15452WAT     H246599   6.199   3.077   0.192
15453WAT      O46600   1.467   3.623   1.378
15453WAT     H146601   1.416   3.622   1.292
15453WAT     H246602   1.537   3.551   1.376
15454WAT      O46603   2.572   4.131   7.732
15454WAT     H146604   2.492   4.130   7.672
15454WAT     H246605   2.555   4.073   7.812
15455WAT      O46606   7.737   2.142   4.258
15455WAT     H146607   7.776   2.232   4.239
15455WAT     H246608   7.744   2.123   4.356
15456WAT      O46609   6.961   0.780   5.400
15456WAT     H146610   6.960   0.785   5.300
15456WAT     H246611   6.883   0.830   5.437
15457WAT      O46612   5.199   0.407   2.773
15457WAT     H146613   5.109   0.433   2.807
15457WAT     H246614   5.190   0.335   2.704
15458WAT      O46615   1.109   7.887   3.360
15458WAT     H146616   1.135   7.979   3.331
15458WAT     H246617   1.109   7.882   3.460
15459WAT      O46618   8.466   2.639   4.938
15459WAT     H146619   8.536   2.568   4.943
15459WAT     H246620   8.406   2.632   5.018
15460WAT      O46621   4.630   6.941   6.261
15460WAT     H146622   4.626   6.938   6.360
15460WAT     H246623   4.553   6.994   6.226
15461WAT      O46624   5.864   8.620   1.894
15461WAT     H146625   5.833   8.631   1.800
15461WAT     H246626   5.817   8.685   1.953
15462WAT      O46627   8.268   4.783   6.185
15462WAT     H146628   8.273   4.725   6.267
15462WAT     H246629   8.288   4.878   6.211
15463WAT      O46630   0.403   7.789   9.183
15463WAT     H146631   0.329   7.749   9.128
15463WAT     H246632   0.491   7.760   9.146
15464WAT      O46633   4.660   0.154   0.618
15464WAT     H146634   4.700   0.164   0.527
15464WAT     H246635   4.703   0.078   0.665
15465WAT      O46636   8.698   4.311   9.278
15465WAT     H146637   8.604   4.341   9.261
15465WAT     H246638   8.718   4.231   9.221
15466WAT      O46639   2.117   4.998   9.069
15466WAT     H146640   2.135   4.904   9.099
15466WAT     H246641   2.161   5.061   9.133
15467WAT      O46642   6.852   5.469   5.062
15467WAT     H146643   6.759   5.439   5.084
15467WAT     H246644   6.892   5.513   5.142
15468WAT      O46645   0.024   3.865   1.860
15468WAT     H146646   0.025   3.965   1.858
15468WAT     H246647   0.076   3.833   1.939
15469WAT      O46648   3.216   4.125   5.824
15469WAT     H146649   3.186   4.209   5.868
15469WAT     H246650   3.142   4.058   5.825
15470WAT      O46651   8.992   0.748   5.895
15470WAT     H146652   8.910   0.771   5.948
15470WAT     H246653   8.971   0.750   5.798
15471WAT      O46654   3.964   4.243   1.143
15471WAT     H146655   3.918   4.188   1.213
15471WAT     H246656   3.896   4.276   1.078
15472WAT      O46657   7.545   6.102   2.030
15472WAT     H146658   7.609   6.179   2.029
15472WAT     H246659   7.507   6.090   1.938
15473WAT      O46660   6.595   4.911   5.653
15473WAT     H146661   6.584   4.872   5.745
15473WAT     H246662   6.691   4.906   5.626
15474WAT      O46663   4.098   1.505   8.692
15474WAT     H146664   4.118   1.504   8.790
15474WAT     H246665   4.141   1.426   8.649
15475WAT      O46666   2.587   9.012   2.957
15475WAT     H146667   2.661   8.979   2.899
15475WAT     H246668   2.559   8.939   3.019
15476WAT      O46669   2.520   6.259   1.465
15476WAT     H146670   2.438   6.309   1.493
15476WAT     H246671   2.572   6.314   1.399
15477WAT      O46672   2.336   8.801   6.163
15477WAT     H146673   2.361   8.858   6.084
15477WAT     H246674   2.363   8.847   6.247
15478WAT      O46675   3.000   0.500   4.915
15478WAT     H146676   3.033   0.536   4.827
15478WAT     H246677   3.049   0.545   4.990
15479WAT      O46678   1.885   5.138   8.989
15479WAT     H146679   1.895   5.236   9.008
15479WAT     H246680   1.969   5.090   9.014
15480WAT      O46681   6.502   9.141   8.012
15480WAT     H146682   6.435   9.115   7.942
15480WAT     H246683   6.512   9.241   8.013
15481WAT      O46684   3.148   8.360   8.527
15481WAT     H146685   3.140   8.385   8.624
15481WAT     H246686   3.073   8.401   8.476
15482WAT      O46687   8.239   2.001   2.963
15482WAT     H146688   8.326   2.027   2.922
15482WAT     H246689   8.228   1.902   2.958
15483WAT      O46690   0.398   4.218   4.363
15483WAT     H146691   0.392   4.211   4.263
15483WAT     H246692   0.312   4.251   4.399
15484WAT      O46693   0.664   5.350   4.347
15484WAT     H146694   0.707   5.311   4.429
15484WAT     H246695   0.631   5.442   4.368
15485WAT      O46696   3.255   4.683   9.322
15485WAT     H146697   3.232   4.750   9.393
15485WAT     H246698   3.316   4.614   9.361
15486WAT      O46699   4.009   9.351   9.020
15486WAT     H146700   4.039   9.348   8.925
15486WAT     H246701   3.909   9.361   9.024
15487WAT      O46702   9.796   0.885   2.079
15487WAT     H146703   9.716   0.829   2.101
15487WAT     H246704   9.801   0.962   2.143
15488WAT      O46705   6.041   6.483   6.223
15488WAT     H146706   6.137   6.507   6.207
15488WAT     H246707   6.037   6.402   6.282
15489WAT      O46708   8.349   0.263   3.949
15489WAT     H146709   8.266   0.315   3.966
15489WAT     H246710   8.357   0.189   4.016
15490WAT      O46711   6.413   0.533   3.247
15490WAT     H146712   6.337   0.592   3.274
15490WAT     H246713   6.381   0.439   3.234
15491WAT      O46714   6.285   7.715   3.359
15491WAT     H146715   6.353   7.782   3.388
15491WAT     H246716   6.282   7.640   3.425
15492WAT      O46717   0.246   1.785   3.727
15492WAT     H146718   0.205   1.795   3.817
15492WAT     H246719   0.180   1.812   3.657
15493WAT      O46720   4.831   8.054   2.446
15493WAT     H146721   4.862   8.148   2.434
15493WAT     H246722   4.903   7.990   2.418
15494WAT      O46723   5.911   0.635   6.776
15494WAT     H146724   5.991   0.615   6.720
15494WAT     H246725   5.843   0.562   6.763
15495WAT      O46726   3.245   6.939   9.595
15495WAT     H146727   3.308   7.015   9.609
15495WAT     H246728   3.165   6.951   9.655
15496WAT      O46729   4.232   3.807   5.871
15496WAT     H146730   4.258   3.813   5.774
15496WAT     H246731   4.133   3.797   5.879
15497WAT      O46732   8.427   8.891   2.179
15497WAT     H146733   8.457   8.952   2.106
15497WAT     H246734   8.506   8.841   2.215
15498WAT      O46735   1.257   7.476   3.374
15498WAT     H146736   1.272   7.533   3.455
15498WAT     H246737   1.256   7.535   3.293
15499WAT      O46738   8.468   6.183   6.792
15499WAT     H146739   8.546   6.189   6.854
15499WAT     H246740   8.485   6.238   6.711
15500WAT      O46741   0.687   2.743   3.505
15500WAT     H146742   0.662   2.649   3.480
15500WAT     H246743   0.742   2.783   3.431
15501WAT      O46744   5.492   9.172   7.575
15501WAT     H146745   5.500   9.128   7.665
15501WAT     H246746   5.477   9.102   7.505
15502WAT      O46747   2.114   8.128   1.877
15502WAT     H146748   2.160   8.041   1.865
15502WAT     H246749   2.177   8.194   1.919
15503WAT      O46750   0.959   9.838   4.947
15503WAT     H146751   0.896   9.835   5.025
15503WAT     H246752   1.035   9.774   4.963
15504WAT      O46753   4.588   2.687   8.954
15504WAT     H146754   4.575   2.775   8.998
15504WAT     H246755   4.507   2.630   8.969
15505WAT      O46756   9.550   5.575   6.976
15505WAT     H146757   9.500   5.515   6.914
15505WAT     H246758   9.512   5.567   7.068
15506WAT      O46759   6.755   5.456   2.316
15506WAT     H146760   6.823   5.530   2.314
15506WAT     H246761   6.682   5.481   2.379
15507WAT      O46762   0.502   6.445   0.146
15507WAT     H146763   0.527   6.449   0.049
15507WAT     H246764   0.405   6.464   0.156
15508WAT      O46765   6.469   5.703   3.871
15508WAT     H146766   6.513   5.756   3.944
15508WAT     H246767   6.390   5.654   3.909
15509WAT      O46768   8.552   0.141   1.760
15509WAT     H146769   8.649   0.122   1.772
15509WAT     H246770   8.537   0.240   1.760
15510WAT      O46771   9.448   0.698   8.844
15510WAT     H146772   9.426   0.654   8.931
15510WAT     H246773   9.534   0.662   8.809
15511WAT      O46774   0.690   4.182   0.884
15511WAT     H146775   0.661   4.198   0.978
15511WAT     H246776   0.640   4.244   0.823
15512WAT      O46777   0.649   8.977   4.209
15512WAT     H146778   0.664   8.891   4.257
15512WAT     H246779   0.738   9.020   4.190
15513WAT      O46780   5.017   0.358   7.032
15513WAT     H146781   5.077   0.438   7.035
15513WAT     H246782   4.981   0.340   7.124
15514WAT      O46783   4.452   6.575   3.877
15514WAT     H146784   4.382   6.611   3.938
15514WAT     H246785   4.519   6.647   3.857
15515WAT      O46786   5.986   6.000   4.026
15515WAT     H146787   5.994   5.991   3.927
15515WAT     H246788   6.035   5.926   4.071
15516WAT      O46789   0.012   6.164   1.429
15516WAT     H146790  -0.082   6.195   1.439
15516WAT     H246791   0.013   6.071   1.390
15517WAT      O46792   6.746   9.579   4.542
15517WAT     H146793   6.717   9.551   4.451
15517WAT     H246794   6.682   9.542   4.610
15518WAT      O46795   1.837   5.191   1.093
15518WAT     H146796   1.746   5.154   1.073
15518WAT     H246797   1.901   5.116   1.105
15519WAT      O46798   4.841   4.831   6.748
15519WAT     H146799   4.861   4.777   6.666
15519WAT     H246800   4.812   4.923   6.721
15520WAT      O46801   1.379   3.244   8.617
15520WAT     H146802   1.454   3.295   8.574
15520WAT     H246803   1.416   3.168   8.670
15521WAT      O46804   6.888   7.753   1.353
15521WAT     H146805   6.963   7.692   1.381
15521WAT     H246806   6.908   7.791   1.263
15522WAT      O46807   1.865   7.933   2.900
15522WAT     H146808   1.962   7.954   2.908
15522WAT     H246809   1.842   7.857   2.960
15523WAT      O46810   1.445   7.181   1.515
15523WAT     H146811   1.526   7.227   1.478
15523WAT     H246812   1.406   7.236   1.589
15524WAT      O46813   6.572   2.343   4.026
15524WAT     H146814   6.638   2.289   3.974
15524WAT     H246815   6.517   2.281   4.084
15525WAT      O46816   7.151   6.075   2.032
15525WAT     H146817   7.060   6.108   2.056
15525WAT     H246818   7.220   6.127   2.083
15526WAT      O46819   6.574   8.955   3.371
15526WAT     H146820   6.587   8.886   3.443
15526WAT     H246821   6.640   9.029   3.384
15527WAT      O46822   5.795   1.906   7.249
15527WAT     H146823   5.813   1.852   7.167
15527WAT     H246824   5.753   1.847   7.319
15528WAT      O46825   7.502   1.775   8.428
15528WAT     H146826   7.453   1.814   8.350
15528WAT     H246827   7.562   1.702   8.397
15529WAT      O46828   9.439   2.277   3.218
15529WAT     H146829   9.384   2.354   3.248
15529WAT     H246830   9.414   2.251   3.125
15530WAT      O46831   3.065   7.649   5.731
15530WAT     H146832   3.165   7.649   5.740
15530WAT     H246833   3.025   7.690   5.813
15531WAT      O46834   1.121   9.062   5.952
15531WAT     H146835   1.167   8.984   5.910
15531WAT     H246836   1.051   9.097   5.890
15532WAT      O46837   5.537   6.608   2.567
15532WAT     H146838   5.495   6.696   2.589
15532WAT     H246839   5.502   6.574   2.480
15533WAT      O46840   2.166   5.955   6.842
15533WAT     H146841   2.183   6.047   6.876
15533WAT     H246842   2.252   5.903   6.844
15534WAT      O46843   7.035   4.699   1.017
15534WAT     H146844   7.128   4.668   1.034
15534WAT     H246845   6.978   4.680   1.096
15535WAT      O46846   9.663   9.378   4.414
15535WAT     H146847   9.657   9.408   4.509
15535WAT     H246848   9.758   9.386   4.382
15536WAT      O46849   3.586   3.072   4.637
15536WAT     H146850   3.564   3.168   4.651
15536WAT     H246851   3.634   3.061   4.550
15537WAT      O46852   2.509   4.801   9.201
15537WAT     H146853   2.586   4.773   9.259
15537WAT     H246854   2.429   4.820   9.259
15538WAT      O46855   3.861   8.653   6.238
15538WAT     H146856   3.805   8.602   6.303
15538WAT     H246857   3.901   8.733   6.283
15539WAT      O46858   2.755   2.386   9.622
15539WAT     H146859   2.690   2.320   9.659
15539WAT     H246860   2.706   2.466   9.589
15540WAT      O46861   0.826   5.920   7.644
15540WAT     H146862   0.811   5.851   7.572
15540WAT     H246863   0.854   5.875   7.728
15541WAT      O46864   0.179   0.556   3.079
15541WAT     H146865   0.277   0.540   3.077
15541WAT     H246866   0.141   0.523   3.166
15542WAT      O46867   9.318   1.039   4.044
15542WAT     H146868   9.279   1.128   4.068
15542WAT     H246869   9.414   1.036   4.073
15543WAT      O46870   5.247   6.584   9.763
15543WAT     H146871   5.255   6.624   9.672
15543WAT     H246872   5.328   6.606   9.817
15544WAT      O46873   0.479   5.558   2.476
15544WAT     H146874   0.491   5.621   2.553
15544WAT     H246875   0.495   5.607   2.390
15545WAT      O46876   1.686   0.900   6.521
15545WAT     H146877   1.726   0.992   6.514
15545WAT     H246878   1.696   0.867   6.615
15546WAT      O46879   4.446   6.391   8.002
15546WAT     H146880   4.513   6.415   7.932
15546WAT     H246881   4.355   6.383   7.961
15547WAT      O46882   7.874   9.328   1.845
15547WAT     H146883   7.823   9.242   1.847
15547WAT     H246884   7.954   9.319   1.787
15548WAT      O46885   6.735   9.532   4.270
15548WAT     H146886   6.726   9.461   4.200
15548WAT     H246887   6.817   9.587   4.253
15549WAT      O46888   3.879   1.975   6.521
15549WAT     H146889   3.856   2.009   6.612
15549WAT     H246890   3.905   1.879   6.528
15550WAT      O46891   7.469   3.409   7.855
15550WAT     H146892   7.463   3.396   7.954
15550WAT     H246893   7.378   3.403   7.815
15551WAT      O46894   3.710   2.191   4.977
15551WAT     H146895   3.781   2.132   4.939
15551WAT     H246896   3.753   2.267   5.026
15552WAT      O46897   8.643   9.389   9.397
15552WAT     H146898   8.604   9.327   9.466
15552WAT     H246899   8.570   9.447   9.360
15553WAT      O46900   2.180   8.921   5.335
15553WAT     H146901   2.169   8.979   5.254
15553WAT     H246902   2.108   8.852   5.336
15554WAT      O46903   6.164   9.156   3.250
15554WAT     H146904   6.209   9.080   3.298
15554WAT     H246905   6.178   9.241   3.301
15555WAT      O46906   6.526   6.020   3.604
15555WAT     H146907   6.513   6.106   3.652
15555WAT     H246908   6.452   5.957   3.628
15556WAT      O46909   1.524   1.548   3.679
15556WAT     H146910   1.455   1.618   3.657
15556WAT     H246911   1.481   1.474   3.731
15557WAT      O46912   8.018   3.224   8.450
15557WAT     H146913   8.055   3.295   8.509
15557WAT     H246914   7.919   3.216   8.465
15558WAT      O46915   8.558   2.038   8.345
15558WAT     H146916   8.583   1.965   8.408
15558WAT     H246917   8.489   2.096   8.387
15559WAT      O46918   0.882   8.651   3.721
15559WAT     H146919   0.978   8.628   3.739
15559WAT     H246920   0.828   8.567   3.719
15560WAT      O46921   1.629   2.680   6.666
15560WAT     H146922   1.570   2.602   6.684
15560WAT     H246923   1.641   2.692   6.568
15561WAT      O46924   9.392   7.144   4.358
15561WAT     H146925   9.451   7.081   4.308
15561WAT     H246926   9.368   7.103   4.446
15562WAT      O46927   4.074   2.900   9.865
15562WAT     H146928   4.082   2.895   9.965
15562WAT     H246929   4.047   2.810   9.829
15563WAT      O46930   9.822   6.052   3.848
15563WAT     H146931   9.806   6.112   3.926
15563WAT     H246932   9.892   5.985   3.871
15564WAT      O46933   2.553   9.378   5.238
15564WAT     H146934   2.530   9.378   5.335
15564WAT     H246935   2.469   9.370   5.183
15565WAT      O46936   0.606   0.836   8.601
15565WAT     H146937   0.636   0.855   8.695
15565WAT     H246938   0.647   0.751   8.570
15566WAT      O46939   9.505   2.816   9.454
15566WAT     H146940   9.505   2.719   9.479
15566WAT     H246941   9.440   2.866   9.510
15567WAT      O46942   0.465   4.928   3.382
15567WAT     H146943   0.460   4.842   3.433
15567WAT     H246944   0.463   4.908   3.284
15568WAT      O46945   8.869   9.279   7.308
15568WAT     H146946   8.903   9.300   7.216
15568WAT     H246947   8.931   9.214   7.352
15569WAT      O46948   9.224   9.446   7.145
15569WAT     H146949   9.291   9.503   7.099
15569WAT     H246950   9.134   9.460   7.103
15570WAT      O46951   9.826   1.824   5.066
15570WAT     H146952   9.745   1.827   5.007
15570WAT     H246953   9.906   1.801   5.012
15571WAT      O46954   3.083   2.692   2.555
15571WAT     H146955   2.995   2.657   2.524
15571WAT     H246956   3.076   2.791   2.569
15572WAT      O46957   3.588   0.128   8.095
15572WAT     H146958   3.665   0.170   8.141
15572WAT     H246959   3.593   0.147   7.997
15573WAT      O46960   4.435   9.486   6.337
15573WAT     H146961   4.459   9.416   6.405
15573WAT     H246962   4.516   9.507   6.282
15574WAT      O46963   4.729   0.830   5.912
15574WAT     H146964   4.747   0.766   5.837
15574WAT     H246965   4.748   0.785   5.999
15575WAT      O46966   1.774   2.742   7.900
15575WAT     H146967   1.764   2.661   7.843
15575WAT     H246968   1.759   2.718   7.996
15576WAT      O46969   7.690   6.331   9.889
15576WAT     H146970   7.622   6.313   9.818
15576WAT     H246971   7.660   6.291   9.975
15577WAT      O46972   5.757   9.312   8.566
15577WAT     H146973   5.657   9.300   8.566
15577WAT     H246974   5.801   9.222   8.573
15578WAT      O46975   8.222   6.552   3.065
15578WAT     H146976   8.206   6.515   3.156
15578WAT     H246977   8.161   6.630   3.049
15579WAT      O46978   5.564   0.601   6.070
15579WAT     H146979   5.655   0.633   6.045
15579WAT     H246980   5.503   0.680   6.082
15580WAT      O46981   2.780   1.603   1.047
15580WAT     H146982   2.744   1.570   1.134
15580WAT     H246983   2.777   1.529   0.979
15581WAT      O46984   9.826   1.474   9.885
15581WAT     H146985   9.829   1.466   9.785
15581WAT     H246986   9.903   1.424   9.924
15582WAT      O46987   5.253   1.237   5.213
15582WAT     H146988   5.231   1.334   5.202
15582WAT     H246989   5.185   1.182   5.165
15583WAT      O46990   5.047   7.821   6.331
15583WAT     H146991   5.096   7.735   6.344
15583WAT     H246992   5.111   7.898   6.338
15584WAT      O46993   2.922   6.659   3.063
15584WAT     H146994   2.954   6.752   3.042
15584WAT     H246995   2.964   6.627   3.147
15585WAT      O46996   0.509   5.752   5.215
15585WAT     H146997   0.423   5.797   5.243
15585WAT     H246998   0.564   5.734   5.296
15586WAT      O46999   7.196   5.791   8.735
15586WAT     H147000   7.150   5.808   8.648
15586WAT     H247001   7.260   5.865   8.754
15587WAT      O47002   8.563   0.290   2.276
15587WAT     H147003   8.573   0.326   2.369
15587WAT     H247004   8.634   0.328   2.217
15588WAT      O47005   9.328   1.250   4.994
15588WAT     H147006   9.290   1.302   4.918
15588WAT     H247007   9.362   1.162   4.961
15589WAT      O47008   6.786   2.199   3.496
15589WAT     H147009   6.876   2.239   3.512
15589WAT     H247010   6.788   2.103   3.522
15590WAT      O47011   4.478   0.607   1.229
15590WAT     H147012   4.474   0.701   1.194
15590WAT     H247013   4.523   0.549   1.161
15591WAT      O47014   3.552   2.697   5.682
15591WAT     H147015   3.595   2.786   5.671
15591WAT     H247016   3.482   2.701   5.752
15592WAT      O47017   9.336   4.371   0.426
15592WAT     H147018   9.314   4.449   0.484
15592WAT     H247019   9.426   4.335   0.449
15593WAT      O47020   0.874   6.300   0.858
15593WAT     H147021   0.862   6.386   0.907
15593WAT     H247022   0.785   6.264   0.831
15594WAT      O47023   8.676   3.640   8.864
15594WAT     H147024   8.755   3.668   8.919
15594WAT     H247025   8.641   3.553   8.899
15595WAT      O47026   6.416   8.596   7.627
15595WAT     H147027   6.370   8.513   7.656
15595WAT     H247028   6.509   8.574   7.596
15596WAT      O47029   2.575   0.786   3.148
15596WAT     H147030   2.494   0.844   3.134
15596WAT     H247031   2.581   0.719   3.074
15597WAT      O47032   6.284   1.672   3.715
15597WAT     H147033   6.312   1.725   3.795
15597WAT     H247034   6.304   1.575   3.731
15598WAT      O47035   5.864   3.693   8.315
15598WAT     H147036   5.847   3.595   8.308
15598WAT     H247037   5.957   3.708   8.349
15599WAT      O47038   3.666   3.039   4.371
15599WAT     H147039   3.684   3.086   4.285
15599WAT     H247040   3.753   3.014   4.414
15600WAT      O47041   3.901   2.739   6.409
15600WAT     H147042   3.895   2.765   6.505
15600WAT     H247043   3.884   2.819   6.351
15601WAT      O47044   1.003   0.935   4.591
15601WAT     H147045   1.080   0.898   4.539
15601WAT     H247046   0.970   0.865   4.655
15602WAT      O47047   2.227   5.223   5.239
15602WAT     H147048   2.308   5.259   5.287
15602WAT     H247049   2.225   5.260   5.146
15603WAT      O47050   7.598   4.182   8.841
15603WAT     H147051   7.635   4.223   8.925
15603WAT     H247052   7.498   4.189   8.842
15604WAT      O47053   1.319   3.469   2.602
15604WAT     H147054   1.286   3.477   2.509
15604WAT     H247055   1.386   3.394   2.608
15605WAT      O47056   3.510   5.107   2.884
15605WAT     H147057   3.537   5.146   2.971
15605WAT     H247058   3.467   5.018   2.899
15606WAT      O47059   4.715   9.587   3.616
15606WAT     H147060   4.724   9.577   3.715
15606WAT     H247061   4.740   9.680   3.589
15607WAT      O47062   6.959   4.190   0.116
15607WAT     H147063   6.924   4.284   0.118
15607WAT     H247064   6.953   4.155   0.023
15608WAT      O47065   3.139   6.921   1.155
15608WAT     H147066   3.062   6.970   1.115
15608WAT     H247067   3.193   6.879   1.083
15609WAT      O47068   7.936   9.713   8.381
15609WAT     H147069   7.871   9.649   8.341
15609WAT     H247070   8.029   9.688   8.355
15610WAT      O47071   7.873   7.269   1.151
15610WAT     H147072   7.923   7.205   1.210
15610WAT     H247073   7.881   7.361   1.188
15611WAT      O47074   0.711   0.985   9.189
15611WAT     H147075   0.689   0.983   9.286
15611WAT     H247076   0.769   0.907   9.166
15612WAT      O47077   5.137   5.209   8.739
15612WAT     H147078   5.046   5.189   8.775
15612WAT     H247079   5.206   5.187   8.807
15613WAT      O47080   8.315   2.858   8.144
15613WAT     H147081   8.377   2.896   8.075
15613WAT     H247082   8.315   2.759   8.137
15614WAT      O47083   1.823   1.526   0.992
15614WAT     H147084   1.768   1.473   0.928
15614WAT     H247085   1.916   1.536   0.957
15615WAT      O47086   7.381   3.281   0.775
15615WAT     H147087   7.367   3.366   0.826
15615WAT     H247088   7.395   3.206   0.839
15616WAT      O47089   3.302   5.088   6.445
15616WAT     H147090   3.366   5.164   6.447
15616WAT     H247091   3.241   5.093   6.524
15617WAT      O47092   2.964   8.777   9.388
15617WAT     H147093   3.006   8.838   9.455
15617WAT     H247094   3.012   8.690   9.388
15618WAT      O47095   9.567   5.038   3.343
15618WAT     H147096   9.480   5.031   3.393
15618WAT     H247097   9.638   4.989   3.393
15619WAT      O47098   1.925   3.778   5.809
15619WAT     H147099   2.011   3.826   5.794
15619WAT     H247100   1.904   3.776   5.907
15620WAT      O47101   2.735   5.126   5.703
15620WAT     H147102   2.685   5.211   5.687
15620WAT     H247103   2.768   5.089   5.615
15621WAT      O47104   1.699   5.577   1.661
15621WAT     H147105   1.651   5.517   1.597
15621WAT     H247106   1.655   5.666   1.663
15622WAT      O47107   1.809   8.112   9.786
15622WAT     H147108   1.850   8.163   9.709
15622WAT     H247109   1.873   8.109   9.862
15623WAT      O47110   0.080   4.673   4.052
15623WAT     H147111   0.117   4.766   4.052
15623WAT     H247112   0.020   4.661   4.131
15624WAT      O47113   9.848   7.892   9.106
15624WAT     H147114   9.765   7.932   9.147
15624WAT     H247115   9.923   7.897   9.172
15625WAT      O47116   4.564   0.462   0.471
15625WAT     H147117   4.624   0.484   0.548
15625WAT     H247118   4.590   0.516   0.391
15626WAT      O47119   0.231   6.802   5.199
15626WAT     H147120   0.150   6.822   5.254
15626WAT     H247121   0.272   6.716   5.230
15627WAT      O47122   4.889   3.170   5.776
15627WAT     H147123   4.910   3.253   5.725
15627WAT     H247124   4.904   3.090   5.717
15628WAT      O47125   3.428   7.561   4.831
15628WAT     H147126   3.415   7.574   4.733
15628WAT     H247127   3.419   7.464   4.853
15629WAT      O47128   0.878   8.847   6.270
15629WAT     H147129   0.904   8.762   6.223
15629WAT     H247130   0.907   8.841   6.366
15630WAT      O47131   6.183   0.268   3.500
15630WAT     H147132   6.084   0.280   3.503
15630WAT     H247133   6.228   0.357   3.506
15631WAT      O47134   8.446   2.187   6.536
15631WAT     H147135   8.378   2.191   6.463
15631WAT     H247136   8.411   2.130   6.611
15632WAT      O47137   6.678   8.523   2.836
15632WAT     H147138   6.714   8.510   2.744
15632WAT     H247139   6.583   8.493   2.840
15633WAT      O47140   8.364   6.727   1.005
15633WAT     H147141   8.433   6.760   1.070
15633WAT     H247142   8.287   6.688   1.055
15634WAT      O47143   4.081   9.479   6.934
15634WAT     H147144   4.021   9.485   6.854
15634WAT     H247145   4.031   9.510   7.015
15635WAT      O47146   2.472   7.235   6.194
15635WAT     H147147   2.416   7.153   6.204
15635WAT     H247148   2.468   7.267   6.099
15636WAT      O47149   1.425   8.654   2.699
15636WAT     H147150   1.458   8.559   2.703
15636WAT     H247151   1.357   8.668   2.771
15637WAT      O47152   5.586   2.038   1.195
15637WAT     H147153   5.613   2.026   1.100
15637WAT     H247154   5.648   2.103   1.240
15638WAT      O47155   9.458   7.905   1.755
15638WAT     H147156   9.459   7.858   1.844
15638WAT     H247157   9.534   7.871   1.699
15639WAT      O47158   7.268   7.787   0.997
15639WAT     H147159   7.331   7.850   0.952
15639WAT     H247160   7.318   7.707   1.029
15640WAT      O47161   1.196   2.049   5.321
15640WAT     H147162   1.266   1.978   5.314
15640WAT     H247163   1.203   2.094   5.410
15641WAT      O47164   5.049   4.569   3.556
15641WAT     H147165   4.950   4.560   3.569
15641WAT     H247166   5.066   4.609   3.466
15642WAT      O47167   2.192   2.278   6.107
15642WAT     H147168   2.156   2.278   6.013
15642WAT     H247169   2.165   2.194   6.153
15643WAT      O47170   5.810   7.363   9.138
15643WAT     H147171   5.843   7.432   9.073
15643WAT     H247172   5.729   7.398   9.185
15644WAT      O47173   2.456   4.773   5.842
15644WAT     H147174   2.388   4.833   5.884
15644WAT     H247175   2.548   4.810   5.858
15645WAT      O47176   8.521   7.827   3.799
15645WAT     H147177   8.521   7.907   3.739
15645WAT     H247178   8.430   7.816   3.840
15646WAT      O47179   4.415   8.683   4.864
15646WAT     H147180   4.390   8.741   4.787
15646WAT     H247181   4.392   8.730   4.950
15647WAT      O47182   5.066   7.790   1.373
15647WAT     H147183   5.002   7.766   1.447
15647WAT     H247184   5.080   7.889   1.373
15648WAT      O47185   7.591   5.874   4.413
15648WAT     H147186   7.597   5.938   4.336
15648WAT     H247187   7.535   5.914   4.485
15649WAT      O47188   5.339   1.991   2.713
15649WAT     H147189   5.425   1.993   2.765
15649WAT     H247190   5.310   1.896   2.700
15650WAT      O47191   0.030   1.305   8.328
15650WAT     H147192   0.004   1.394   8.290
15650WAT     H247193  -0.016   1.232   8.277
15651WAT      O47194   7.939   1.205   0.170
15651WAT     H147195   7.857   1.258   0.148
15651WAT     H247196   7.912   1.122   0.219
15652WAT      O47197   3.200   4.353   1.770
15652WAT     H147198   3.283   4.389   1.727
15652WAT     H247199   3.150   4.297   1.704
15653WAT      O47200   6.124   6.061   8.951
15653WAT     H147201   6.183   6.083   8.873
15653WAT     H247202   6.166   6.096   9.035
15654WAT      O47203   5.939   4.275   2.089
15654WAT     H147204   5.972   4.367   2.108
15654WAT     H247205   5.849   4.262   2.132
15655WAT      O47206   9.579   0.910   7.213
15655WAT     H147207   9.486   0.884   7.239
15655WAT     H247208   9.582   0.928   7.114
15656WAT      O47209   3.336   8.035   7.525
15656WAT     H147210   3.326   8.043   7.624
15656WAT     H247211   3.247   8.018   7.483
15657WAT      O47212   9.763   4.159   1.257
15657WAT     H147213   9.862   4.171   1.268
15657WAT     H247214   9.736   4.071   1.297
15658WAT      O47215   4.472   0.760   7.549
15658WAT     H147216   4.552   0.723   7.502
15658WAT     H247217   4.437   0.838   7.497
15659WAT      O47218   5.538   1.198   5.208
15659WAT     H147219   5.438   1.189   5.210
15659WAT     H247220   5.578   1.109   5.185
15660WAT      O47221   2.664   4.335   0.951
15660WAT     H147222   2.702   4.395   0.880
15660WAT     H247223   2.711   4.352   1.038
15661WAT      O47224   9.489   1.021   7.578
15661WAT     H147225   9.401   1.055   7.610
15661WAT     H247226   9.487   0.921   7.574
15662WAT      O47227   1.644   1.233   5.183
15662WAT     H147228   1.628   1.298   5.109
15662WAT     H247229   1.741   1.232   5.206
15663WAT      O47230   2.528   4.010   6.349
15663WAT     H147231   2.434   3.990   6.378
15663WAT     H247232   2.560   4.093   6.394
15664WAT      O47233   2.486   3.069   1.788
15664WAT     H147234   2.449   3.157   1.758
15664WAT     H247235   2.510   3.014   1.709
15665WAT      O47236   2.426   0.168   0.998
15665WAT     H147237   2.356   0.224   0.952
15665WAT     H247238   2.404   0.161   1.095
15666WAT      O47239   1.117   3.927   2.881
15666WAT     H147240   1.206   3.888   2.901
15666WAT     H247241   1.078   3.884   2.800
15667WAT      O47242   6.123   6.112   2.405
15667WAT     H147243   6.060   6.039   2.432
15667WAT     H247244   6.105   6.194   2.460
15668WAT      O47245   8.757   1.291   8.986
15668WAT     H147246   8.813   1.362   9.029
15668WAT     H247247   8.705   1.243   9.057
15669WAT      O47248   8.003   1.172   7.518
15669WAT     H147249   7.946   1.182   7.600
15669WAT     H247250   8.074   1.243   7.518
15670WAT      O47251   9.539   1.706   0.077
15670WAT     H147252   9.571   1.710  -0.017
15670WAT     H247253   9.454   1.759   0.086
15671WAT      O47254   9.019   8.798   9.275
15671WAT     H147255   8.934   8.838   9.242
15671WAT     H247256   9.096   8.837   9.224
15672WAT      O47257   1.707   6.033   2.029
15672WAT     H147258   1.728   6.029   2.127
15672WAT     H247259   1.791   6.034   1.976
15673WAT      O47260   2.153   4.676   8.893
15673WAT     H147261   2.161   4.708   8.987
15673WAT     H247262   2.240   4.636   8.864
15674WAT      O47263   4.170   0.240   6.936
15674WAT     H147264   4.158   0.144   6.912
15674WAT     H247265   4.085   0.275   6.976
15675WAT      O47266   1.570   9.435   5.168
15675WAT     H147267   1.543   9.390   5.253
15675WAT     H247268   1.584   9.532   5.185
15676WAT      O47269   5.899   5.272   1.717
15676WAT     H147270   5.965   5.309   1.782
15676WAT     H247271   5.807   5.303   1.742
15677WAT      O47272   4.709   7.982   0.452
15677WAT     H147273   4.756   7.943   0.531
15677WAT     H247274   4.730   7.929   0.370
15678WAT      O47275   1.588   3.715   2.078
15678WAT     H147276   1.511   3.775   2.099
15678WAT     H247277   1.621   3.734   1.985
15679WAT      O47278   9.032   5.643   1.210
15679WAT     H147279   8.955   5.673   1.153
15679WAT     H247280   9.071   5.722   1.258
15680WAT      O47281   6.496   2.727   6.334
15680WAT     H147282   6.429   2.799   6.353
15680WAT     H247283   6.474   2.683   6.248
15681WAT      O47284   8.234   6.625   8.513
15681WAT     H147285   8.281   6.581   8.589
15681WAT     H247286   8.179   6.557   8.464
15682WAT      O47287   9.816   5.615   8.752
15682WAT     H147288   9.821   5.601   8.653
15682WAT     H247289   9.884   5.684   8.779
15683WAT      O47290   1.227   3.825   5.045
15683WAT     H147291   1.127   3.818   5.050
15683WAT     H247292   1.252   3.914   5.008
15684WAT      O47293   2.030   5.043   4.089
15684WAT     H147294   2.065   4.958   4.129
15684WAT     H247295   2.104   5.109   4.079
15685WAT      O47296   9.444   9.747   3.324
15685WAT     H147297   9.357   9.725   3.280
15685WAT     H247298   9.438   9.837   3.367
15686WAT      O47299   0.555   6.187   7.273
15686WAT     H147300   0.490   6.203   7.199
15686WAT     H247301   0.580   6.090   7.274
15687WAT      O47302   9.867   8.244   8.079
15687WAT     H147303   9.786   8.194   8.111
15687WAT     H247304   9.920   8.186   8.018
15688WAT      O47305   3.840   7.735   3.359
15688WAT     H147306   3.884   7.666   3.416
15688WAT     H247307   3.908   7.804   3.332
15689WAT      O47308   7.513   6.772   0.692
15689WAT     H147309   7.440   6.759   0.626
15689WAT     H247310   7.528   6.870   0.707
15690WAT      O47311   6.041   4.445   3.808
15690WAT     H147312   6.096   4.392   3.873
15690WAT     H247313   6.049   4.542   3.829
15691WAT      O47314   7.955   8.760   8.895
15691WAT     H147315   7.975   8.847   8.849
15691WAT     H247316   8.011   8.688   8.856
15692WAT      O47317   2.062   0.776   8.699
15692WAT     H147318   2.101   0.829   8.774
15692WAT     H247319   1.975   0.817   8.671
15693WAT      O47320   8.255   9.731   5.735
15693WAT     H147321   8.342   9.728   5.785
15693WAT     H247322   8.210   9.818   5.752
15694WAT      O47323   6.679   5.570   1.530
15694WAT     H147324   6.621   5.586   1.451
15694WAT     H247325   6.756   5.635   1.529
15695WAT      O47326   2.457   4.163   8.553
15695WAT     H147327   2.405   4.207   8.626
15695WAT     H247328   2.542   4.126   8.591
15696WAT      O47329   7.089   7.383   4.702
15696WAT     H147330   7.064   7.437   4.783
15696WAT     H247331   7.111   7.290   4.730
15697WAT      O47332   9.396   9.230   7.173
15697WAT     H147333   9.307   9.273   7.157
15697WAT     H247334   9.446   9.281   7.243
15698WAT      O47335   0.536   2.494   6.489
15698WAT     H147336   0.559   2.589   6.511
15698WAT     H247337   0.609   2.454   6.432
15699WAT      O47338   7.713   1.338   9.214
15699WAT     H147339   7.756   1.409   9.270
15699WAT     H247340   7.780   1.265   9.196
15700WAT      O47341   5.373   8.982   6.959
15700WAT     H147342   5.417   9.070   6.942
15700WAT     H247343   5.408   8.943   7.044
15701WAT      O47344   4.892   2.107   2.782
15701WAT     H147345   4.971   2.066   2.829
15701WAT     H247346   4.924   2.168   2.710
15702WAT      O47347   7.955   6.490   2.095
15702WAT     H147348   7.910   6.490   2.005
15702WAT     H247349   7.916   6.563   2.151
15703WAT      O47350   9.288   9.152   8.305
15703WAT     H147351   9.235   9.093   8.244
15703WAT     H247352   9.338   9.220   8.252
15704WAT      O47353   1.445   7.655   6.454
15704WAT     H147354   1.355   7.615   6.470
15704WAT     H247355   1.513   7.582   6.443
15705WAT      O47356   3.642   7.330   0.361
15705WAT     H147357   3.710   7.331   0.288
15705WAT     H247358   3.678   7.282   0.441
15706WAT      O47359   9.446   2.286   0.372
15706WAT     H147360   9.438   2.325   0.280
15706WAT     H247361   9.463   2.188   0.365
15707WAT      O47362   1.597   2.982   2.025
15707WAT     H147363   1.630   2.901   2.074
15707WAT     H247364   1.664   3.007   1.955
15708WAT      O47365   0.683   6.874   1.138
15708WAT     H147366   0.715   6.858   1.044
15708WAT     H247367   0.612   6.944   1.138
15709WAT      O47368   7.286   2.618   7.124
15709WAT     H147369   7.311   2.523   7.105
15709WAT     H247370   7.309   2.639   7.219
15710WAT      O47371   7.348   0.251   5.731
15710WAT     H147372   7.384   0.338   5.699
15710WAT     H247373   7.358   0.244   5.830
15711WAT      O47374   0.535   6.625   5.882
15711WAT     H147375   0.588   6.575   5.813
15711WAT     H247376   0.444   6.584   5.890
15712WAT      O47377   1.193   7.222   9.739
15712WAT     H147378   1.160   7.163   9.665
15712WAT     H247379   1.179   7.176   9.827
15713WAT      O47380   3.408   7.818   7.371
15713WAT     H147381   3.397   7.877   7.451
15713WAT     H247382   3.458   7.868   7.300
15714WAT      O47383   3.471   8.862   5.164
15714WAT     H147384   3.446   8.834   5.257
15714WAT     H247385   3.475   8.962   5.159
15715WAT      O47386   7.520   8.840   6.236
15715WAT     H147387   7.497   8.748   6.267
15715WAT     H247388   7.447   8.876   6.179
15716WAT      O47389   3.424   6.786   6.767
15716WAT     H147390   3.335   6.815   6.732
15716WAT     H247391   3.426   6.686   6.773
15717WAT      O47392   0.004   4.478   5.656
15717WAT     H147393  -0.065   4.523   5.713
15717WAT     H247394   0.078   4.542   5.637
15718WAT      O47395   2.652   6.322   7.637
15718WAT     H147396   2.652   6.241   7.697
15718WAT     H247397   2.559   6.340   7.605
15719WAT      O47398   8.452   0.763   1.459
15719WAT     H147399   8.516   0.687   1.451
15719WAT     H247400   8.425   0.794   1.368
15720WAT      O47401   3.652   3.856   4.621
15720WAT     H147402   3.553   3.847   4.626
15720WAT     H247403   3.693   3.826   4.707
15721WAT      O47404   0.632   0.925   1.883
15721WAT     H147405   0.535   0.905   1.868
15721WAT     H247406   0.687   0.849   1.849
15722WAT      O47407   7.272   9.000   8.287
15722WAT     H147408   7.246   8.919   8.339
15722WAT     H247409   7.191   9.041   8.245
15723WAT      O47410   0.984   7.210   3.118
15723WAT     H147411   1.074   7.215   3.162
15723WAT     H247412   0.928   7.288   3.147
15724WAT      O47413   8.712   1.226   3.259
15724WAT     H147414   8.766   1.147   3.290
15724WAT     H247415   8.616   1.210   3.279
15725WAT      O47416   5.960   3.581   0.639
15725WAT     H147417   5.991   3.613   0.729
15725WAT     H247418   5.930   3.660   0.585
15726WAT      O47419   8.471   8.251   0.699
15726WAT     H147420   8.403   8.255   0.626
15726WAT     H247421   8.522   8.166   0.692
15727WAT      O47422   4.029   5.264   6.253
15727WAT     H147423   4.070   5.251   6.344
15727WAT     H247424   3.929   5.263   6.262
15728WAT      O47425   2.494   4.012   3.585
15728WAT     H147426   2.440   3.928   3.585
15728WAT     H247427   2.579   3.997   3.534
15729WAT      O47428   7.601   5.966   0.375
15729WAT     H147429   7.524   5.948   0.437
15729WAT     H247430   7.607   5.893   0.307
15730WAT      O47431   5.603   7.915   1.353
15730WAT     H147432   5.591   7.990   1.287
15730WAT     H247433   5.700   7.902   1.372
15731WAT      O47434   2.348   8.261   1.462
15731WAT     H147435   2.424   8.199   1.480
15731WAT     H247436   2.267   8.209   1.434
15732WAT      O47437   0.720   2.019   8.655
15732WAT     H147438   0.709   1.925   8.624
15732WAT     H247439   0.649   2.040   8.723
15733WAT      O47440   4.170   9.798   6.511
15733WAT     H147441   4.072   9.789   6.531
15733WAT     H247442   4.182   9.819   6.414
15734WAT      O47443   0.310   7.403   1.163
15734WAT     H147444   0.255   7.471   1.114
15734WAT     H247445   0.278   7.396   1.257
15735WAT      O47446   7.511   0.805   2.035
15735WAT     H147447   7.607   0.832   2.026
15735WAT     H247448   7.506   0.718   2.083
15736WAT      O47449   9.738   3.019   8.512
15736WAT     H147450   9.782   3.106   8.536
15736WAT     H247451   9.785   2.979   8.433
15737WAT      O47452   0.444   9.468   3.407
15737WAT     H147453   0.477   9.474   3.501
15737WAT     H247454   0.497   9.400   3.357
15738WAT      O47455   8.820   9.824   9.036
15738WAT     H147456   8.886   9.889   9.075
15738WAT     H247457   8.843   9.731   9.066
15739WAT      O47458   6.439   8.950   3.059
15739WAT     H147459   6.468   8.898   2.978
15739WAT     H247460   6.358   8.906   3.099
15740WAT      O47461   7.188   5.435   3.785
15740WAT     H147462   7.169   5.503   3.714
15740WAT     H247463   7.279   5.450   3.824
15741WAT      O47464   7.413   3.393   8.164
15741WAT     H147465   7.460   3.481   8.151
15741WAT     H247466   7.337   3.405   8.228
15742WAT      O47467   6.761   7.219   8.357
15742WAT     H147468   6.735   7.225   8.453
15742WAT     H247469   6.819   7.297   8.333
15743WAT      O47470   2.831   2.777   6.776
15743WAT     H147471   2.824   2.807   6.681
15743WAT     H247472   2.919   2.807   6.814
15744WAT      O47473   4.443   9.568   7.133
15744WAT     H147474   4.379   9.622   7.188
15744WAT     H247475   4.513   9.530   7.193
15745WAT      O47476   3.771   1.441   2.766
15745WAT     H147477   3.696   1.502   2.791
15745WAT     H247478   3.859   1.484   2.787
15746WAT      O47479   3.963   7.488   3.446
15746WAT     H147480   3.895   7.470   3.517
15746WAT     H247481   4.051   7.449   3.474
15747WAT      O47482   0.304   2.314   9.024
15747WAT     H147483   0.321   2.372   8.944
15747WAT     H247484   0.386   2.310   9.080
15748WAT      O47485   0.405   2.723   8.195
15748WAT     H147486   0.493   2.676   8.187
15748WAT     H247487   0.410   2.810   8.147
15749WAT      O47488   4.306   5.276   1.457
15749WAT     H147489   4.219   5.310   1.492
15749WAT     H247490   4.289   5.194   1.402
15750WAT      O47491   9.595   2.237   5.539
15750WAT     H147492   9.533   2.257   5.463
15750WAT     H247493   9.646   2.320   5.562
15751WAT      O47494   5.270   8.813   2.662
15751WAT     H147495   5.358   8.769   2.645
15751WAT     H247496   5.255   8.823   2.760
15752WAT      O47497   7.865   4.609   4.878
15752WAT     H147498   7.929   4.604   4.802
15752WAT     H247499   7.781   4.655   4.849
15753WAT      O47500   4.495   4.032   0.273
15753WAT     H147501   4.525   3.959   0.334
15753WAT     H247502   4.572   4.061   0.216
15754WAT      O47503   0.555   3.813   6.420
15754WAT     H147504   0.609   3.883   6.373
15754WAT     H247505   0.615   3.740   6.452
15755WAT      O47506   6.809   8.021   6.848
15755WAT     H147507   6.878   8.092   6.836
15755WAT     H247508   6.747   8.047   6.922
15756WAT      O47509   5.719   7.017   6.841
15756WAT     H147510   5.759   6.967   6.918
15756WAT     H247511   5.636   6.971   6.810
15757WAT      O47512   1.163   3.778   1.327
15757WAT     H147513   1.206   3.702   1.279
15757WAT     H247514   1.213   3.863   1.308
15758WAT      O47515   5.155   6.178   5.955
15758WAT     H147516   5.252   6.198   5.941
15758WAT     H247517   5.123   6.116   5.883
15759WAT      O47518   0.506   7.694   2.748
15759WAT     H147519   0.486   7.784   2.710
15759WAT     H247520   0.604   7.674   2.739
15760WAT      O47521   5.134   6.409   4.999
15760WAT     H147522   5.091   6.327   5.037
15760WAT     H247523   5.185   6.385   4.916
15761WAT      O47524   5.723   5.136   6.970
15761WAT     H147525   5.816   5.104   6.989
15761WAT     H247526   5.724   5.236   6.962
15762WAT      O47527   9.169   9.285   2.369
15762WAT     H147528   9.225   9.353   2.321
15762WAT     H247529   9.116   9.331   2.440
15763WAT      O47530   4.640   1.841   8.466
15763WAT     H147531   4.547   1.868   8.441
15763WAT     H247532   4.701   1.920   8.461
15764WAT      O47533   0.729   3.901   9.517
15764WAT     H147534   0.790   3.824   9.535
15764WAT     H247535   0.656   3.903   9.586
15765WAT      O47536   3.219   3.275   1.078
15765WAT     H147537   3.265   3.300   1.164
15765WAT     H247538   3.285   3.232   1.017
15766WAT      O47539   4.610   9.210   7.596
15766WAT     H147540   4.550   9.157   7.655
15766WAT     H247541   4.623   9.301   7.636
15767WAT      O47542   5.483   4.116   6.894
15767WAT     H147543   5.450   4.022   6.891
15767WAT     H247544   5.486   4.153   6.801
15768WAT      O47545   0.860   1.019   4.851
15768WAT     H147546   0.857   0.930   4.804
15768WAT     H247547   0.911   1.084   4.796
15769WAT      O47548   5.946   6.618   1.909
15769WAT     H147549   5.864   6.628   1.853
15769WAT     H247550   5.926   6.647   2.003
15770WAT      O47551   2.596   9.822   6.062
15770WAT     H147552   2.617   9.878   5.982
15770WAT     H247553   2.536   9.873   6.124
15771WAT      O47554   5.632   5.412   5.286
15771WAT     H147555   5.595   5.403   5.193
15771WAT     H247556   5.559   5.440   5.348
15772WAT      O47557   6.049   4.253   4.216
15772WAT     H147558   6.004   4.334   4.252
15772WAT     H247559   5.983   4.179   4.209
15773WAT      O47560   7.592   8.796   7.885
15773WAT     H147561   7.626   8.739   7.811
15773WAT     H247562   7.638   8.771   7.970
15774WAT      O47563   1.237   5.260   8.845
15774WAT     H147564   1.214   5.163   8.842
15774WAT     H247565   1.261   5.292   8.753
15775WAT      O47566   1.625   3.195   2.831
15775WAT     H147567   1.626   3.276   2.771
15775WAT     H247568   1.686   3.211   2.909
15776WAT      O47569   2.207   7.129   5.039
15776WAT     H147570   2.215   7.030   5.053
15776WAT     H247571   2.114   7.158   5.062
15777WAT      O47572   6.270   7.519   8.208
15777WAT     H147573   6.278   7.444   8.142
15777WAT     H247574   6.249   7.604   8.160
15778WAT      O47575   2.234   1.399   0.962
15778WAT     H147576   2.226   1.303   0.990
15778WAT     H247577   2.234   1.457   1.044
15779WAT      O47578   6.521   1.340   0.171
15779WAT     H147579   6.596   1.359   0.234
15779WAT     H247580   6.439   1.388   0.202
15780WAT      O47581   5.288   2.724   4.808
15780WAT     H147582   5.385   2.747   4.824
15780WAT     H247583   5.259   2.656   4.875
15781WAT      O47584   9.147   5.783   3.237
15781WAT     H147585   9.116   5.689   3.226
15781WAT     H247586   9.121   5.817   3.327
15782WAT      O47587   3.012   3.280   5.903
15782WAT     H147588   2.928   3.228   5.915
15782WAT     H247589   3.084   3.221   5.867
15783WAT      O47590   3.910   1.175   7.929
15783WAT     H147591   3.865   1.090   7.902
15783WAT     H247592   3.850   1.252   7.908
15784WAT      O47593   0.929   1.391   1.581
15784WAT     H147594   0.920   1.392   1.680
15784WAT     H247595   0.852   1.342   1.540
15785WAT      O47596   0.568   4.777   7.925
15785WAT     H147597   0.513   4.832   7.989
15785WAT     H247598   0.664   4.779   7.953
15786WAT      O47599   9.707   0.011   8.201
15786WAT     H147600   9.770  -0.034   8.138
15786WAT     H247601   9.712   0.110   8.187
15787WAT      O47602   3.861   2.062   3.103
15787WAT     H147603   3.878   2.150   3.059
15787WAT     H247604   3.795   2.009   3.050
15788WAT      O47605   4.916   3.456   7.743
15788WAT     H147606   4.983   3.448   7.669
15788WAT     H247607   4.961   3.437   7.830
15789WAT      O47608   9.587   6.815   7.426
15789WAT     H147609   9.660   6.832   7.493
15789WAT     H247610   9.507   6.777   7.472
15790WAT      O47611   2.363   3.515   4.016
15790WAT     H147612   2.359   3.423   4.053
15790WAT     H247613   2.394   3.511   3.921
15791WAT      O47614   2.187   5.211   0.762
15791WAT     H147615   2.204   5.306   0.739
15791WAT     H247616   2.162   5.204   0.859
15792WAT      O47617   4.008   4.584   1.636
15792WAT     H147618   3.935   4.627   1.688
15792WAT     H247619   4.081   4.651   1.619
15793WAT      O47620   3.849   3.251   5.018
15793WAT     H147621   3.893   3.303   5.092
15793WAT     H247622   3.920   3.207   4.962
15794WAT      O47623   5.770   8.141   6.028
15794WAT     H147624   5.781   8.215   5.962
15794WAT     H247625   5.676   8.106   6.024
15795WAT      O47626   0.688   1.040   9.452
15795WAT     H147627   0.673   1.053   9.550
15795WAT     H247628   0.771   1.089   9.425
15796WAT      O47629   9.423   6.728   6.784
15796WAT     H147630   9.406   6.827   6.783
15796WAT     H247631   9.391   6.688   6.698
15797WAT      O47632   4.087   5.975   6.779
15797WAT     H147633   4.176   5.936   6.802
15797WAT     H247634   4.066   5.956   6.683
15798WAT      O47635   9.201   4.918   0.876
15798WAT     H147636   9.142   4.845   0.843
15798WAT     H247637   9.272   4.879   0.935
15799WAT      O47638   2.762   2.595   3.733
15799WAT     H147639   2.682   2.536   3.719
15799WAT     H247640   2.737   2.690   3.713
15800WAT      O47641   6.672   6.475   0.946
15800WAT     H147642   6.596   6.436   0.997
15800WAT     H247643   6.645   6.565   0.910
15801WAT      O47644   3.715   4.604   6.865
15801WAT     H147645   3.690   4.558   6.780
15801WAT     H247646   3.744   4.535   6.932
15802WAT      O47647   7.950   6.436   4.772
15802WAT     H147648   8.022   6.469   4.712
15802WAT     H247649   7.875   6.503   4.774
15803WAT      O47650   5.746   4.007   6.979
15803WAT     H147651   5.687   4.084   6.953
15803WAT     H247652   5.819   3.997   6.912
15804WAT      O47653   0.109   9.315   6.465
15804WAT     H147654   0.093   9.233   6.520
15804WAT     H247655   0.027   9.372   6.464
15805WAT      O47656   0.513   3.592   0.861
15805WAT     H147657   0.600   3.630   0.894
15805WAT     H247658   0.438   3.651   0.890
15806WAT      O47659   9.168   3.383   4.017
15806WAT     H147660   9.153   3.370   3.920
15806WAT     H247661   9.167   3.294   4.064
15807WAT      O47662   7.739   1.066   5.299
15807WAT     H147663   7.795   1.039   5.378
15807WAT     H247664   7.779   1.148   5.257
15808WAT      O47665   4.678   8.746   7.441
15808WAT     H147666   4.711   8.696   7.522
15808WAT     H247667   4.597   8.800   7.466
15809WAT      O47668   9.856   2.054   6.213
15809WAT     H147669   9.889   2.046   6.119
15809WAT     H247670   9.764   2.015   6.220
15810WAT      O47671   5.314   5.441   0.569
15810WAT     H147672   5.321   5.395   0.657
15810WAT     H247673   5.287   5.537   0.583
15811WAT      O47674   6.823   6.908   1.736
15811WAT     H147675   6.835   6.923   1.834
15811WAT     H247676   6.908   6.929   1.688
15812WAT      O47677   2.235   1.551   1.239
15812WAT     H147678   2.187   1.508   1.315
15812WAT     H247679   2.186   1.633   1.210
15813WAT      O47680   1.588   3.047   0.421
15813WAT     H147681   1.564   2.955   0.453
15813WAT     H247682   1.506   3.103   0.416
15814WAT      O47683   5.952   0.830   8.340
15814WAT     H147684   5.880   0.868   8.398
15814WAT     H247685   6.032   0.811   8.397
15815WAT      O47686   9.101   6.292   5.507
15815WAT     H147687   9.015   6.289   5.559
15815WAT     H247688   9.155   6.370   5.537
15816WAT      O47689   3.853   5.170   4.419
15816WAT     H147690   3.835   5.113   4.499
15816WAT     H247691   3.770   5.180   4.365
15817WAT      O47692   4.302   9.651   2.238
15817WAT     H147693   4.318   9.749   2.254
15817WAT     H247694   4.374   9.598   2.283
15818WAT      O47695   5.429   1.759   8.899
15818WAT     H147696   5.398   1.759   8.804
15818WAT     H247697   5.360   1.717   8.957
15819WAT      O47698   0.976   5.312   7.669
15819WAT     H147699   0.912   5.272   7.603
15819WAT     H247700   1.069   5.303   7.634
15820WAT      O47701   6.345   3.535   6.236
15820WAT     H147702   6.338   3.442   6.200
15820WAT     H247703   6.356   3.531   6.335
15821WAT      O47704   4.618   0.406   8.041
15821WAT     H147705   4.534   0.353   8.034
15821WAT     H247706   4.598   0.503   8.026
15822WAT      O47707   6.728   4.644   7.254
15822WAT     H147708   6.653   4.581   7.236
15822WAT     H247709   6.777   4.663   7.169
15823WAT      O47710   1.811   9.352   9.445
15823WAT     H147711   1.867   9.298   9.383
15823WAT     H247712   1.715   9.330   9.431
15824WAT      O47713   6.287   9.048   0.489
15824WAT     H147714   6.285   9.044   0.389
15824WAT     H247715   6.246   9.133   0.520
15825WAT      O47716   0.409   6.640   7.409
15825WAT     H147717   0.459   6.696   7.475
15825WAT     H247718   0.444   6.546   7.412
15826WAT      O47719   6.615   3.609   9.827
15826WAT     H147720   6.535   3.595   9.886
15826WAT     H247721   6.588   3.604   9.731
15827WAT      O47722   9.303   8.778   8.261
15827WAT     H147723   9.279   8.780   8.358
15827WAT     H247724   9.291   8.869   8.222
15828WAT      O47725   2.648   9.529   2.472
15828WAT     H147726   2.706   9.607   2.449
15828WAT     H247727   2.679   9.448   2.423
15829WAT      O47728   5.114   2.178   8.216
15829WAT     H147729   5.127   2.127   8.301
15829WAT     H247730   5.155   2.128   8.140
15830WAT      O47731   2.118   4.095   5.084
15830WAT     H147732   2.193   4.121   5.145
15830WAT     H247733   2.036   4.145   5.110
15831WAT      O47734   4.336   7.307   0.241
15831WAT     H147735   4.340   7.225   0.184
15831WAT     H247736   4.301   7.284   0.332
15832WAT      O47737   8.218   0.112   3.261
15832WAT     H147738   8.212   0.013   3.247
15832WAT     H247739   8.144   0.142   3.322
15833WAT      O47740   5.665   8.166   9.818
15833WAT     H147741   5.665   8.072   9.782
15833WAT     H247742   5.571   8.194   9.836
15834WAT      O47743   8.968   8.437   2.565
15834WAT     H147744   9.054   8.414   2.612
15834WAT     H247745   8.893   8.388   2.608
15835WAT      O47746   0.226   9.230   8.539
15835WAT     H147747   0.215   9.140   8.582
15835WAT     H247748   0.323   9.254   8.539
15836WAT      O47749   3.564   1.366   8.858
15836WAT     H147750   3.660   1.388   8.838
15836WAT     H247751   3.560   1.306   8.938
15837WAT      O47752   0.113   5.390   1.455
15837WAT     H147753   0.056   5.348   1.526
15837WAT     H247754   0.076   5.479   1.430
15838WAT      O47755   3.424   2.365   5.829
15838WAT     H147756   3.349   2.429   5.817
15838WAT     H247757   3.481   2.394   5.906
15839WAT      O47758   4.073   6.066   7.450
15839WAT     H147759   4.149   6.122   7.417
15839WAT     H247760   3.988   6.118   7.441
15840WAT      O47761   9.825   4.535   6.449
15840WAT     H147762   9.833   4.574   6.541
15840WAT     H247763   9.789   4.605   6.387
15841WAT      O47764   8.361   5.280   2.017
15841WAT     H147765   8.263   5.276   1.997
15841WAT     H247766   8.409   5.215   1.959
15842WAT      O47767   2.375   9.604   8.864
15842WAT     H147768   2.295   9.662   8.846
15842WAT     H247769   2.453   9.637   8.809
15843WAT      O47770   1.195   3.960   0.303
15843WAT     H147771   1.285   3.916   0.299
15843WAT     H247772   1.172   3.981   0.398
15844WAT      O47773   2.193   2.131   9.126
15844WAT     H147774   2.159   2.136   9.220
15844WAT     H247775   2.157   2.049   9.082
15845WAT      O47776   5.831   3.157   3.250
15845WAT     H147777   5.835   3.151   3.350
15845WAT     H247778   5.878   3.240   3.219
15846WAT      O47779   4.118   1.511   6.075
15846WAT     H147780   4.103   1.412   6.066
15846WAT     H247781   4.039   1.560   6.038
15847WAT      O47782   2.305   4.909   8.382
15847WAT     H147783   2.267   4.817   8.370
15847WAT     H247784   2.236   4.969   8.422
15848WAT      O47785   1.822   9.780   8.541
15848WAT     H147786   1.867   9.841   8.476
15848WAT     H247787   1.745   9.735   8.496
15849WAT      O47788   1.578   1.056   3.890
15849WAT     H147789   1.493   1.003   3.894
15849WAT     H247790   1.589   1.106   3.976
15850WAT      O47791   6.629   6.136   4.804
15850WAT     H147792   6.669   6.121   4.894
15850WAT     H247793   6.586   6.227   4.800
15851WAT      O47794   6.794   4.823   6.667
15851WAT     H147795   6.739   4.882   6.727
15851WAT     H247796   6.813   4.737   6.714
15852WAT      O47797   4.030   5.188   9.168
15852WAT     H147798   3.982   5.112   9.125
15852WAT     H247799   4.119   5.157   9.203
15853WAT      O47800   8.146   6.517   4.634
15853WAT     H147801   8.173   6.613   4.644
15853WAT     H247802   8.153   6.490   4.538
15854WAT      O47803   5.479   4.681   7.048
15854WAT     H147804   5.541   4.632   6.986
15854WAT     H247805   5.520   4.685   7.139
15855WAT      O47806   3.247   8.576   5.508
15855WAT     H147807   3.266   8.529   5.593
15855WAT     H247808   3.218   8.510   5.438
15856WAT      O47809   9.157   0.401   6.465
15856WAT     H147810   9.095   0.336   6.419
15856WAT     H247811   9.116   0.430   6.551
15857WAT      O47812   3.671   3.771   8.032
15857WAT     H147813   3.694   3.839   7.962
15857WAT     H247814   3.715   3.684   8.009
15858WAT      O47815   9.575   8.935   7.995
15858WAT     H147816   9.586   8.978   8.085
15858WAT     H247817   9.629   8.984   7.927
15859WAT      O47818   3.082   1.249   8.621
15859WAT     H147819   3.065   1.348   8.618
15859WAT     H247820   3.169   1.229   8.576
15860WAT      O47821   8.746   1.422   6.714
15860WAT     H147822   8.679   1.359   6.676
15860WAT     H247823   8.835   1.377   6.719
15861WAT      O47824   6.065   7.699   1.996
15861WAT     H147825   6.164   7.692   1.985
15861WAT     H247826   6.039   7.674   2.089
15862WAT      O47827   0.812   2.445   8.868
15862WAT     H147828   0.897   2.442   8.921
15862WAT     H247829   0.772   2.537   8.874
15863WAT      O47830   3.035   0.918   4.211
15863WAT     H147831   3.019   0.903   4.113
15863WAT     H247832   2.956   0.965   4.251
15864WAT      O47833   2.873   9.353   6.497
15864WAT     H147834   2.782   9.315   6.511
15864WAT     H247835   2.865   9.452   6.483
15865WAT      O47836   7.040   5.572   0.693
15865WAT     H147837   6.994   5.499   0.643
15865WAT     H247838   7.114   5.533   0.747
15866WAT      O47839   5.896   6.183   1.488
15866WAT     H147840   5.805   6.178   1.527
15866WAT     H247841   5.918   6.097   1.441
15867WAT      O47842   8.678   5.863   7.403
15867WAT     H147843   8.578   5.865   7.401
15867WAT     H247844   8.713   5.867   7.310
15868WAT      O47845   7.719   2.607   6.622
15868WAT     H147846   7.727   2.527   6.681
15868WAT     H247847   7.759   2.687   6.668
15869WAT      O47848   6.486   0.241   6.214
15869WAT     H147849   6.393   0.275   6.226
15869WAT     H247850   6.525   0.217   6.303
15870WAT      O47851   7.106   5.843   2.797
15870WAT     H147852   7.062   5.791   2.723
15870WAT     H247853   7.036   5.876   2.861
15871WAT      O47854   4.146   3.972   5.035
15871WAT     H147855   4.126   4.034   4.959
15871WAT     H247856   4.116   4.014   5.121
15872WAT      O47857   5.623   1.281   0.505
15872WAT     H147858   5.608   1.182   0.511
15872WAT     H247859   5.645   1.317   0.596
15873WAT      O47860   6.061   4.204   8.379
15873WAT     H147861   6.068   4.108   8.403
15873WAT     H247862   6.104   4.260   8.450
15874WAT      O47863   1.055   4.211   7.215
15874WAT     H147864   1.013   4.284   7.161
15874WAT     H247865   1.089   4.140   7.154
15875WAT      O47866   9.433   7.086   0.624
15875WAT     H147867   9.456   7.125   0.535
15875WAT     H247868   9.444   7.156   0.695
15876WAT      O47869   1.707   8.778   6.500
15876WAT     H147870   1.677   8.692   6.459
15876WAT     H247871   1.801   8.797   6.471
15877WAT      O47872   5.476   6.271   5.467
15877WAT     H147873   5.457   6.255   5.370
15877WAT     H247874   5.573   6.290   5.480
15878WAT      O47875   9.465   4.960   0.368
15878WAT     H147876   9.456   5.060   0.374
15878WAT     H247877   9.492   4.935   0.275
15879WAT      O47878   9.369   9.243   0.894
15879WAT     H147879   9.439   9.268   0.827
15879WAT     H247880   9.298   9.188   0.850
15880WAT      O47881   3.651   8.583   3.921
15880WAT     H147882   3.620   8.488   3.925
15880WAT     H247883   3.690   8.602   3.830
15881WAT      O47884   9.166   6.042   7.587
15881WAT     H147885   9.086   5.995   7.624
15881WAT     H247886   9.247   5.983   7.598
15882WAT      O47887   1.185   5.352   5.191
15882WAT     H147888   1.093   5.313   5.197
15882WAT     H247889   1.230   5.345   5.280
15883WAT      O47890   9.038   0.108   8.814
15883WAT     H147891   9.122   0.089   8.866
15883WAT     H247892   8.991   0.023   8.794
15884WAT      O47893   5.791   3.831   9.430
15884WAT     H147894   5.712   3.791   9.383
15884WAT     H247895   5.863   3.762   9.439
15885WAT      O47896   3.836   8.080   0.247
15885WAT     H147897   3.930   8.103   0.273
15885WAT     H247898   3.817   7.986   0.274
15886WAT      O47899   6.310   0.937   6.309
15886WAT     H147900   6.258   0.887   6.240
15886WAT     H247901   6.248   0.973   6.378
15887WAT      O47902   1.423   5.636   4.248
15887WAT     H147903   1.419   5.694   4.329
15887WAT     H247904   1.517   5.625   4.219
15888WAT      O47905   7.274   0.837   7.896
15888WAT     H147906   7.218   0.789   7.829
15888WAT     H247907   7.248   0.933   7.900
15889WAT      O47908   1.702   9.145   8.422
15889WAT     H147909   1.696   9.244   8.438
15889WAT     H247910   1.677   9.096   8.505
15890WAT      O47911   9.474   6.442   4.584
15890WAT     H147912   9.439   6.376   4.651
15890WAT     H247913   9.558   6.483   4.619
15891WAT      O47914   4.276   0.491   1.829
15891WAT     H147915   4.223   0.549   1.768
15891WAT     H247916   4.363   0.468   1.785
15892WAT      O47917   3.456   6.067   0.347
15892WAT     H147918   3.542   6.026   0.378
15892WAT     H247919   3.404   6.000   0.295
15893WAT      O47920   6.740   3.861   5.251
15893WAT     H147921   6.823   3.829   5.207
15893WAT     H247922   6.732   3.819   5.342
15894WAT      O47923   5.939   0.861   1.265
15894WAT     H147924   5.878   0.898   1.335
15894WAT     H247925   5.887   0.840   1.183
15895WAT      O47926   3.845   5.988   5.055
15895WAT     H147927   3.939   6.016   5.077
15895WAT     H247928   3.814   6.036   4.973
15896WAT      O47929   2.588   7.839   2.202
15896WAT     H147930   2.512   7.882   2.153
15896WAT     H247931   2.574   7.741   2.206
15897WAT      O47932   9.035   8.894   2.554
15897WAT     H147933   9.117   8.901   2.497
15897WAT     H247934   8.986   8.981   2.552
15898WAT      O47935   4.897   0.448   1.553
15898WAT     H147936   4.892   0.545   1.577
15898WAT     H247937   4.983   0.430   1.505
15899WAT      O47938   6.679   2.706   9.325
15899WAT     H147939   6.771   2.668   9.315
15899WAT     H247940   6.650   2.747   9.239
15900WAT      O47941   9.298   7.742   4.261
15900WAT     H147942   9.208   7.737   4.305
15900WAT     H247943   9.300   7.680   4.182
15901WAT      O47944   1.298   7.889   0.437
15901WAT     H147945   1.298   7.793   0.465
15901WAT     H247946   1.209   7.930   0.458
15902WAT      O47947   4.036   7.094   6.900
15902WAT     H147948   3.945   7.091   6.858
15902WAT     H247949   4.089   7.013   6.871
15903WAT      O47950   2.909   5.023   7.355
15903WAT     H147951   2.912   5.122   7.369
15903WAT     H247952   2.967   4.998   7.279
15904WAT      O47953   9.552   2.555   5.900
15904WAT     H147954   9.460   2.552   5.940
15904WAT     H247955   9.620   2.547   5.972
15905WAT      O47956   3.305   3.350   3.854
15905WAT     H147957   3.317   3.273   3.792
15905WAT     H247958   3.303   3.318   3.949
15906WAT      O47959   2.402   2.882   7.113
15906WAT     H147960   2.478   2.923   7.163
15906WAT     H247961   2.436   2.845   7.026
15907WAT      O47962   8.311   6.400   7.166
15907WAT     H147963   8.333   6.432   7.074
15907WAT     H247964   8.381   6.434   7.230
15908WAT      O47965   3.153   9.471   4.313
15908WAT     H147966   3.067   9.467   4.262
15908WAT     H247967   3.141   9.531   4.393
15909WAT      O47968   8.481   6.968   2.939
15909WAT     H147969   8.574   7.003   2.952
15909WAT     H247970   8.464   6.956   2.841
15910WAT      O47971   9.609   1.557   1.059
15910WAT     H147972   9.600   1.609   1.144
15910WAT     H247973   9.528   1.571   1.002
15911WAT      O47974   8.786   1.383   7.605
15911WAT     H147975   8.845   1.351   7.531
15911WAT     H247976   8.712   1.318   7.620
15912WAT      O47977   6.074   0.912   5.483
15912WAT     H147978   6.013   0.988   5.506
15912WAT     H247979   6.137   0.941   5.411
15913WAT      O47980   5.263   1.782   4.457
15913WAT     H147981   5.195   1.805   4.527
15913WAT     H247982   5.262   1.852   4.385
15914WAT      O47983   5.695   3.230   5.933
15914WAT     H147984   5.605   3.253   5.895
15914WAT     H247985   5.702   3.132   5.947
15915WAT      O47986   0.217   5.069   5.874
15915WAT     H147987   0.219   4.980   5.919
15915WAT     H247988   0.309   5.092   5.841
15916WAT      O47989   0.689   1.508   3.617
15916WAT     H147990   0.667   1.568   3.541
15916WAT     H247991   0.701   1.562   3.700
15917WAT      O47992   7.498   7.458   7.456
15917WAT     H147993   7.450   7.406   7.527
15917WAT     H247994   7.433   7.520   7.411
15918WAT      O47995   5.705   7.471   3.077
15918WAT     H147996   5.721   7.414   3.157
15918WAT     H247997   5.608   7.495   3.072
15919WAT      O47998   5.002   6.901   3.593
15919WAT     H147999   4.940   6.822   3.593
15919WAT     H248000   4.984   6.958   3.514
15920WAT      O48001   7.539   6.850   4.177
15920WAT     H148002   7.509   6.868   4.271
15920WAT     H248003   7.555   6.936   4.129
15921WAT      O48004   1.090   4.100   6.385
15921WAT     H148005   1.104   4.015   6.333
15921WAT     H248006   1.074   4.078   6.481
15922WAT      O48007   4.754   1.637   8.070
15922WAT     H148008   4.818   1.703   8.032
15922WAT     H248009   4.800   1.580   8.139
15923WAT      O48010   1.576   0.776   5.333
15923WAT     H148011   1.480   0.785   5.361
15923WAT     H248012   1.601   0.853   5.274
15924WAT      O48013   9.699   4.196   2.432
15924WAT     H148014   9.612   4.147   2.428
15924WAT     H248015   9.746   4.174   2.518
15925WAT      O48016   6.082   4.962   0.729
15925WAT     H148017   6.034   4.909   0.659
15925WAT     H248018   6.016   5.004   0.790
15926WAT      O48019   3.159   1.850   9.526
15926WAT     H148020   3.168   1.944   9.557
15926WAT     H248021   3.247   1.803   9.534
15927WAT      O48022   7.930   1.554   7.837
15927WAT     H148023   7.864   1.532   7.765
15927WAT     H248024   7.882   1.597   7.914
15928WAT      O48025   1.141   7.854   6.736
15928WAT     H148026   1.101   7.763   6.752
15928WAT     H248027   1.230   7.844   6.691
15929WAT      O48028   3.064   0.947   3.006
15929WAT     H148029   3.113   0.950   2.919
15929WAT     H248030   3.022   0.857   3.018
15930WAT      O48031   9.556   8.529   3.312
15930WAT     H148032   9.638   8.506   3.259
15930WAT     H248033   9.578   8.602   3.377
15931WAT      O48034   0.899   1.789   9.548
15931WAT     H148035   0.830   1.764   9.615
15931WAT     H248036   0.943   1.874   9.576
15932WAT      O48037   1.934   4.939   6.900
15932WAT     H148038   1.938   4.940   7.000
15932WAT     H248039   1.855   4.886   6.870
15933WAT      O48040   5.880   2.931   7.237
15933WAT     H148041   5.828   2.930   7.322
15933WAT     H248042   5.819   2.908   7.161
15934WAT      O48043   6.426   4.530   3.980
15934WAT     H148044   6.497   4.493   4.040
15934WAT     H248045   6.414   4.469   3.902
15935WAT      O48046   5.340   2.745   5.614
15935WAT     H148047   5.433   2.762   5.647
15935WAT     H248048   5.275   2.797   5.669
15936WAT      O48049   0.300   8.441   7.035
15936WAT     H148050   0.322   8.352   7.074
15936WAT     H248051   0.334   8.513   7.096
15937WAT      O48052   2.212   3.640   1.413
15937WAT     H148053   2.276   3.709   1.446
15937WAT     H248054   2.235   3.615   1.319
15938WAT      O48055   2.682   2.680   4.737
15938WAT     H148056   2.758   2.704   4.676
15938WAT     H248057   2.662   2.757   4.796
15939WAT      O48058   5.883   6.956   5.519
15939WAT     H148059   5.894   7.004   5.432
15939WAT     H248060   5.891   7.021   5.595
15940WAT      O48061   5.970   7.079   5.276
15940WAT     H148062   5.899   7.091   5.207
15940WAT     H248063   6.048   7.032   5.235
15941WAT      O48064   9.003   9.783   0.396
15941WAT     H148065   8.950   9.840   0.458
15941WAT     H248066   8.943   9.744   0.327
15942WAT      O48067   7.234   0.995   8.869
15942WAT     H148068   7.289   0.932   8.815
15942WAT     H248069   7.253   1.089   8.840
15943WAT      O48070   4.688   3.949   4.726
15943WAT     H148071   4.782   3.943   4.692
15943WAT     H248072   4.628   3.980   4.652
15944WAT      O48073   6.644   7.181   3.390
15944WAT     H148074   6.731   7.218   3.425
15944WAT     H248075   6.597   7.132   3.462
15945WAT      O48076   3.511   2.025   9.678
15945WAT     H148077   3.570   2.100   9.709
15945WAT     H248078   3.513   1.951   9.745
15946WAT      O48079   5.932   7.609   4.702
15946WAT     H148080   6.012   7.626   4.645
15946WAT     H248081   5.856   7.580   4.644
15947WAT      O48082   7.966   0.687   8.693
15947WAT     H148083   7.924   0.634   8.767
15947WAT     H248084   8.034   0.749   8.732
15948WAT      O48085   3.283   4.861   7.359
15948WAT     H148086   3.293   4.926   7.434
15948WAT     H248087   3.224   4.901   7.288
15949WAT      O48088   0.517   1.711   6.064
15949WAT     H148089   0.520   1.660   6.150
15949WAT     H248090   0.560   1.657   5.992
15950WAT      O48091   8.419   2.690   5.316
15950WAT     H148092   8.516   2.692   5.292
15950WAT     H248093   8.366   2.742   5.248
15951WAT      O48094   5.612   5.883   3.468
15951WAT     H148095   5.661   5.883   3.555
15951WAT     H248096   5.619   5.793   3.426
15952WAT      O48097   2.748   8.310   5.878
15952WAT     H148098   2.815   8.318   5.804
15952WAT     H248099   2.795   8.308   5.966
15953WAT      O48100   8.396   8.029   3.221
15953WAT     H148101   8.484   8.070   3.244
15953WAT     H248102   8.394   8.007   3.124
15954WAT      O48103   1.570   0.910   1.079
15954WAT     H148104   1.532   0.934   0.989
15954WAT     H248105   1.499   0.868   1.134
15955WAT      O48106   8.801   0.586   3.810
15955WAT     H148107   8.734   0.550   3.875
15955WAT     H248108   8.891   0.547   3.829
15956WAT      O48109   4.844   0.951   8.622
15956WAT     H148110   4.931   0.976   8.579
15956WAT     H248111   4.824   0.855   8.603
15957WAT      O48112   2.701   9.285   2.304
15957WAT     H148113   2.637   9.301   2.229
15957WAT     H248114   2.681   9.198   2.347
15958WAT      O48115   2.525   4.138   6.980
15958WAT     H148116   2.442   4.091   6.952
15958WAT     H248117   2.573   4.084   7.049
15959WAT      O48118   6.680   7.929   8.427
15959WAT     H148119   6.597   7.932   8.482
15959WAT     H248120   6.669   7.987   8.347
15960WAT      O48121   7.191   5.963   0.762
15960WAT     H148122   7.274   5.977   0.817
15960WAT     H248123   7.133   6.044   0.769
15961WAT      O48124   8.068   5.716   8.794
15961WAT     H148125   8.157   5.672   8.778
15961WAT     H248126   8.029   5.745   8.706
15962WAT      O48127   4.238   0.442   8.018
15962WAT     H148128   4.141   0.449   8.041
15962WAT     H248129   4.273   0.532   7.995
15963WAT      O48130   4.261   8.938   6.319
15963WAT     H148131   4.318   9.009   6.277
15963WAT     H248132   4.281   8.933   6.417
15964WAT      O48133   3.144   9.682   0.083
15964WAT     H148134   3.239   9.670   0.112
15964WAT     H248135   3.112   9.598   0.039
15965WAT      O48136   8.500   0.308   7.070
15965WAT     H148137   8.435   0.350   7.133
15965WAT     H248138   8.585   0.288   7.118
15966WAT      O48139   0.054   0.505   7.802
15966WAT     H148140  -0.034   0.513   7.756
15966WAT     H248141   0.094   0.415   7.782
15967WAT      O48142   9.727   4.679   9.830
15967WAT     H148143   9.740   4.682   9.929
15967WAT     H248144   9.740   4.586   9.797
15968WAT      O48145   8.358   0.011   4.087
15968WAT     H148146   8.315  -0.017   4.173
15968WAT     H248147   8.371  -0.070   4.030
15969WAT      O48148   2.742   1.581   7.184
15969WAT     H148149   2.706   1.640   7.111
15969WAT     H248150   2.689   1.496   7.188
15970WAT      O48151   7.964   9.237   3.583
15970WAT     H148152   8.060   9.207   3.582
15970WAT     H248153   7.904   9.158   3.591
15971WAT      O48154   2.575   0.841   8.166
15971WAT     H148155   2.660   0.790   8.170
15971WAT     H248156   2.574   0.901   8.086
15972WAT      O48157   1.166   0.671   2.055
15972WAT     H148158   1.263   0.660   2.032
15972WAT     H248159   1.130   0.754   2.012
15973WAT      O48160   8.166   9.419   2.589
15973WAT     H148161   8.194   9.504   2.546
15973WAT     H248162   8.225   9.344   2.558
15974WAT      O48163   7.725   2.761   3.353
15974WAT     H148164   7.642   2.805   3.318
15974WAT     H248165   7.792   2.754   3.279
15975WAT      O48166   1.441   0.036   7.189
15975WAT     H148167   1.541   0.038   7.180
15975WAT     H248168   1.409   0.126   7.215
15976WAT      O48169   7.910   6.113   4.484
15976WAT     H148170   7.873   6.117   4.391
15976WAT     H248171   8.003   6.149   4.485
15977WAT      O48172   8.024   6.533   2.405
15977WAT     H148173   8.051   6.528   2.502
15977WAT     H248174   7.930   6.502   2.395
15978WAT      O48175   2.803   1.543   6.132
15978WAT     H148176   2.891   1.528   6.177
15978WAT     H248177   2.783   1.641   6.129
15979WAT      O48178   6.864   1.146   0.485
15979WAT     H148179   6.857   1.160   0.584
15979WAT     H248180   6.958   1.166   0.455
15980WAT      O48181   7.361   7.544   5.252
15980WAT     H148182   7.309   7.604   5.192
15980WAT     H248183   7.435   7.502   5.201
15981WAT      O48184   0.522   7.052   2.677
15981WAT     H148185   0.520   7.125   2.609
15981WAT     H248186   0.490   6.967   2.635
15982WAT      O48187   6.679   8.556   0.072
15982WAT     H148188   6.686   8.473   0.128
15982WAT     H248189   6.709   8.635   0.125
15983WAT      O48190   5.603   9.388   7.914
15983WAT     H148191   5.663   9.358   7.988
15983WAT     H248192   5.507   9.380   7.943
15984WAT      O48193   2.555   4.499   9.300
15984WAT     H148194   2.528   4.532   9.390
15984WAT     H248195   2.655   4.496   9.295
15985WAT      O48196   1.616   5.302   6.896
15985WAT     H148197   1.707   5.345   6.891
15985WAT     H248198   1.600   5.269   6.989
15986WAT      O48199   5.334   1.691   0.134
15986WAT     H148200   5.385   1.735   0.208
15986WAT     H248201   5.336   1.749   0.053
15987WAT      O48202   6.553   2.546   2.509
15987WAT     H148203   6.565   2.464   2.452
15987WAT     H248204   6.480   2.603   2.472
15988WAT      O48205   4.280   7.779   1.702
15988WAT     H148206   4.241   7.743   1.617
15988WAT     H248207   4.305   7.704   1.762
15989WAT      O48208   1.430   0.657   7.691
15989WAT     H148209   1.367   0.581   7.676
15989WAT     H248210   1.523   0.628   7.668
15990WAT      O48211   0.808   3.425   9.010
15990WAT     H148212   0.875   3.466   8.948
15990WAT     H248213   0.844   3.424   9.103
15991WAT      O48214   6.230   0.284   0.526
15991WAT     H148215   6.305   0.289   0.592
15991WAT     H248216   6.191   0.192   0.527
15992WAT      O48217   6.403   6.889   6.694
15992WAT     H148218   6.350   6.902   6.778
15992WAT     H248219   6.455   6.972   6.675
15993WAT      O48220   4.642   6.936   8.140
15993WAT     H148221   4.677   7.025   8.169
15993WAT     H248222   4.546   6.945   8.114
15994WAT      O48223   2.244   9.013   4.698
15994WAT     H148224   2.172   8.979   4.759
15994WAT     H248225   2.262   8.946   4.626
15995WAT      O48226   5.166   8.742   6.640
15995WAT     H148227   5.099   8.701   6.578
15995WAT     H248228   5.121   8.769   6.724
15996WAT      O48229   2.546   9.674   5.066
15996WAT     H148230   2.523   9.731   4.988
15996WAT     H248231   2.463   9.649   5.115
15997WAT      O48232   2.731   5.487   1.575
15997WAT     H148233   2.787   5.539   1.511
15997WAT     H248234   2.787   5.454   1.650
15998WAT      O48235   3.810   7.464   7.842
15998WAT     H148236   3.776   7.382   7.795
15998WAT     H248237   3.788   7.458   7.939
15999WAT      O48238   0.441   2.855   6.762
15999WAT     H148239   0.357   2.814   6.798
15999WAT     H248240   0.485   2.910   6.833
16000WAT      O48241   7.975   0.575   7.209
16000WAT     H148242   7.895   0.628   7.180
16000WAT     H248243   7.978   0.489   7.159
16001WAT      O48244   7.044   4.050   1.619
16001WAT     H148245   6.984   3.994   1.677
16001WAT     H248246   7.135   4.008   1.616
16002WAT      O48247   7.905   9.362   8.955
16002WAT     H148248   7.983   9.373   8.893
16002WAT     H248249   7.830   9.421   8.924
16003WAT      O48250   6.965   6.716   8.991
16003WAT     H148251   6.929   6.635   9.037
16003WAT     H248252   7.064   6.706   8.979
16004WAT      O48253   4.681   4.433   6.192
16004WAT     H148254   4.772   4.472   6.206
16004WAT     H248255   4.673   4.403   6.097
16005WAT      O48256   6.918   2.677   0.958
16005WAT     H148257   6.894   2.670   0.861
16005WAT     H248258   6.884   2.764   0.994
16006WAT      O48259   9.244   7.099   2.822
16006WAT     H148260   9.208   7.082   2.730
16006WAT     H248261   9.296   7.184   2.822
16007WAT      O48262   7.263   5.419   4.849
16007WAT     H148263   7.167   5.444   4.838
16007WAT     H248264   7.285   5.342   4.789
16008WAT      O48265   3.475   3.822   5.719
16008WAT     H148266   3.466   3.884   5.642
16008WAT     H248267   3.496   3.873   5.802
16009WAT      O48268   7.845   5.464   2.558
16009WAT     H148269   7.819   5.387   2.499
16009WAT     H248270   7.862   5.431   2.651
16010WAT      O48271   4.757   2.714   9.269
16010WAT     H148272   4.794   2.780   9.335
16010WAT     H248273   4.724   2.633   9.318
16011WAT      O48274   9.033   9.314   3.191
16011WAT     H148275   9.125   9.310   3.153
16011WAT     H248276   9.037   9.299   3.290
16012WAT      O48277   5.710   5.748   0.186
16012WAT     H148278   5.786   5.812   0.193
16012WAT     H248279   5.746   5.655   0.180
16013WAT      O48280   1.167   7.409   1.096
16013WAT     H148281   1.262   7.417   1.125
16013WAT     H248282   1.116   7.490   1.127
16014WAT      O48283   6.673   9.330   1.067
16014WAT     H148284   6.655   9.404   1.132
16014WAT     H248285   6.587   9.297   1.029
16015WAT      O48286   0.565   2.028   8.370
16015WAT     H148287   0.611   2.101   8.419
16015WAT     H248288   0.541   1.955   8.434
16016WAT      O48289   7.885   8.704   3.763
16016WAT     H148290   7.877   8.666   3.671
16016WAT     H248291   7.921   8.634   3.825
16017WAT      O48292   0.022   2.567   5.259
16017WAT     H148293   0.037   2.648   5.201
16017WAT     H248294   0.037   2.485   5.205
16018WAT      O48295   9.414   7.804   3.685
16018WAT     H148296   9.400   7.901   3.704
16018WAT     H248297   9.446   7.793   3.591
16019WAT      O48298   8.467   0.190   9.489
16019WAT     H148299   8.544   0.184   9.425
16019WAT     H248300   8.422   0.279   9.480
16020WAT      O48301   2.316   9.777   3.868
16020WAT     H148302   2.276   9.735   3.950
16020WAT     H248303   2.358   9.706   3.812
16021WAT      O48304   8.613   3.812   7.738
16021WAT     H148305   8.528   3.843   7.780
16021WAT     H248306   8.672   3.891   7.721
16022WAT      O48307   0.043   1.234   9.292
16022WAT     H148308   0.084   1.299   9.228
16022WAT     H248309  -0.047   1.207   9.258
16023WAT      O48310   7.306   5.467   7.979
16023WAT     H148311   7.316   5.566   7.981
16023WAT     H248312   7.377   5.428   7.919
16024WAT      O48313   6.401   1.107   1.124
16024WAT     H148314   6.328   1.039   1.115
16024WAT     H248315   6.360   1.198   1.136
16025WAT      O48316   8.847   7.497   0.942
16025WAT     H148317   8.756   7.508   0.981
16025WAT     H248318   8.890   7.587   0.931
16026WAT      O48319   6.812   5.617   9.470
16026WAT     H148320   6.742   5.637   9.539
16026WAT     H248321   6.890   5.678   9.483
16027WAT      O48322   3.056   8.346   9.758
16027WAT     H148323   3.056   8.380   9.852
16027WAT     H248324   2.994   8.268   9.751
16028WAT      O48325   9.505   4.669   7.761
16028WAT     H148326   9.593   4.655   7.715
16028WAT     H248327   9.466   4.757   7.732
16029WAT      O48328   8.169   3.184   0.199
16029WAT     H148329   8.119   3.107   0.239
16029WAT     H248330   8.255   3.197   0.249
16030WAT      O48331   5.785   3.428   6.499
16030WAT     H148332   5.806   3.374   6.580
16030WAT     H248333   5.864   3.429   6.438
16031WAT      O48334   2.059   2.570   7.416
16031WAT     H148335   2.140   2.572   7.474
16031WAT     H248336   2.086   2.557   7.320
16032WAT      O48337   9.215   8.152   1.406
16032WAT     H148338   9.240   8.121   1.498
16032WAT     H248339   9.191   8.249   1.410
16033WAT      O48340   0.838   3.854   2.990
16033WAT     H148341   0.807   3.833   3.083
16033WAT     H248342   0.929   3.814   2.976
16034WAT      O48343   3.962   3.805   3.921
16034WAT     H148344   3.969   3.758   3.833
16034WAT     H248345   3.874   3.853   3.926
16035WAT      O48346   1.018   9.460   2.421
16035WAT     H148347   0.993   9.520   2.497
16035WAT     H248348   0.977   9.370   2.434
16036WAT      O48349   7.005   4.306   6.144
16036WAT     H148350   7.025   4.330   6.048
16036WAT     H248351   6.917   4.345   6.170
16037WAT      O48352   4.453   4.388   7.113
16037WAT     H148353   4.417   4.329   7.041
16037WAT     H248354   4.551   4.373   7.123
16038WAT      O48355   1.417   9.382   6.995
16038WAT     H148356   1.514   9.398   6.974
16038WAT     H248357   1.410   9.309   7.063
16039WAT      O48358   8.709   6.073   7.573
16039WAT     H148359   8.749   6.155   7.532
16039WAT     H248360   8.698   6.003   7.503
16040WAT      O48361   7.644   7.587   4.229
16040WAT     H148362   7.732   7.542   4.239
16040WAT     H248363   7.641   7.670   4.286
16041WAT      O48364   0.945   6.714   0.523
16041WAT     H148365   0.863   6.689   0.575
16041WAT     H248366   1.008   6.764   0.583
16042WAT      O48367   0.774   3.902   9.004
16042WAT     H148368   0.691   3.846   9.008
16042WAT     H248369   0.768   3.974   9.074
16043WAT      O48370   5.565   9.102   5.661
16043WAT     H148371   5.529   9.188   5.628
16043WAT     H248372   5.664   9.108   5.670
16044WAT      O48373   8.906   6.108   7.759
16044WAT     H148374   8.943   6.190   7.715
16044WAT     H248375   8.824   6.078   7.710
16045WAT      O48376   2.886   1.674   1.913
16045WAT     H148377   2.942   1.756   1.915
16045WAT     H248378   2.882   1.639   1.819
16046WAT      O48379   1.603   3.092   5.883
16046WAT     H148380   1.526   3.147   5.852
16046WAT     H248381   1.689   3.134   5.853
16047WAT      O48382   1.863   4.282   7.323
16047WAT     H148383   1.835   4.368   7.367
16047WAT     H248384   1.783   4.237   7.284
16048WAT      O48385   9.272   3.474   6.018
16048WAT     H148386   9.182   3.432   6.004
16048WAT     H248387   9.259   3.568   6.051
16049WAT      O48388   4.138   4.682   4.220
16049WAT     H148389   4.161   4.725   4.308
16049WAT     H248390   4.061   4.620   4.232
16050WAT      O48391   5.549   8.455   3.492
16050WAT     H148392   5.575   8.484   3.584
16050WAT     H248393   5.520   8.360   3.493
16051WAT      O48394   8.276   9.498   7.140
16051WAT     H148395   8.209   9.526   7.072
16051WAT     H248396   8.246   9.527   7.231
16052WAT      O48397   4.524   1.138   8.096
16052WAT     H148398   4.424   1.133   8.103
16052WAT     H248399   4.560   1.193   8.171
16053WAT      O48400   2.294   4.604   0.719
16053WAT     H148401   2.321   4.508   0.713
16053WAT     H248402   2.356   4.652   0.782
16054WAT      O48403   7.815   1.917   1.002
16054WAT     H148404   7.826   2.015   0.987
16054WAT     H248405   7.897   1.869   0.970
16055WAT      O48406   3.994   4.377   7.578
16055WAT     H148407   4.040   4.324   7.506
16055WAT     H248408   3.970   4.467   7.543
16056WAT      O48409   3.579   8.388   1.969
16056WAT     H148410   3.653   8.433   2.020
16056WAT     H248411   3.568   8.432   1.880
16057WAT      O48412   8.460   8.940   6.917
16057WAT     H148413   8.417   8.856   6.949
16057WAT     H248414   8.417   8.968   6.831
16058WAT      O48415   2.715   1.898   8.897
16058WAT     H148416   2.768   1.896   8.982
16058WAT     H248417   2.637   1.836   8.906
16059WAT      O48418   4.793   7.736   8.327
16059WAT     H148419   4.708   7.730   8.380
16059WAT     H248420   4.817   7.833   8.315
16060WAT      O48421   4.959   9.249   7.004
16060WAT     H148422   5.020   9.327   6.999
16060WAT     H248423   5.012   9.164   6.999
16061WAT      O48424   3.603   7.546   4.005
16061WAT     H148425   3.623   7.641   3.985
16061WAT     H248426   3.568   7.538   4.099
16062WAT      O48427   1.317   1.264   9.582
16062WAT     H148428   1.415   1.248   9.572
16062WAT     H248429   1.298   1.362   9.577
16063WAT      O48430   2.725   0.827   0.870
16063WAT     H148431   2.732   0.812   0.771
16063WAT     H248432   2.768   0.750   0.918
16064WAT      O48433   9.352   6.020   2.934
16064WAT     H148434   9.333   5.997   3.030
16064WAT     H248435   9.436   5.974   2.905
16065WAT      O48436   3.055   3.323   2.816
16065WAT     H148437   3.024   3.414   2.843
16065WAT     H248438   3.129   3.331   2.750
16066WAT      O48439   8.875   5.592   6.139
16066WAT     H148440   8.865   5.521   6.069
16066WAT     H248441   8.826   5.564   6.222
16067WAT      O48442   9.121   0.911   9.565
16067WAT     H148443   9.099   0.849   9.490
16067WAT     H248444   9.153   0.998   9.528
16068WAT      O48445   6.273   1.869   3.482
16068WAT     H148446   6.365   1.904   3.468
16068WAT     H248447   6.276   1.790   3.544
16069WAT      O48448   5.917   7.062   5.941
16069WAT     H148449   6.005   7.023   5.967
16069WAT     H248450   5.843   7.002   5.971
16070WAT      O48451   2.830   3.710   1.363
16070WAT     H148452   2.747   3.749   1.323
16070WAT     H248453   2.908   3.729   1.302
16071WAT      O48454   8.593   4.397   0.597
16071WAT     H148455   8.538   4.329   0.645
16071WAT     H248456   8.565   4.402   0.501
16072WAT      O48457   2.515   2.802   6.803
16072WAT     H148458   2.513   2.820   6.705
16072WAT     H248459   2.610   2.786   6.832
16073WAT      O48460   4.948   8.523   0.787
16073WAT     H148461   4.969   8.426   0.774
16073WAT     H248462   5.025   8.578   0.755
16074WAT      O48463   1.072   0.625   7.290
16074WAT     H148464   0.973   0.611   7.283
16074WAT     H248465   1.091   0.697   7.357
16075WAT      O48466   7.017   2.377   8.297
16075WAT     H148467   6.936   2.363   8.354
16075WAT     H248468   7.073   2.449   8.336
16076WAT      O48469   0.924   7.328   8.120
16076WAT     H148470   0.961   7.407   8.072
16076WAT     H248471   0.998   7.280   8.168
16077WAT      O48472   8.510   4.964   0.611
16077WAT     H148473   8.443   4.911   0.559
16077WAT     H248474   8.595   4.913   0.618
16078WAT      O48475   9.053   5.932   7.350
16078WAT     H148476   9.108   5.991   7.409
16078WAT     H248477   8.993   5.989   7.293
16079WAT      O48478   2.336   6.984   4.397
16079WAT     H148479   2.412   7.020   4.341
16079WAT     H248480   2.357   6.997   4.494
16080WAT      O48481   4.822   2.785   8.782
16080WAT     H148482   4.748   2.829   8.834
16080WAT     H248483   4.783   2.731   8.708
16081WAT      O48484   8.090   7.042   4.514
16081WAT     H148485   8.157   6.992   4.458
16081WAT     H248486   8.016   7.075   4.456
16082WAT      O48487   9.587   2.468   7.289
16082WAT     H148488   9.670   2.432   7.330
16082WAT     H248489   9.603   2.561   7.256
16083WAT      O48490   5.676   5.448   8.888
16083WAT     H148491   5.758   5.416   8.840
16083WAT     H248492   5.703   5.504   8.966
16084WAT      O48493   0.176   2.611   9.562
16084WAT     H148494   0.222   2.527   9.592
16084WAT     H248495   0.241   2.687   9.561
16085WAT      O48496   3.400   2.081   4.720
16085WAT     H148497   3.473   2.020   4.690
16085WAT     H248498   3.439   2.166   4.755
16086WAT      O48499   6.228   6.084   6.629
16086WAT     H148500   6.270   6.161   6.581
16086WAT     H248501   6.262   6.082   6.723
16087WAT      O48502   2.966   0.624   6.373
16087WAT     H148503   2.889   0.578   6.416
16087WAT     H248504   3.034   0.556   6.345
16088WAT      O48505   4.946   3.053   6.040
16088WAT     H148506   4.866   3.065   6.097
16088WAT     H248507   4.920   3.056   5.944
16089WAT      O48508   4.722   8.020   6.945
16089WAT     H148509   4.667   8.058   6.870
16089WAT     H248510   4.809   7.986   6.909
16090WAT      O48511   8.347   0.707   4.291
16090WAT     H148512   8.326   0.793   4.336
16090WAT     H248513   8.435   0.714   4.244
16091WAT      O48514   1.611   6.387   3.737
16091WAT     H148515   1.593   6.400   3.639
16091WAT     H248516   1.696   6.336   3.749
16092WAT      O48517   4.060   9.278   1.449
16092WAT     H148518   4.059   9.330   1.364
16092WAT     H248519   4.129   9.316   1.511
16093WAT      O48520   4.214   5.893   8.353
16093WAT     H148521   4.140   5.916   8.290
16093WAT     H248522   4.302   5.923   8.315
16094WAT      O48523   8.940   6.666   8.921
16094WAT     H148524   8.846   6.630   8.917
16094WAT     H248525   8.938   6.757   8.963
16095WAT      O48526   0.763   8.875   7.308
16095WAT     H148527   0.750   8.955   7.249
16095WAT     H248528   0.709   8.887   7.392
16096WAT      O48529   5.678   1.174   7.361
16096WAT     H148530   5.652   1.157   7.456
16096WAT     H248531   5.709   1.089   7.319
16097WAT      O48532   4.879   5.379   1.607
16097WAT     H148533   4.793   5.421   1.636
16097WAT     H248534   4.951   5.448   1.608
16098WAT      O48535   4.839   3.698   9.406
16098WAT     H148536   4.757   3.646   9.431
16098WAT     H248537   4.825   3.741   9.317
16099WAT      O48538   0.214   2.745   6.951
16099WAT     H148539   0.170   2.672   6.898
16099WAT     H248540   0.146   2.791   7.007
16100WAT      O48541   9.094   6.216   3.161
16100WAT     H148542   9.012   6.159   3.159
16100WAT     H248543   9.173   6.158   3.182
16101WAT      O48544   8.113   0.244   8.243
16101WAT     H148545   8.115   0.235   8.143
16101WAT     H248546   8.027   0.205   8.277
16102WAT      O48547   4.144   1.910   7.415
16102WAT     H148548   4.105   1.850   7.485
16102WAT     H248549   4.193   1.985   7.459
16103WAT      O48550   8.128   6.417   0.645
16103WAT     H148551   8.161   6.496   0.594
16103WAT     H248552   8.106   6.343   0.580
16104WAT      O48553   5.478   7.836   8.359
16104WAT     H148554   5.478   7.850   8.458
16104WAT     H248555   5.386   7.854   8.324
16105WAT      O48556   4.192   6.827   0.082
16105WAT     H148557   4.265   6.806   0.017
16105WAT     H248558   4.122   6.755   0.077
16106WAT      O48559   8.959   1.036   6.636
16106WAT     H148560   8.916   0.968   6.695
16106WAT     H248561   8.932   1.019   6.541
16107WAT      O48562   6.867   9.327   8.031
16107WAT     H148563   6.956   9.371   8.037
16107WAT     H248564   6.859   9.277   7.945
16108WAT      O48565   2.159   8.083   9.799
16108WAT     H148566   2.235   8.041   9.849
16108WAT     H248567   2.113   8.150   9.857
16109WAT      O48568   7.966   6.539   3.251
16109WAT     H148569   7.984   6.620   3.195
16109WAT     H248570   8.053   6.505   3.288
16110WAT      O48571   5.669   3.661   8.981
16110WAT     H148572   5.659   3.724   8.903
16110WAT     H248573   5.582   3.655   9.030
16111WAT      O48574   9.356   1.392   6.092
16111WAT     H148575   9.428   1.343   6.141
16111WAT     H248576   9.371   1.490   6.100
16112WAT      O48577   9.092   7.721   0.657
16112WAT     H148578   9.056   7.727   0.750
16112WAT     H248579   9.027   7.763   0.593
16113WAT      O48580   5.019   4.004   0.978
16113WAT     H148581   5.074   3.935   1.025
16113WAT     H248582   4.953   4.042   1.043
16114WAT      O48583   3.266   1.828   2.227
16114WAT     H148584   3.322   1.825   2.310
16114WAT     H248585   3.189   1.765   2.237
16115WAT      O48586   9.214   2.771   3.724
16115WAT     H148587   9.214   2.859   3.677
16115WAT     H248588   9.164   2.779   3.810
16116WAT      O48589   6.319   4.266   4.834
16116WAT     H148590   6.283   4.186   4.882
16116WAT     H248591   6.256   4.292   4.761
16117WAT      O48592   5.750   2.343   8.329
16117WAT     H148593   5.668   2.293   8.300
16117WAT     H248594   5.752   2.347   8.429
16118WAT      O48595   6.342   3.289   4.143
16118WAT     H148596   6.325   3.215   4.079
16118WAT     H248597   6.434   3.325   4.129
16119WAT      O48598   1.443   5.230   4.152
16119WAT     H148599   1.483   5.139   4.148
16119WAT     H248600   1.508   5.294   4.192
16120WAT      O48601   1.863   5.402   6.940
16120WAT     H148602   1.876   5.336   7.013
16120WAT     H248603   1.942   5.463   6.935
16121WAT      O48604   4.813   9.214   8.954
16121WAT     H148605   4.738   9.280   8.954
16121WAT     H248606   4.818   9.171   9.044
16122WAT      O48607   0.074   0.051   7.562
16122WAT     H148608   0.116   0.124   7.509
16122WAT     H248609  -0.026   0.062   7.561
16123WAT      O48610   1.538   1.158   7.649
16123WAT     H148611   1.618   1.100   7.639
16123WAT     H248612   1.485   1.130   7.729
16124WAT      O48613   1.084   7.474   5.935
16124WAT     H148614   1.036   7.421   6.005
16124WAT     H248615   1.173   7.432   5.916
16125WAT      O48616   5.521   4.204   8.156
16125WAT     H148617   5.600   4.264   8.169
16125WAT     H248618   5.495   4.205   8.060
16126WAT      O48619   2.516   8.795   3.103
16126WAT     H148620   2.457   8.752   3.035
16126WAT     H248621   2.580   8.727   3.139
16127WAT      O48622   0.357   1.443   5.733
16127WAT     H148623   0.335   1.347   5.750
16127WAT     H248624   0.385   1.486   5.818
16128WAT      O48625   9.115   2.802   6.679
16128WAT     H148626   9.169   2.717   6.684
16128WAT     H248627   9.115   2.847   6.768
16129WAT      O48628   9.286   0.802   5.275
16129WAT     H148629   9.216   0.774   5.340
16129WAT     H248630   9.309   0.726   5.215
16130WAT      O48631   4.111   1.422   0.406
16130WAT     H148632   4.043   1.404   0.335
16130WAT     H248633   4.068   1.414   0.496
16131WAT      O48634   1.531   0.910   8.808
16131WAT     H148635   1.453   0.849   8.824
16131WAT     H248636   1.499   1.002   8.789
16132WAT      O48637   7.921   1.444   1.858
16132WAT     H148638   7.948   1.508   1.930
16132WAT     H248639   7.980   1.456   1.778
16133WAT      O48640   5.470   1.173   3.032
16133WAT     H148641   5.566   1.180   3.004
16133WAT     H248642   5.462   1.192   3.130
16134WAT      O48643   4.799   9.230   1.494
16134WAT     H148644   4.862   9.211   1.419
16134WAT     H248645   4.765   9.143   1.531
16135WAT      O48646   2.742   8.093   2.987
16135WAT     H148647   2.790   8.179   2.974
16135WAT     H248648   2.808   8.018   2.992
16136WAT      O48649   4.190   2.999   9.388
16136WAT     H148650   4.189   2.903   9.416
16136WAT     H248651   4.165   3.057   9.466
16137WAT      O48652   3.075   3.310   4.431
16137WAT     H148653   2.999   3.286   4.371
16137WAT     H248654   3.152   3.248   4.414
16138WAT      O48655   0.312   5.883   2.586
16138WAT     H148656   0.387   5.841   2.637
16138WAT     H248657   0.249   5.928   2.650
16139WAT      O48658   0.269   0.430   8.714
16139WAT     H148659   0.252   0.499   8.643
16139WAT     H248660   0.186   0.377   8.729
16140WAT      O48661   6.951   6.478   4.169
16140WAT     H148662   6.937   6.420   4.088
16140WAT     H248663   6.970   6.572   4.139
16141WAT      O48664   9.303   8.592   0.563
16141WAT     H148665   9.215   8.637   0.553
16141WAT     H248666   9.376   8.656   0.540
16142WAT      O48667   8.921   0.177   4.133
16142WAT     H148668   8.888   0.271   4.127
16142WAT     H248669   8.877   0.121   4.062
16143WAT      O48670   5.055   7.210   7.059
16143WAT     H148671   5.008   7.228   6.972
16143WAT     H248672   5.110   7.127   7.051
16144WAT      O48673   9.212   3.918   9.044
16144WAT     H148674   9.219   3.861   9.126
16144WAT     H248675   9.198   3.860   8.964
16145WAT      O48676   1.750   8.785   4.734
16145WAT     H148677   1.808   8.728   4.792
16145WAT     H248678   1.672   8.817   4.787
16146WAT      O48679   6.917   9.320   8.828
16146WAT     H148680   6.859   9.359   8.756
16146WAT     H248681   7.009   9.303   8.791
16147WAT      O48682   4.073   9.230   0.048
16147WAT     H148683   4.003   9.302   0.052
16147WAT     H248684   4.074   9.179   0.134
16148WAT      O48685   8.806   3.741   3.929
16148WAT     H148686   8.765   3.768   4.016
16148WAT     H248687   8.904   3.762   3.930
16149WAT      O48688   1.014   9.331   6.397
16149WAT     H148689   1.044   9.278   6.476
16149WAT     H248690   0.974   9.417   6.428
16150WAT      O48691   4.057   4.249   4.091
16150WAT     H148692   4.095   4.280   4.178
16150WAT     H248693   4.058   4.150   4.087
16151WAT      O48694   0.114   1.583   2.834
16151WAT     H148695   0.212   1.592   2.816
16151WAT     H248696   0.096   1.599   2.931
16152WAT      O48697   7.905   1.985   8.090
16152WAT     H148698   7.842   1.954   8.019
16152WAT     H248699   7.989   1.931   8.087
16153WAT      O48700   6.815   2.483   2.298
16153WAT     H148701   6.878   2.407   2.312
16153WAT     H248702   6.846   2.562   2.351
16154WAT      O48703   0.978   1.105   3.693
16154WAT     H148704   1.045   1.093   3.766
16154WAT     H248705   0.902   1.161   3.725
16155WAT      O48706   9.839   8.961   0.821
16155WAT     H148707   9.786   8.879   0.842
16155WAT     H248708   9.925   8.959   0.871
16156WAT      O48709   7.981   7.035   7.900
16156WAT     H148710   8.075   7.049   7.867
16156WAT     H248711   7.982   6.973   7.978
16157WAT      O48712   9.047   8.846   7.331
16157WAT     H148713   8.982   8.884   7.266
16157WAT     H248714   9.032   8.748   7.341
16158WAT      O48715   0.021   9.064   0.178
16158WAT     H148716   0.031   9.155   0.138
16158WAT     H248717   0.089   9.003   0.139
16159WAT      O48718   9.523   3.593   2.086
16159WAT     H148719   9.601   3.646   2.118
16159WAT     H248720   9.444   3.613   2.144
16160WAT      O48721   7.808   5.790   2.920
16160WAT     H148722   7.721   5.749   2.894
16160WAT     H248723   7.882   5.748   2.867
16161WAT      O48724   6.170   6.326   3.076
16161WAT     H148725   6.105   6.282   3.138
16161WAT     H248726   6.168   6.425   3.091
16162WAT      O48727   2.084   1.814   1.918
16162WAT     H148728   2.041   1.797   2.006
16162WAT     H248729   2.016   1.845   1.852
16163WAT      O48730   1.578   4.895   7.075
16163WAT     H148731   1.591   4.869   7.171
16163WAT     H248732   1.483   4.878   7.049
16164WAT      O48733   5.861   0.677   1.482
16164WAT     H148734   5.876   0.579   1.492
16164WAT     H248735   5.929   0.715   1.419
16165WAT      O48736   7.176   2.916   4.712
16165WAT     H148737   7.123   2.885   4.791
16165WAT     H248738   7.214   2.836   4.664
16166WAT      O48739   0.170   8.315   4.930
16166WAT     H148740   0.096   8.311   4.997
16166WAT     H248741   0.135   8.288   4.840
16167WAT      O48742   5.330   3.464   4.215
16167WAT     H148743   5.319   3.388   4.151
16167WAT     H248744   5.304   3.550   4.171
16168WAT      O48745   0.004   3.350   7.338
16168WAT     H148746   0.055   3.430   7.306
16168WAT     H248747   0.019   3.273   7.275
16169WAT      O48748   4.465   4.361   9.325
16169WAT     H148749   4.510   4.291   9.269
16169WAT     H248750   4.366   4.349   9.319
16170WAT      O48751   3.860   9.436   8.323
16170WAT     H148752   3.859   9.490   8.239
16170WAT     H248753   3.949   9.391   8.332
16171WAT      O48754   6.954   4.576   3.444
16171WAT     H148755   6.887   4.542   3.509
16171WAT     H248756   7.042   4.588   3.491
16172WAT      O48757   5.313   8.085   1.688
16172WAT     H148758   5.271   7.994   1.688
16172WAT     H248759   5.401   8.081   1.641
16173WAT      O48760   9.013   2.664   2.414
16173WAT     H148761   8.996   2.607   2.333
16173WAT     H248762   8.927   2.676   2.464
16174WAT      O48763   2.675   3.757   9.560
16174WAT     H148764   2.611   3.734   9.486
16174WAT     H248765   2.762   3.787   9.521
16175WAT      O48766   8.494   1.674   3.010
16175WAT     H148767   8.583   1.630   2.995
16175WAT     H248768   8.507   1.770   3.032
16176WAT      O48769   0.453   4.022   8.381
16176WAT     H148770   0.364   4.017   8.337
16176WAT     H248771   0.505   4.098   8.343
16177WAT      O48772   4.156   1.563   8.105
16177WAT     H148773   4.157   1.482   8.046
16177WAT     H248774   4.062   1.585   8.129
16178WAT      O48775   9.495   2.158   1.460
16178WAT     H148776   9.558   2.230   1.431
16178WAT     H248777   9.401   2.183   1.436
16179WAT      O48778   9.058   2.691   6.405
16179WAT     H148779   9.112   2.752   6.463
16179WAT     H248780   8.994   2.640   6.462
16180WAT      O48781   7.896   2.150   7.628
16180WAT     H148782   7.905   2.050   7.625
16180WAT     H248783   7.935   2.183   7.714
16181WAT      O48784   2.511   0.127   4.238
16181WAT     H148785   2.526   0.212   4.288
16181WAT     H248786   2.547   0.050   4.290
16182WAT      O48787   5.041   8.554   7.364
16182WAT     H148788   5.007   8.535   7.455
16182WAT     H248789   5.134   8.518   7.355
16183WAT      O48790   0.508   8.053   0.763
16183WAT     H148791   0.441   8.065   0.836
16183WAT     H248792   0.559   7.968   0.778
16184WAT      O48793   3.427   5.211   0.429
16184WAT     H148794   3.382   5.240   0.345
16184WAT     H248795   3.408   5.114   0.446
16185WAT      O48796   2.200   4.043   3.202
16185WAT     H148797   2.146   4.086   3.129
16185WAT     H248798   2.279   4.100   3.223
16186WAT      O48799   5.706   9.521   0.475
16186WAT     H148800   5.769   9.502   0.399
16186WAT     H248801   5.633   9.581   0.443
16187WAT      O48802   6.674   9.085   4.761
16187WAT     H148803   6.660   9.109   4.664
16187WAT     H248804   6.760   9.035   4.771
16188WAT      O48805   1.926   2.133   2.728
16188WAT     H148806   1.851   2.199   2.734
16188WAT     H248807   1.898   2.056   2.671
16189WAT      O48808   9.239   9.627   1.098
16189WAT     H148809   9.204   9.713   1.136
16189WAT     H248810   9.207   9.617   1.003
16190WAT      O48811   2.370   8.537   1.539
16190WAT     H148812   2.382   8.438   1.527
16190WAT     H248813   2.281   8.555   1.579
16191WAT      O48814   7.270   8.148   4.384
16191WAT     H148815   7.298   8.243   4.371
16191WAT     H248816   7.274   8.099   4.297
16192WAT      O48817   8.943   0.187   3.024
16192WAT     H148818   8.843   0.186   3.028
16192WAT     H248819   8.977   0.094   3.007
16193WAT      O48820   1.373   4.994   7.428
16193WAT     H148821   1.375   4.937   7.510
16193WAT     H248822   1.448   4.968   7.367
16194WAT      O48823   1.515   5.993   6.632
16194WAT     H148824   1.518   6.008   6.533
16194WAT     H248825   1.478   5.902   6.651
16195WAT      O48826   1.723   8.669   3.850
16195WAT     H148827   1.661   8.596   3.823
16195WAT     H248828   1.678   8.757   3.839
16196WAT      O48829   1.243   6.184   9.332
16196WAT     H148830   1.285   6.195   9.242
16196WAT     H248831   1.258   6.266   9.386
16197WAT      O48832   2.728   5.597   3.880
16197WAT     H148833   2.629   5.595   3.893
16197WAT     H248834   2.763   5.687   3.904
16198WAT      O48835   3.412   6.608   1.886
16198WAT     H148836   3.424   6.683   1.821
16198WAT     H248837   3.327   6.622   1.937
16199WAT      O48838   5.937   5.873   2.686
16199WAT     H148839   5.874   5.934   2.734
16199WAT     H248840   5.935   5.894   2.588
16200WAT      O48841   0.840   5.434   0.128
16200WAT     H148842   0.800   5.349   0.095
16200WAT     H248843   0.839   5.502   0.055
16201WAT      O48844   7.515   9.283   3.474
16201WAT     H148845   7.539   9.248   3.565
16201WAT     H248846   7.423   9.252   3.450
16202WAT      O48847   5.608   4.479   8.500
16202WAT     H148848   5.543   4.411   8.533
16202WAT     H248849   5.566   4.570   8.502
16203WAT      O48850   8.568   4.699   9.168
16203WAT     H148851   8.658   4.701   9.125
16203WAT     H248852   8.573   4.645   9.253
16204WAT      O48853   2.929   7.811   8.936
16204WAT     H148854   2.888   7.791   9.025
16204WAT     H248855   2.979   7.897   8.941
16205WAT      O48856   1.126   0.292   2.881
16205WAT     H148857   1.222   0.270   2.863
16205WAT     H248858   1.092   0.236   2.956
16206WAT      O48859   0.569   1.801   1.948
16206WAT     H148860   0.650   1.860   1.956
16206WAT     H248861   0.494   1.852   1.906
16207WAT      O48862   8.775   2.727   9.142
16207WAT     H148863   8.788   2.630   9.160
16207WAT     H248864   8.703   2.740   9.074
16208WAT      O48865   1.392   9.083   0.915
16208WAT     H148866   1.405   9.127   0.826
16208WAT     H248867   1.453   9.126   0.983
16209WAT      O48868   0.749   7.719   6.481
16209WAT     H148869   0.804   7.802   6.492
16209WAT     H248870   0.652   7.742   6.493
16210WAT      O48871   2.698   3.407   9.863
16210WAT     H148872   2.620   3.454   9.904
16210WAT     H248873   2.718   3.324   9.914
16211WAT      O48874   4.818   6.646   0.997
16211WAT     H148875   4.886   6.701   0.950
16211WAT     H248876   4.814   6.673   1.093
16212WAT      O48877   4.191   7.258   3.558
16212WAT     H148878   4.126   7.185   3.538
16212WAT     H248879   4.275   7.244   3.504
16213WAT      O48880   7.634   1.674   9.526
16213WAT     H148881   7.596   1.764   9.547
16213WAT     H248882   7.572   1.627   9.463
16214WAT      O48883   2.946   0.676   3.028
16214WAT     H148884   2.926   0.609   3.100
16214WAT     H248885   2.868   0.679   2.965
16215WAT      O48886   4.255   3.573   9.724
16215WAT     H148887   4.336   3.616   9.764
16215WAT     H248888   4.281   3.488   9.680
16216WAT      O48889   2.961   8.344   5.650
16216WAT     H148890   2.967   8.443   5.662
16216WAT     H248891   3.006   8.319   5.564
16217WAT      O48892   1.887   4.887   4.954
16217WAT     H148893   1.796   4.927   4.966
16217WAT     H248894   1.954   4.938   5.008
16218WAT      O48895   9.659   6.392   1.179
16218WAT     H148896   9.591   6.448   1.132
16218WAT     H248897   9.710   6.338   1.113
16219WAT      O48898   7.544   3.533   1.993
16219WAT     H148899   7.621   3.493   2.044
16219WAT     H248900   7.523   3.623   2.031
16220WAT      O48901   5.194   0.737   0.959
16220WAT     H148902   5.252   0.737   0.877
16220WAT     H248903   5.248   0.766   1.038
16221WAT      O48904   8.762   8.515   9.714
16221WAT     H148905   8.749   8.611   9.742
16221WAT     H248906   8.816   8.512   9.630
16222WAT      O48907   7.891   0.171   6.718
16222WAT     H148908   7.864   0.159   6.622
16222WAT     H248909   7.968   0.235   6.722
16223WAT      O48910   3.090   2.538   0.259
16223WAT     H148911   3.188   2.525   0.249
16223WAT     H248912   3.043   2.451   0.247
16224WAT      O48913   6.777   8.935   7.056
16224WAT     H148914   6.712   8.922   7.130
16224WAT     H248915   6.840   8.857   7.052
16225WAT      O48916   4.045   0.462   5.025
16225WAT     H148917   4.144   0.449   5.030
16225WAT     H248918   4.022   0.553   5.060
16226WAT      O48919   2.111   0.952   7.912
16226WAT     H148920   2.088   0.879   7.977
16226WAT     H248921   2.087   1.041   7.951
16227WAT      O48922   2.148   7.912   3.320
16227WAT     H148923   2.184   7.876   3.406
16227WAT     H248924   2.201   7.876   3.243
16228WAT      O48925   8.252   1.170   5.438
16228WAT     H148926   8.270   1.124   5.524
16228WAT     H248927   8.169   1.225   5.446
16229WAT      O48928   5.939   2.929   2.494
16229WAT     H148929   5.892   2.972   2.417
16229WAT     H248930   6.019   2.984   2.519
16230WAT      O48931   0.629   8.275   7.876
16230WAT     H148932   0.687   8.330   7.816
16230WAT     H248933   0.577   8.210   7.821
16231WAT      O48934   2.677   6.070   7.745
16231WAT     H148935   2.622   5.987   7.754
16231WAT     H248936   2.735   6.081   7.826
16232WAT      O48937   8.790   2.336   0.654
16232WAT     H148938   8.865   2.386   0.611
16232WAT     H248939   8.710   2.396   0.660
16233WAT      O48940   5.984   8.157   0.808
16233WAT     H148941   5.951   8.090   0.742
16233WAT     H248942   6.061   8.118   0.859
16234WAT      O48943   6.841   2.626   4.014
16234WAT     H148944   6.806   2.631   3.920
16234WAT     H248945   6.884   2.712   4.039
16235WAT      O48946   2.297   6.984   9.448
16235WAT     H148947   2.355   7.036   9.385
16235WAT     H248948   2.242   7.047   9.503
16236WAT      O48949   9.057   6.598   4.754
16236WAT     H148950   9.110   6.549   4.823
16236WAT     H248951   8.991   6.536   4.712
16237WAT      O48952   3.245   2.078   9.616
16237WAT     H148953   3.337   2.058   9.651
16237WAT     H248954   3.221   2.173   9.637
16238WAT      O48955   7.185   1.752   0.320
16238WAT     H148956   7.172   1.822   0.250
16238WAT     H248957   7.160   1.663   0.283
16239WAT      O48958   2.633   8.564   1.401
16239WAT     H148959   2.544   8.589   1.439
16239WAT     H248960   2.622   8.483   1.342
16240WAT      O48961   9.804   0.516   2.741
16240WAT     H148962   9.773   0.606   2.773
16240WAT     H248963   9.902   0.520   2.721
16241WAT      O48964   7.432   1.908   0.312
16241WAT     H148965   7.377   1.991   0.306
16241WAT     H248966   7.374   1.828   0.300
16242WAT      O48967   0.195   8.246   8.284
16242WAT     H148968   0.176   8.216   8.190
16242WAT     H248969   0.283   8.293   8.286
16243WAT      O48970   3.857   4.726   0.792
16243WAT     H148971   3.919   4.804   0.803
16243WAT     H248972   3.765   4.752   0.818
16244WAT      O48973   3.231   1.484   5.695
16244WAT     H148974   3.201   1.562   5.750
16244WAT     H248975   3.283   1.421   5.753
16245WAT      O48976   5.036   5.562   7.588
16245WAT     H148977   5.093   5.599   7.515
16245WAT     H248978   5.093   5.536   7.665
16246WAT      O48979   8.159   8.552   0.773
16246WAT     H148980   8.085   8.618   0.786
16246WAT     H248981   8.246   8.593   0.799
16247WAT      O48982   5.874   0.316   6.536
16247WAT     H148983   5.784   0.310   6.492
16247WAT     H248984   5.938   0.362   6.475
16248WAT      O48985   3.448   2.364   7.326
16248WAT     H148986   3.434   2.357   7.227
16248WAT     H248987   3.480   2.457   7.348
16249WAT      O48988   9.289   7.459   9.889
16249WAT     H148989   9.200   7.423   9.917
16249WAT     H248990   9.276   7.525   9.815
16250WAT      O48991   0.416   4.685   3.501
16250WAT     H148992   0.496   4.633   3.530
16250WAT     H248993   0.342   4.621   3.478
16251WAT      O48994   6.999   4.415   8.606
16251WAT     H148995   7.090   4.382   8.630
16251WAT     H248996   6.936   4.403   8.683
16252WAT      O48997   9.652   6.484   3.110
16252WAT     H148998   9.736   6.434   3.129
16252WAT     H248999   9.585   6.422   3.069
16253WAT      O49000   8.909   2.273   9.399
16253WAT     H149001   8.881   2.361   9.360
16253WAT     H249002   8.843   2.246   9.470
16254WAT      O49003   6.039   2.228   4.546
16254WAT     H149004   6.044   2.314   4.495
16254WAT     H249005   5.945   2.194   4.545
16255WAT      O49006   9.308   1.443   6.632
16255WAT     H149007   9.228   1.444   6.572
16255WAT     H249008   9.280   1.411   6.723
16256WAT      O49009   4.881   8.210   4.632
16256WAT     H149010   4.879   8.191   4.533
16256WAT     H249011   4.884   8.308   4.647
16257WAT      O49012   2.247   5.620   6.078
16257WAT     H149013   2.222   5.712   6.050
16257WAT     H249014   2.340   5.599   6.047
16258WAT      O49015   0.056   2.861   7.152
16258WAT     H149016   0.047   2.958   7.175
16258WAT     H249017   0.077   2.809   7.234
16259WAT      O49018   6.614   7.951   7.741
16259WAT     H149019   6.554   7.995   7.673
16259WAT     H249020   6.675   8.020   7.780
16260WAT      O49021   5.670   5.558   0.935
16260WAT     H149022   5.615   5.524   1.012
16260WAT     H249023   5.615   5.622   0.881
16261WAT      O49024   5.078   2.805   4.633
16261WAT     H149025   5.165   2.757   4.641
16261WAT     H249026   5.017   2.776   4.707
16262WAT      O49027   5.396   4.572   3.086
16262WAT     H149028   5.387   4.584   3.185
16262WAT     H249029   5.338   4.639   3.039
16263WAT      O49030   3.466   1.797   7.153
16263WAT     H149031   3.521   1.738   7.212
16263WAT     H249032   3.380   1.751   7.131
16264WAT      O49033   9.787   1.424   3.573
16264WAT     H149034   9.825   1.349   3.628
16264WAT     H249035   9.862   1.476   3.532
16265WAT      O49036   7.868   7.905   4.186
16265WAT     H149037   7.879   8.005   4.180
16265WAT     H249038   7.810   7.873   4.111
16266WAT      O49039   4.049   7.708   9.322
16266WAT     H149040   4.096   7.730   9.407
16266WAT     H249041   3.950   7.705   9.338
16267WAT      O49042   6.921   9.641   1.043
16267WAT     H149043   7.019   9.649   1.028
16267WAT     H249044   6.902   9.637   1.141
16268WAT      O49045   0.313   1.095   8.198
16268WAT     H149046   0.304   1.180   8.250
16268WAT     H249047   0.404   1.090   8.158
16269WAT      O49048   6.164   5.263   5.716
16269WAT     H149049   6.098   5.189   5.732
16269WAT     H249050   6.244   5.226   5.668
16270WAT      O49051   4.999   9.397   3.176
16270WAT     H149052   5.005   9.376   3.274
16270WAT     H249053   4.906   9.381   3.144
16271WAT      O49054   0.008   8.559   4.399
16271WAT     H149055  -0.024   8.464   4.396
16271WAT     H249056   0.009   8.591   4.493
16272WAT      O49057   3.446   1.237   0.591
16272WAT     H149058   3.522   1.189   0.547
16272WAT     H249059   3.412   1.309   0.531
16273WAT      O49060   7.872   5.871   2.567
16273WAT     H149061   7.932   5.823   2.632
16273WAT     H249062   7.871   5.969   2.588
16274WAT      O49063   1.913   5.190   6.726
16274WAT     H149064   1.898   5.241   6.810
16274WAT     H249065   1.901   5.092   6.743
16275WAT      O49066   8.644   7.043   9.130
16275WAT     H149067   8.631   6.995   9.217
16275WAT     H249068   8.730   7.014   9.089
16276WAT      O49069   3.781   1.378   8.092
16276WAT     H149070   3.687   1.412   8.102
16276WAT     H249071   3.808   1.328   8.174
16277WAT      O49072   5.475   4.703   8.530
16277WAT     H149073   5.535   4.773   8.491
16277WAT     H249074   5.449   4.730   8.622
16278WAT      O49075   3.489   4.942   3.833
16278WAT     H149076   3.401   4.989   3.827
16278WAT     H249077   3.552   4.982   3.767
16279WAT      O49078   1.633   2.905   3.292
16279WAT     H149079   1.544   2.883   3.252
16279WAT     H249080   1.620   2.970   3.368
16280WAT      O49081   6.985   5.206   1.662
16280WAT     H149082   6.982   5.242   1.755
16280WAT     H249083   6.924   5.127   1.655
16281WAT      O49084   9.297   2.750   1.922
16281WAT     H149085   9.287   2.816   1.996
16281WAT     H249086   9.224   2.764   1.854
16282WAT      O49087   9.687   0.521   7.720
16282WAT     H149088   9.714   0.598   7.662
16282WAT     H249089   9.602   0.543   7.768
16283WAT      O49090   8.671   2.478   5.400
16283WAT     H149091   8.612   2.473   5.480
16283WAT     H249092   8.754   2.529   5.424
16284WAT      O49093   0.133   4.396   6.845
16284WAT     H149094   0.055   4.454   6.870
16284WAT     H249095   0.140   4.320   6.910
16285WAT      O49096   4.918   6.537   4.657
16285WAT     H149097   4.892   6.483   4.737
16285WAT     H249098   5.018   6.542   4.652
16286WAT      O49099   0.685   6.619   0.549
16286WAT     H149100   0.686   6.554   0.473
16286WAT     H249101   0.629   6.699   0.524
16287WAT      O49102   6.610   1.251   5.265
16287WAT     H149103   6.542   1.323   5.279
16287WAT     H249104   6.573   1.165   5.301
16288WAT      O49105   6.460   4.658   0.573
16288WAT     H149106   6.551   4.628   0.545
16288WAT     H249107   6.451   4.757   0.556
16289WAT      O49108   6.110   6.088   5.655
16289WAT     H149109   6.123   5.993   5.683
16289WAT     H249110   6.026   6.123   5.696
16290WAT      O49111   6.845   7.726   8.902
16290WAT     H149112   6.773   7.692   8.842
16290WAT     H249113   6.933   7.692   8.870
16291WAT      O49114   0.938   2.354   7.616
16291WAT     H149115   1.011   2.344   7.548
16291WAT     H249116   0.911   2.264   7.649
16292WAT      O49117   4.130   2.509   7.569
16292WAT     H149118   4.145   2.410   7.565
16292WAT     H249119   4.154   2.550   7.482
16293WAT      O49120   5.384   5.436   8.224
16293WAT     H149121   5.484   5.446   8.216
16293WAT     H249122   5.342   5.527   8.222
16294WAT      O49123   5.701   8.771   7.337
16294WAT     H149124   5.638   8.775   7.260
16294WAT     H249125   5.649   8.755   7.422
16295WAT      O49126   6.131   6.220   4.416
16295WAT     H149127   6.078   6.233   4.332
16295WAT     H249128   6.203   6.290   4.421
16296WAT      O49129   7.365   6.166   4.911
16296WAT     H149130   7.366   6.168   5.011
16296WAT     H249131   7.457   6.187   4.878
16297WAT      O49132   0.271   4.498   5.892
16297WAT     H149133   0.280   4.519   5.795
16297WAT     H249134   0.362   4.496   5.934
16298WAT      O49135   1.673   5.347   4.802
16298WAT     H149136   1.750   5.324   4.861
16298WAT     H249137   1.626   5.428   4.839
16299WAT      O49138   0.371   2.673   0.126
16299WAT     H149139   0.338   2.594   0.178
16299WAT     H249140   0.307   2.694   0.052
16300WAT      O49141   6.735   7.586   0.632
16300WAT     H149142   6.828   7.551   0.619
16300WAT     H249143   6.732   7.682   0.603
16301WAT      O49144   5.687   5.318   0.231
16301WAT     H149145   5.700   5.219   0.230
16301WAT     H249146   5.628   5.343   0.308
16302WAT      O49147   2.365   6.332   7.554
16302WAT     H149148   2.354   6.251   7.612
16302WAT     H249149   2.275   6.364   7.523
16303WAT      O49150   4.008   2.580   2.205
16303WAT     H149151   4.000   2.660   2.264
16303WAT     H249152   4.007   2.607   2.109
16304WAT      O49153   6.188   3.481   7.658
16304WAT     H149154   6.276   3.434   7.659
16304WAT     H249155   6.114   3.414   7.656
16305WAT      O49156   4.547   0.963   7.723
16305WAT     H149157   4.521   0.879   7.675
16305WAT     H249158   4.465   1.006   7.760
16306WAT      O49159   5.760   2.940   3.103
16306WAT     H149160   5.677   2.904   3.144
16306WAT     H249161   5.784   3.027   3.147
16307WAT      O49162   6.336   6.398   4.498
16307WAT     H149163   6.295   6.417   4.588
16307WAT     H249164   6.423   6.350   4.511
16308WAT      O49165   7.791   2.783   0.599
16308WAT     H149166   7.867   2.848   0.587
16308WAT     H249167   7.710   2.832   0.631
16309WAT      O49168   2.320   8.707   3.710
16309WAT     H149169   2.353   8.798   3.683
16309WAT     H249170   2.345   8.690   3.806
16310WAT      O49171   6.287   7.348   0.710
16310WAT     H149172   6.383   7.373   0.699
16310WAT     H249173   6.246   7.404   0.782
16311WAT      O49174   8.737   3.404   2.444
16311WAT     H149175   8.673   3.470   2.405
16311WAT     H249176   8.739   3.414   2.544
16312WAT      O49177   3.634   4.625   8.191
16312WAT     H149178   3.680   4.658   8.273
16312WAT     H249179   3.702   4.596   8.124
16313WAT      O49180   9.174   9.457   8.123
16313WAT     H149181   9.126   9.529   8.072
16313WAT     H249182   9.236   9.499   8.190
16314WAT      O49183   2.922   9.696   4.986
16314WAT     H149184   2.902   9.750   4.904
16314WAT     H249185   2.864   9.614   4.986
16315WAT      O49186   6.387   0.821   0.469
16315WAT     H149187   6.470   0.803   0.520
16315WAT     H249188   6.395   0.910   0.423
16316WAT      O49189   6.693   4.306   7.936
16316WAT     H149190   6.730   4.213   7.938
16316WAT     H249191   6.678   4.334   7.841
16317WAT      O49192   7.441   2.581   4.796
16317WAT     H149193   7.396   2.498   4.829
16317WAT     H249194   7.400   2.609   4.709
16318WAT      O49195   8.271   8.693   7.431
16318WAT     H149196   8.234   8.671   7.341
16318WAT     H249197   8.348   8.633   7.452
16319WAT      O49198   8.926   0.986   6.358
16319WAT     H149199   8.874   1.045   6.297
16319WAT     H249200   9.013   0.962   6.314
16320WAT      O49201   6.211   9.009   2.609
16320WAT     H149202   6.176   8.972   2.695
16320WAT     H249203   6.170   9.098   2.592
16321WAT      O49204   8.356   3.434   9.621
16321WAT     H149205   8.363   3.498   9.545
16321WAT     H249206   8.261   3.401   9.629
16322WAT      O49207   5.887   9.542   3.014
16322WAT     H149208   5.883   9.543   3.114
16322WAT     H249209   5.802   9.580   2.978
16323WAT      O49210   2.877   5.759   9.400
16323WAT     H149211   2.869   5.670   9.355
16323WAT     H249212   2.851   5.831   9.337
16324WAT      O49213   3.544   8.792   2.167
16324WAT     H149214   3.479   8.718   2.149
16324WAT     H249215   3.495   8.877   2.185
16325WAT      O49216   3.851   1.539   9.233
16325WAT     H149217   3.923   1.566   9.297
16325WAT     H249218   3.872   1.449   9.195
16326WAT      O49219   5.024   3.737   3.525
16326WAT     H149220   5.101   3.800   3.527
16326WAT     H249221   4.996   3.715   3.619
16327WAT      O49222   9.182   2.608   1.148
16327WAT     H149223   9.163   2.584   1.053
16327WAT     H249224   9.103   2.584   1.205
16328WAT      O49225   7.378   4.053   2.959
16328WAT     H149226   7.293   4.104   2.970
16328WAT     H249227   7.367   3.961   2.996
16329WAT      O49228   8.229   6.127   1.248
16329WAT     H149229   8.292   6.056   1.216
16329WAT     H249230   8.177   6.093   1.326
16330WAT      O49231   3.760   0.803   3.808
16330WAT     H149232   3.803   0.753   3.884
16330WAT     H249233   3.736   0.895   3.838
16331WAT      O49234   3.534   4.081   8.035
16331WAT     H149235   3.546   4.034   7.947
16331WAT     H249236   3.473   4.159   8.022
16332WAT      O49237   6.950   8.084   1.289
16332WAT     H149238   6.943   8.028   1.207
16332WAT     H249239   7.043   8.078   1.326
16333WAT      O49240   5.800   5.197   3.536
16333WAT     H149241   5.851   5.238   3.611
16333WAT     H249242   5.849   5.212   3.450
16334WAT      O49243   3.156   2.329   3.903
16334WAT     H149244   3.082   2.294   3.961
16334WAT     H249245   3.117   2.359   3.815
16335WAT      O49246   7.976   6.985   6.521
16335WAT     H149247   8.070   6.960   6.499
16335WAT     H249248   7.916   6.906   6.507
16336WAT      O49249   0.687   7.961   6.169
16336WAT     H149250   0.767   8.017   6.149
16336WAT     H249251   0.707   7.866   6.146
16337WAT      O49252   6.566   6.252   7.900
16337WAT     H149253   6.637   6.314   7.933
16337WAT     H249254   6.573   6.165   7.950
16338WAT      O49255   5.694   2.666   8.430
16338WAT     H149256   5.629   2.591   8.418
16338WAT     H249257   5.742   2.655   8.517
16339WAT      O49258   9.718   2.259   3.178
16339WAT     H149259   9.621   2.263   3.201
16339WAT     H249260   9.736   2.318   3.099
16340WAT      O49261   7.708   8.517   5.349
16340WAT     H149262   7.729   8.560   5.437
16340WAT     H249263   7.726   8.582   5.276
16341WAT      O49264   9.343   2.440   5.635
16341WAT     H149265   9.439   2.457   5.612
16341WAT     H249266   9.324   2.476   5.727
16342WAT      O49267   4.464   2.792   0.304
16342WAT     H149268   4.407   2.869   0.275
16342WAT     H249269   4.549   2.791   0.251
16343WAT      O49270   9.534   7.527   6.507
16343WAT     H149271   9.585   7.593   6.561
16343WAT     H249272   9.558   7.434   6.536
16344WAT      O49273   0.790   7.818   1.757
16344WAT     H149274   0.746   7.900   1.794
16344WAT     H249275   0.818   7.759   1.833
16345WAT      O49276   4.390   7.575   2.982
16345WAT     H149277   4.306   7.521   2.968
16345WAT     H249278   4.390   7.651   2.917
16346WAT      O49279   2.577   5.141   0.707
16346WAT     H149280   2.545   5.049   0.730
16346WAT     H249281   2.562   5.202   0.785
16347WAT      O49282   8.279   9.508   2.134
16347WAT     H149283   8.254   9.588   2.189
16347WAT     H249284   8.197   9.472   2.089
16348WAT      O49285   0.592   4.660   1.206
16348WAT     H149286   0.537   4.695   1.131
16348WAT     H249287   0.688   4.685   1.192
16349WAT      O49288   9.608   1.815   4.714
16349WAT     H149289   9.525   1.777   4.673
16349WAT     H249290   9.588   1.845   4.807
16350WAT      O49291   2.505   9.799   7.886
16350WAT     H149292   2.602   9.812   7.864
16350WAT     H249293   2.457   9.886   7.875
16351WAT      O49294   3.589   6.192   2.704
16351WAT     H149295   3.616   6.168   2.611
16351WAT     H249296   3.543   6.114   2.747
16352WAT      O49297   1.686   9.211   0.141
16352WAT     H149298   1.760   9.273   0.169
16352WAT     H249299   1.658   9.234   0.047
16353WAT      O49300   6.983   9.254   6.687
16353WAT     H149301   6.896   9.297   6.712
16353WAT     H249302   6.965   9.171   6.635
16354WAT      O49303   6.944   1.208   3.271
16354WAT     H149304   6.874   1.168   3.330
16354WAT     H249305   7.028   1.220   3.323
16355WAT      O49306   4.236   2.843   2.015
16355WAT     H149307   4.210   2.929   2.060
16355WAT     H249308   4.225   2.852   1.916
16356WAT      O49309   7.170   3.443   1.215
16356WAT     H149310   7.261   3.469   1.247
16356WAT     H249311   7.153   3.482   1.124
16357WAT      O49312   5.582   9.488   1.069
16357WAT     H149313   5.669   9.499   1.021
16357WAT     H249314   5.593   9.421   1.143
16358WAT      O49315   4.630   7.770   2.210
16358WAT     H149316   4.603   7.751   2.305
16358WAT     H249317   4.722   7.734   2.194
16359WAT      O49318   2.616   3.628   5.380
16359WAT     H149319   2.547   3.592   5.317
16359WAT     H249320   2.607   3.727   5.386
16360WAT      O49321   5.745   7.550   4.489
16360WAT     H149322   5.712   7.644   4.489
16360WAT     H249323   5.747   7.515   4.396
16361WAT      O49324   2.192   1.813   1.520
16361WAT     H149325   2.098   1.777   1.526
16361WAT     H249326   2.195   1.887   1.454
16362WAT      O49327   3.651   2.408   4.612
16362WAT     H149328   3.616   2.502   4.615
16362WAT     H249329   3.640   2.371   4.520
16363WAT      O49330   4.447   3.009   6.863
16363WAT     H149331   4.518   3.044   6.924
16363WAT     H249332   4.460   3.048   6.772
16364WAT      O49333   2.116   2.237   9.784
16364WAT     H149334   2.094   2.146   9.749
16364WAT     H249335   2.211   2.238   9.815
16365WAT      O49336   0.325   8.488   0.826
16365WAT     H149337   0.283   8.560   0.772
16365WAT     H249338   0.379   8.529   0.900
16366WAT      O49339   2.869   1.331   1.565
16366WAT     H149340   2.863   1.241   1.608
16366WAT     H249341   2.778   1.372   1.559
16367WAT      O49342   9.742   3.988   2.646
16367WAT     H149343   9.806   3.986   2.722
16367WAT     H249344   9.648   3.989   2.681
16368WAT      O49345   8.513   5.182   3.543
16368WAT     H149346   8.608   5.156   3.528
16368WAT     H249347   8.462   5.104   3.578
16369WAT      O49348   9.058   4.347   1.356
16369WAT     H149349   9.087   4.252   1.366
16369WAT     H249350   9.138   4.407   1.350
16370WAT      O49351   0.206   8.898   1.813
16370WAT     H149352   0.226   8.990   1.780
16370WAT     H249353   0.291   8.848   1.827
16371WAT      O49354   4.489   6.101   5.966
16371WAT     H149355   4.470   6.198   5.952
16371WAT     H249356   4.586   6.087   5.983
16372WAT      O49357   7.750   9.059   0.158
16372WAT     H149358   7.742   8.962   0.134
16372WAT     H249359   7.695   9.113   0.094
16373WAT      O49360   2.234   1.535   3.303
16373WAT     H149361   2.248   1.486   3.389
16373WAT     H249362   2.138   1.527   3.275
16374WAT      O49363   6.186   0.742   6.940
16374WAT     H149364   6.151   0.828   6.903
16374WAT     H249365   6.109   0.680   6.956
16375WAT      O49366   2.317   9.288   0.266
16375WAT     H149367   2.344   9.220   0.335
16375WAT     H249368   2.382   9.364   0.267
16376WAT      O49369   0.346   7.366   2.113
16376WAT     H149370   0.269   7.313   2.078
16376WAT     H249371   0.364   7.443   2.052
16377WAT      O49372   0.285   2.254   0.068
16377WAT     H149373   0.306   2.293   0.157
16377WAT     H249374   0.250   2.327   0.008
16378WAT      O49375   4.047   1.513   4.321
16378WAT     H149376   4.114   1.562   4.266
16378WAT     H249377   4.083   1.500   4.414
16379WAT      O49378   7.505   0.138   1.936
16379WAT     H149379   7.470   0.231   1.949
16379WAT     H249380   7.581   0.122   1.999
16380WAT      O49381   8.931   1.384   2.775
16380WAT     H149382   8.872   1.375   2.855
16380WAT     H249383   9.025   1.403   2.804
16381WAT      O49384   4.015   8.641   2.683
16381WAT     H149385   4.058   8.636   2.593
16381WAT     H249386   4.041   8.727   2.727
16382WAT      O49387   1.043   5.633   5.485
16382WAT     H149388   1.122   5.614   5.543
16382WAT     H249389   0.964   5.580   5.518
16383WAT      O49390   1.906   2.583   2.310
16383WAT     H149391   1.898   2.593   2.409
16383WAT     H249392   1.920   2.487   2.286
16384WAT      O49393   5.663   5.037   0.230
16384WAT     H149394   5.739   5.057   0.292
16384WAT     H249395   5.578   5.074   0.268
16385WAT      O49396   3.895   1.610   8.140
16385WAT     H149397   3.833   1.688   8.134
16385WAT     H249398   3.843   1.526   8.123
16386WAT      O49399   4.850   5.918   0.097
16386WAT     H149400   4.836   5.931  -0.001
16386WAT     H249401   4.862   6.006   0.141
16387WAT      O49402   4.603   0.684   9.205
16387WAT     H149403   4.541   0.648   9.274
16387WAT     H249404   4.688   0.712   9.249
16388WAT      O49405   8.752   2.411   2.766
16388WAT     H149406   8.803   2.341   2.816
16388WAT     H249407   8.797   2.500   2.778
16389WAT      O49408   2.204   1.128   8.711
16389WAT     H149409   2.257   1.192   8.766
16389WAT     H249410   2.109   1.160   8.703
16390WAT      O49411   9.635   6.577   8.041
16390WAT     H149412   9.555   6.527   8.075
16390WAT     H249413   9.688   6.518   7.980
16391WAT      O49414   3.012   0.780   7.558
16391WAT     H149415   3.041   0.690   7.590
16391WAT     H249416   3.028   0.848   7.629
16392WAT      O49417   6.839   3.502   8.446
16392WAT     H149418   6.810   3.407   8.437
16392WAT     H249419   6.864   3.537   8.356
16393WAT      O49420   8.190   5.333   4.800
16393WAT     H149421   8.120   5.262   4.804
16393WAT     H249422   8.179   5.394   4.879
16394WAT      O49423   8.571   3.377   6.871
16394WAT     H149424   8.505   3.326   6.927
16394WAT     H249425   8.560   3.350   6.775
16395WAT      O49426   5.028   2.000   0.660
16395WAT     H149427   4.978   1.972   0.578
16395WAT     H249428   5.119   1.957   0.659
16396WAT      O49429   1.105   1.373   2.116
16396WAT     H149430   1.071   1.449   2.061
16396WAT     H249431   1.143   1.303   2.055
16397WAT      O49432   4.464   8.274   3.763
16397WAT     H149433   4.400   8.261   3.838
16397WAT     H249434   4.495   8.186   3.729
16398WAT      O49435   9.844   4.768   4.518
16398WAT     H149436   9.932   4.811   4.537
16398WAT     H249437   9.775   4.801   4.583
16399WAT      O49438   4.767   0.304   4.606
16399WAT     H149439   4.700   0.369   4.569
16399WAT     H249440   4.815   0.258   4.532
16400WAT      O49441   4.957   1.807   2.374
16400WAT     H149442   5.043   1.764   2.402
16400WAT     H249443   4.893   1.737   2.343
16401WAT      O49444   2.048   3.400   5.446
16401WAT     H149445   2.027   3.310   5.484
16401WAT     H249446   2.028   3.471   5.513
16402WAT      O49447   9.455   5.268   8.658
16402WAT     H149448   9.553   5.260   8.642
16402WAT     H249449   9.434   5.359   8.694
16403WAT      O49450   0.273   4.878   0.844
16403WAT     H149451   0.339   4.868   0.769
16403WAT     H249452   0.197   4.815   0.829
16404WAT      O49453   2.351   0.001   8.555
16404WAT     H149454   2.388  -0.015   8.463
16404WAT     H249455   2.425   0.031   8.615
16405WAT      O49456   6.559   0.470   7.951
16405WAT     H149457   6.535   0.485   8.047
16405WAT     H249458   6.589   0.375   7.939
16406WAT      O49459   9.592   4.763   5.751
16406WAT     H149460   9.630   4.691   5.809
16406WAT     H249461   9.662   4.834   5.737
16407WAT      O49462   0.725   6.223   2.148
16407WAT     H149463   0.777   6.291   2.096
16407WAT     H249464   0.679   6.161   2.084
16408WAT      O49465   7.686   6.471   9.370
16408WAT     H149466   7.718   6.381   9.402
16408WAT     H249467   7.698   6.538   9.444
16409WAT      O49468   5.630   0.033   2.315
16409WAT     H149469   5.613   0.129   2.292
16409WAT     H249470   5.594  -0.025   2.242
16410WAT      O49471   5.071   1.621   8.460
16410WAT     H149472   5.065   1.673   8.545
16410WAT     H249473   5.047   1.680   8.383
16411WAT      O49474   4.401   1.826   5.547
16411WAT     H149475   4.312   1.810   5.590
16411WAT     H249476   4.472   1.782   5.601
16412WAT      O49477   4.054   0.679   6.622
16412WAT     H149478   4.139   0.707   6.578
16412WAT     H249479   4.066   0.590   6.666
16413WAT      O49480   0.476   5.209   0.966
16413WAT     H149481   0.383   5.192   0.936
16413WAT     H249482   0.539   5.149   0.917
16414WAT      O49483   8.819   1.591   2.215
16414WAT     H149484   8.792   1.643   2.134
16414WAT     H249485   8.907   1.623   2.248
16415WAT      O49486   8.905   3.711   9.032
16415WAT     H149487   8.981   3.719   8.967
16415WAT     H249488   8.931   3.648   9.105
16416WAT      O49489   9.501   4.944   6.623
16416WAT     H149490   9.597   4.965   6.606
16416WAT     H249491   9.487   4.845   6.619
16417WAT      O49492   6.810   5.143   3.750
16417WAT     H149493   6.832   5.118   3.655
16417WAT     H249494   6.716   5.116   3.770
16418WAT      O49495   6.092   9.469   5.740
16418WAT     H149496   6.114   9.558   5.781
16418WAT     H249497   6.155   9.400   5.775
16419WAT      O49498   1.250   9.213   3.358
16419WAT     H149499   1.184   9.284   3.335
16419WAT     H249500   1.315   9.203   3.282
16420WAT      O49501   5.939   1.363   7.075
16420WAT     H149502   5.925   1.264   7.072
16420WAT     H249503   5.870   1.408   7.019
16421WAT      O49504   5.959   6.898   2.593
16421WAT     H149505   5.938   6.916   2.689
16421WAT     H249506   5.921   6.809   2.567
16422WAT      O49507   7.849   8.121   8.250
16422WAT     H149508   7.790   8.106   8.171
16422WAT     H249509   7.793   8.130   8.332
16423WAT      O49510   0.727   3.164   3.765
16423WAT     H149511   0.747   3.251   3.810
16423WAT     H249512   0.635   3.167   3.725
16424WAT      O49513   6.735   4.586   1.525
16424WAT     H149514   6.804   4.612   1.592
16424WAT     H249515   6.715   4.664   1.465
16425WAT      O49516   0.544   7.985   7.109
16425WAT     H149517   0.586   7.940   7.188
16425WAT     H249518   0.555   7.927   7.028
16426WAT      O49519   4.298   4.980   0.032
16426WAT     H149520   4.325   4.994  -0.063
16426WAT     H249521   4.199   4.988   0.041
16427WAT      O49522   6.218   5.594   3.790
16427WAT     H149523   6.211   5.517   3.854
16427WAT     H249524   6.189   5.565   3.700
16428WAT      O49525   6.877   2.649   5.593
16428WAT     H149526   6.882   2.561   5.546
16428WAT     H249527   6.951   2.655   5.660
16429WAT      O49528   7.603   5.576   4.871
16429WAT     H149529   7.654   5.611   4.793
16429WAT     H249530   7.518   5.629   4.882
16430WAT      O49531   3.834   7.199   7.110
16430WAT     H149532   3.897   7.196   7.033
16430WAT     H249533   3.808   7.107   7.137
16431WAT      O49534   8.551   6.297   4.016
16431WAT     H149535   8.452   6.300   4.001
16431WAT     H249536   8.585   6.390   4.030
16432WAT      O49537   4.957   0.688   4.470
16432WAT     H149538   5.026   0.748   4.512
16432WAT     H249539   4.972   0.594   4.501
16433WAT      O49540   2.414   6.643   2.140
16433WAT     H149541   2.414   6.643   2.240
16433WAT     H249542   2.469   6.720   2.107
16434WAT      O49543   6.892   0.922   6.429
16434WAT     H149544   6.978   0.970   6.418
16434WAT     H249545   6.842   0.922   6.342
16435WAT      O49546   6.651   6.880   0.585
16435WAT     H149547   6.732   6.922   0.625
16435WAT     H249548   6.675   6.837   0.498
16436WAT      O49549   0.266   1.660   2.553
16436WAT     H149550   0.207   1.741   2.552
16436WAT     H249551   0.357   1.686   2.585
16437WAT      O49552   6.932   5.130   8.097
16437WAT     H149553   6.881   5.102   8.178
16437WAT     H249554   6.931   5.230   8.090
16438WAT      O49555   8.301   8.664   7.963
16438WAT     H149556   8.245   8.645   8.043
16438WAT     H249557   8.350   8.580   7.937
16439WAT      O49558   9.884   3.445   5.704
16439WAT     H149559   9.881   3.369   5.638
16439WAT     H249560   9.941   3.419   5.782
16440WAT      O49561   6.469   2.756   1.624
16440WAT     H149562   6.446   2.731   1.718
16440WAT     H249563   6.444   2.681   1.563
16441WAT      O49564   5.387   5.868   5.151
16441WAT     H149565   5.411   5.826   5.238
16441WAT     H249566   5.398   5.802   5.077
16442WAT      O49567   8.118   3.383   8.631
16442WAT     H149568   8.093   3.412   8.723
16442WAT     H249569   8.213   3.408   8.612
16443WAT      O49570   9.366   5.576   3.590
16443WAT     H149571   9.463   5.597   3.576
16443WAT     H249572   9.354   5.529   3.677
16444WAT      O49573   2.072   2.533   2.660
16444WAT     H149574   2.155   2.587   2.649
16444WAT     H249575   2.090   2.438   2.635
16445WAT      O49576   8.398   3.173   2.981
16445WAT     H149577   8.349   3.088   2.997
16445WAT     H249578   8.467   3.185   3.053
16446WAT      O49579   7.485   6.473   8.073
16446WAT     H149580   7.446   6.564   8.061
16446WAT     H249581   7.526   6.443   7.986
16447WAT      O49582   0.213   4.267   5.752
16447WAT     H149583   0.186   4.347   5.806
16447WAT     H249584   0.260   4.202   5.810
16448WAT      O49585   2.218   5.281   4.255
16448WAT     H149586   2.220   5.381   4.263
16448WAT     H249587   2.310   5.245   4.269
16449WAT      O49588   0.266   3.590   1.582
16449WAT     H149589   0.366   3.582   1.586
16449WAT     H249590   0.231   3.532   1.509
16450WAT      O49591   2.034   2.625   6.414
16450WAT     H149592   2.033   2.725   6.411
16450WAT     H249593   2.100   2.591   6.346
16451WAT      O49594   5.020   7.745   9.868
16451WAT     H149595   5.051   7.657   9.903
16451WAT     H249596   5.082   7.817   9.899
16452WAT      O49597   8.855   1.200   6.183
16452WAT     H149598   8.835   1.297   6.165
16452WAT     H249599   8.808   1.143   6.116
16453WAT      O49600   7.803   8.269   0.383
16453WAT     H149601   7.902   8.287   0.377
16453WAT     H249602   7.757   8.307   0.302
16454WAT      O49603   8.461   9.786   2.752
16454WAT     H149604   8.530   9.822   2.689
16454WAT     H249605   8.503   9.720   2.813
16455WAT      O49606   9.654   6.580   6.545
16455WAT     H149607   9.696   6.648   6.605
16455WAT     H249608   9.628   6.622   6.458
16456WAT      O49609   8.228   3.678   7.624
16456WAT     H149610   8.193   3.740   7.554
16456WAT     H249611   8.272   3.731   7.697
16457WAT      O49612   2.091   7.863   3.866
16457WAT     H149613   2.051   7.806   3.794
16457WAT     H249614   2.185   7.833   3.883
16458WAT      O49615   5.181   0.946   1.739
16458WAT     H149616   5.084   0.971   1.732
16458WAT     H249617   5.200   0.911   1.831
16459WAT      O49618   4.126   5.597   4.200
16459WAT     H149619   4.030   5.601   4.169
16459WAT     H249620   4.133   5.636   4.291
16460WAT      O49621   2.251   5.316   7.012
16460WAT     H149622   2.267   5.349   6.919
16460WAT     H249623   2.309   5.237   7.030
16461WAT      O49624   3.730   5.545   4.312
16461WAT     H149625   3.655   5.504   4.261
16461WAT     H249626   3.799   5.579   4.249
16462WAT      O49627   8.324   0.173   8.380
16462WAT     H149628   8.234   0.202   8.349
16462WAT     H249629   8.321   0.078   8.410
16463WAT      O49630   8.007   4.563   1.198
16463WAT     H149631   7.971   4.655   1.181
16463WAT     H249632   8.104   4.569   1.224
16464WAT      O49633   0.423   2.573   7.293
16464WAT     H149634   0.428   2.623   7.379
16464WAT     H249635   0.426   2.475   7.311
16465WAT      O49636   1.577   1.261   2.073
16465WAT     H149637   1.564   1.250   1.975
16465WAT     H249638   1.597   1.356   2.094
16466WAT      O49639   2.194   5.342   1.793
16466WAT     H149640   2.278   5.326   1.742
16466WAT     H249641   2.157   5.431   1.769
16467WAT      O49642   8.791   5.271   0.693
16467WAT     H149643   8.839   5.336   0.635
16467WAT     H249644   8.703   5.248   0.652
16468WAT      O49645   0.707   3.332   6.886
16468WAT     H149646   0.672   3.277   6.962
16468WAT     H249647   0.734   3.422   6.919
16469WAT      O49648   1.341   4.855   7.675
16469WAT     H149649   1.329   4.934   7.734
16469WAT     H249650   1.438   4.830   7.671
16470WAT      O49651   9.695   0.129   7.568
16470WAT     H149652   9.604   0.151   7.532
16470WAT     H249653   9.713   0.184   7.649
16471WAT      O49654   0.333   2.155   3.594
16471WAT     H149655   0.236   2.177   3.610
16471WAT     H249656   0.353   2.064   3.632
16472WAT      O49657   6.446   1.380   7.995
16472WAT     H149658   6.438   1.461   8.054
16472WAT     H249659   6.470   1.301   8.051
16473WAT      O49660   0.433   4.485   2.155
16473WAT     H149661   0.531   4.509   2.157
16473WAT     H249662   0.392   4.522   2.071
16474WAT      O49663   0.009   1.806   1.571
16474WAT     H149664   0.024   1.839   1.477
16474WAT     H249665  -0.060   1.734   1.569
16475WAT      O49666   2.129   7.878   5.560
16475WAT     H149667   2.151   7.956   5.618
16475WAT     H249668   2.180   7.798   5.591
16476WAT      O49669   0.153   2.559   6.686
16476WAT     H149670   0.079   2.524   6.743
16476WAT     H249671   0.237   2.510   6.707
16477WAT      O49672   3.681   0.796   2.101
16477WAT     H149673   3.739   0.717   2.082
16477WAT     H249674   3.660   0.843   2.015
16478WAT      O49675   9.172   4.510   8.673
16478WAT     H149676   9.202   4.551   8.759
16478WAT     H249677   9.108   4.573   8.628
16479WAT      O49678   3.080   6.016   2.341
16479WAT     H149679   3.176   5.990   2.351
16479WAT     H249680   3.074   6.109   2.306
16480WAT      O49681   4.517   3.019   8.698
16480WAT     H149682   4.421   3.018   8.725
16480WAT     H249683   4.550   2.924   8.692
16481WAT      O49684   3.201   8.106   4.740
16481WAT     H149685   3.116   8.127   4.693
16481WAT     H249686   3.275   8.164   4.706
16482WAT      O49687   9.811   8.826   2.882
16482WAT     H149688   9.770   8.823   2.791
16482WAT     H249689   9.871   8.747   2.894
16483WAT      O49690   0.751   8.185   3.178
16483WAT     H149691   0.670   8.173   3.121
16483WAT     H249692   0.758   8.108   3.242
16484WAT      O49693   5.527   8.728   8.515
16484WAT     H149694   5.569   8.644   8.480
16484WAT     H249695   5.506   8.717   8.612
16485WAT      O49696   5.229   0.170   0.614
16485WAT     H149697   5.319   0.130   0.594
16485WAT     H249698   5.238   0.269   0.621
16486WAT      O49699   5.991   1.829   8.145
16486WAT     H149700   5.924   1.899   8.124
16486WAT     H249701   6.051   1.860   8.219
16487WAT      O49702   9.500   6.471   0.486
16487WAT     H149703   9.593   6.487   0.451
16487WAT     H249704   9.473   6.377   0.466
16488WAT      O49705   6.046   3.963   3.948
16488WAT     H149706   6.137   3.940   3.984
16488WAT     H249707   5.976   3.938   4.016
16489WAT      O49708   5.252   7.912   9.075
16489WAT     H149709   5.286   7.860   8.998
16489WAT     H249710   5.162   7.879   9.101
16490WAT      O49711   9.548   1.111   3.688
16490WAT     H149712   9.634   1.162   3.694
16490WAT     H249713   9.480   1.152   3.749
16491WAT      O49714   1.800   0.931   8.652
16491WAT     H149715   1.779   0.899   8.559
16491WAT     H249716   1.733   0.892   8.715
16492WAT      O49717   5.311   5.496   7.417
16492WAT     H149718   5.331   5.476   7.321
16492WAT     H249719   5.299   5.411   7.467
16493WAT      O49720   3.655   4.650   3.079
16493WAT     H149721   3.654   4.637   3.178
16493WAT     H249722   3.727   4.715   3.055
16494WAT      O49723   5.263   4.995   9.108
16494WAT     H149724   5.188   5.035   9.160
16494WAT     H249725   5.237   4.988   9.012
16495WAT      O49726   2.938   0.614   7.298
16495WAT     H149727   2.944   0.550   7.374
16495WAT     H249728   2.844   0.617   7.264
16496WAT      O49729   9.150   2.269   5.750
16496WAT     H149730   9.150   2.321   5.835
16496WAT     H249731   9.229   2.295   5.694
16497WAT      O49732   4.764   6.117   7.622
16497WAT     H149733   4.715   6.038   7.586
16497WAT     H249734   4.698   6.180   7.663
16498WAT      O49735   9.097   1.539   1.826
16498WAT     H149736   9.185   1.555   1.870
16498WAT     H249737   9.111   1.494   1.737
16499WAT      O49738   0.793   0.403   3.590
16499WAT     H149739   0.769   0.477   3.653
16499WAT     H249740   0.871   0.430   3.534
16500WAT      O49741   6.093   6.539   8.859
16500WAT     H149742   6.121   6.522   8.953
16500WAT     H249743   6.175   6.544   8.800
16501WAT      O49744   9.628   9.028   8.252
16501WAT     H149745   9.588   8.942   8.284
16501WAT     H249746   9.658   9.082   8.331
16502WAT      O49747   5.561   9.047   1.033
16502WAT     H149748   5.534   8.951   1.048
16502WAT     H249749   5.639   9.069   1.091
16503WAT      O49750   5.348   8.702   0.084
16503WAT     H149751   5.353   8.780   0.146
16503WAT     H249752   5.424   8.640   0.103
16504WAT      O49753   5.078   2.529   3.777
16504WAT     H149754   4.987   2.537   3.737
16504WAT     H249755   5.141   2.491   3.708
16505WAT      O49756   7.576   5.719   7.349
16505WAT     H149757   7.586   5.620   7.337
16505WAT     H249758   7.666   5.760   7.361
16506WAT      O49759   3.738   3.011   4.086
16506WAT     H149760   3.644   3.026   4.056
16506WAT     H249761   3.773   2.927   4.044
16507WAT      O49762   9.052   9.839   1.910
16507WAT     H149763   9.081   9.758   1.961
16507WAT     H249764   9.123   9.863   1.843
16508WAT      O49765   0.415   2.560   2.001
16508WAT     H149766   0.425   2.507   2.085
16508WAT     H249767   0.481   2.635   2.000
16509WAT      O49768   8.778   3.130   1.003
16509WAT     H149769   8.680   3.114   1.004
16509WAT     H249770   8.796   3.228   0.993
16510WAT      O49771   9.113   9.540   6.129
16510WAT     H149772   9.118   9.487   6.213
16510WAT     H249773   9.112   9.478   6.050
16511WAT      O49774   5.119   9.453   7.737
16511WAT     H149775   5.170   9.417   7.815
16511WAT     H249776   5.172   9.525   7.693
16512WAT      O49777   7.113   2.193   0.935
16512WAT     H149778   7.039   2.137   0.900
16512WAT     H249779   7.129   2.270   0.874
16513WAT      O49780   1.168   7.997   1.192
16513WAT     H149781   1.099   8.035   1.130
16513WAT     H249782   1.146   8.022   1.286
16514WAT      O49783   8.371   4.655   8.834
16514WAT     H149784   8.370   4.686   8.929
16514WAT     H249785   8.459   4.615   8.813
16515WAT      O49786   9.887   7.008   2.149
16515WAT     H149787   9.913   6.952   2.228
16515WAT     H249788   9.871   6.949   2.070
16516WAT      O49789   1.886   5.809   2.731
16516WAT     H149790   1.789   5.829   2.717
16516WAT     H249791   1.926   5.877   2.792
16517WAT      O49792   1.485   6.573   9.875
16517WAT     H149793   1.581   6.546   9.878
16517WAT     H249794   1.443   6.559   9.964
16518WAT      O49795   5.062   8.925   5.258
16518WAT     H149796   5.110   8.967   5.181
16518WAT     H249797   5.071   8.825   5.253
16519WAT      O49798   3.496   9.724   6.276
16519WAT     H149799   3.426   9.769   6.220
16519WAT     H249800   3.452   9.659   6.338
16520WAT      O49801   3.993   1.423   0.986
16520WAT     H149802   4.062   1.356   1.013
16520WAT     H249803   4.029   1.482   0.914
16521WAT      O49804   8.049   0.692   5.916
16521WAT     H149805   8.042   0.769   5.979
16521WAT     H249806   8.025   0.608   5.963
16522WAT      O49807   7.560   2.849   5.881
16522WAT     H149808   7.595   2.758   5.902
16522WAT     H249809   7.620   2.893   5.814
16523WAT      O49810   3.786   1.470   0.614
16523WAT     H149811   3.765   1.567   0.608
16523WAT     H249812   3.738   1.421   0.542
16524WAT      O49813   5.138   0.015   8.779
16524WAT     H149814   5.218  -0.033   8.745
16524WAT     H249815   5.098   0.070   8.706
16525WAT      O49816   7.235   4.411   0.064
16525WAT     H149817   7.201   4.503   0.041
16525WAT     H249818   7.268   4.411   0.158
16526WAT      O49819   3.363   9.367   4.780
16526WAT     H149820   3.338   9.340   4.687
16526WAT     H249821   3.450   9.323   4.805
16527WAT      O49822   3.930   6.174   0.249
16527WAT     H149823   3.837   6.139   0.262
16527WAT     H249824   3.984   6.107   0.197
16528WAT      O49825   3.524   9.569   6.882
16528WAT     H149826   3.435   9.559   6.927
16528WAT     H249827   3.527   9.511   6.801
16529WAT      O49828   0.652   8.680   0.774
16529WAT     H149829   0.728   8.709   0.832
16529WAT     H249830   0.587   8.626   0.828
16530WAT      O49831   8.956   7.968   1.790
16530WAT     H149832   8.869   7.918   1.787
16530WAT     H249833   8.938   8.066   1.798
16531WAT      O49834   4.868   0.319   7.270
16531WAT     H149835   4.834   0.226   7.279
16531WAT     H249836   4.875   0.361   7.360
16532WAT      O49837   9.573   0.087   2.967
16532WAT     H149838   9.509   0.157   2.999
16532WAT     H249839   9.531  -0.003   2.976
16533WAT      O49840   0.445   8.477   6.636
16533WAT     H149841   0.359   8.456   6.681
16533WAT     H249842   0.462   8.410   6.564
16534WAT      O49843   2.895   8.669   1.389
16534WAT     H149844   2.955   8.663   1.469
16534WAT     H249845   2.802   8.642   1.414
16535WAT      O49846   9.504   7.774   3.434
16535WAT     H149847   9.474   7.706   3.368
16535WAT     H249848   9.604   7.783   3.429
16536WAT      O49849   3.067   8.512   3.263
16536WAT     H149850   3.126   8.462   3.326
16536WAT     H249851   3.073   8.610   3.281
16537WAT      O49852   4.487   6.993   0.315
16537WAT     H149853   4.485   7.034   0.223
16537WAT     H249854   4.528   7.057   0.379
16538WAT      O49855   4.275   7.965   8.707
16538WAT     H149856   4.352   7.908   8.679
16538WAT     H249857   4.190   7.911   8.702
16539WAT      O49858   1.436   5.490   8.458
16539WAT     H149859   1.515   5.452   8.409
16539WAT     H249860   1.460   5.580   8.495
16540WAT      O49861   8.857   2.123   0.820
16540WAT     H149862   8.837   2.197   0.756
16540WAT     H249863   8.953   2.128   0.848
16541WAT      O49864   3.707   1.452   7.685
16541WAT     H149865   3.654   1.532   7.714
16541WAT     H249866   3.777   1.432   7.754
16542WAT      O49867   7.167   0.160   0.701
16542WAT     H149868   7.178   0.061   0.707
16542WAT     H249869   7.095   0.181   0.635
16543WAT      O49870   3.872   3.607   4.103
16543WAT     H149871   3.963   3.566   4.105
16543WAT     H249872   3.880   3.706   4.092
16544WAT      O49873   1.576   7.869   8.725
16544WAT     H149874   1.655   7.929   8.718
16544WAT     H249875   1.522   7.875   8.641
16545WAT      O49876   1.831   6.431   6.044
16545WAT     H149877   1.861   6.339   6.071
16545WAT     H249878   1.735   6.443   6.067
16546WAT      O49879   6.427   5.612   5.305
16546WAT     H149880   6.396   5.520   5.330
16546WAT     H249881   6.527   5.617   5.314
16547WAT      O49882   5.287   8.392   4.345
16547WAT     H149883   5.233   8.315   4.380
16547WAT     H249884   5.344   8.428   4.419
16548WAT      O49885   8.673   0.479   6.908
16548WAT     H149886   8.610   0.413   6.949
16548WAT     H249887   8.708   0.441   6.822
16549WAT      O49888   3.216   8.824   4.604
16549WAT     H149889   3.222   8.875   4.519
16549WAT     H249890   3.137   8.762   4.601
16550WAT      O49891   7.187   3.950   9.756
16550WAT     H149892   7.092   3.973   9.733
16550WAT     H249893   7.227   4.023   9.810
16551WAT      O49894   0.407   7.756   3.552
16551WAT     H149895   0.420   7.822   3.626
16551WAT     H249896   0.495   7.738   3.508
16552WAT      O49897   0.792   4.621   7.565
16552WAT     H149898   0.856   4.621   7.642
16552WAT     H249899   0.717   4.557   7.584
16553WAT      O49900   6.736   7.818   0.311
16553WAT     H149901   6.746   7.907   0.267
16553WAT     H249902   6.746   7.828   0.410
16554WAT      O49903   2.673   0.717   9.413
16554WAT     H149904   2.575   0.731   9.394
16554WAT     H249905   2.704   0.633   9.369
16555WAT      O49906   4.486   9.557   2.421
16555WAT     H149907   4.539   9.499   2.484
16555WAT     H249908   4.443   9.631   2.473
16556WAT      O49909   7.540   3.668   8.990
16556WAT     H149910   7.471   3.647   9.059
16556WAT     H249911   7.630   3.635   9.021
16557WAT      O49912   3.546   3.185   8.652
16557WAT     H149913   3.598   3.113   8.605
16557WAT     H249914   3.557   3.271   8.603
16558WAT      O49915   9.315   4.787   7.486
16558WAT     H149916   9.281   4.696   7.510
16558WAT     H249917   9.353   4.830   7.568
16559WAT      O49918   6.200   0.355   2.774
16559WAT     H149919   6.133   0.343   2.848
16559WAT     H249920   6.291   0.367   2.813
16560WAT      O49921   6.625   8.632   8.404
16560WAT     H149922   6.558   8.686   8.353
16560WAT     H249923   6.578   8.561   8.456
16561WAT      O49924   3.229   2.875   0.106
16561WAT     H149925   3.289   2.838   0.035
16561WAT     H249926   3.140   2.896   0.065
16562WAT      O49927   7.960   5.724   1.749
16562WAT     H149928   7.877   5.675   1.774
16562WAT     H249929   8.037   5.660   1.746
16563WAT      O49930   4.518   3.874   3.423
16563WAT     H149931   4.502   3.934   3.501
16563WAT     H249932   4.447   3.803   3.420
16564WAT      O49933   8.473   6.335   4.575
16564WAT     H149934   8.477   6.409   4.642
16564WAT     H249935   8.449   6.250   4.621
16565WAT      O49936   1.371   0.892   6.130
16565WAT     H149937   1.358   0.801   6.169
16565WAT     H249938   1.297   0.910   6.065
16566WAT      O49939   8.576   6.681   8.267
16566WAT     H149940   8.621   6.607   8.215
16566WAT     H249941   8.496   6.713   8.216
16567WAT      O49942   8.399   6.380   1.980
16567WAT     H149943   8.447   6.328   1.909
16567WAT     H249944   8.416   6.338   2.069
16568WAT      O49945   0.957   8.701   8.030
16568WAT     H149946   1.053   8.723   8.015
16568WAT     H249947   0.914   8.678   7.943
16569WAT      O49948   7.116   2.897   0.937
16569WAT     H149949   7.065   2.968   0.986
16569WAT     H249950   7.067   2.874   0.853
16570WAT      O49951   0.646   4.868   3.575
16570WAT     H149952   0.604   4.914   3.497
16570WAT     H249953   0.620   4.915   3.659
16571WAT      O49954   5.398   3.972   3.664
16571WAT     H149955   5.376   4.029   3.744
16571WAT     H249956   5.497   3.957   3.661
16572WAT      O49957   3.528   9.185   0.760
16572WAT     H149958   3.489   9.214   0.847
16572WAT     H249959   3.528   9.261   0.696
16573WAT      O49960   7.951   2.368   3.577
16573WAT     H149961   7.856   2.395   3.586
16573WAT     H249962   7.957   2.281   3.527
16574WAT      O49963   1.398   1.759   1.190
16574WAT     H149964   1.440   1.689   1.132
16574WAT     H249965   1.389   1.844   1.139
16575WAT      O49966   9.623   7.553   7.440
16575WAT     H149967   9.625   7.486   7.514
16575WAT     H249968   9.713   7.598   7.433
16576WAT      O49969   9.293   0.202   1.161
16576WAT     H149970   9.272   0.285   1.213
16576WAT     H249971   9.330   0.227   1.072
16577WAT      O49972   5.415   1.222   6.393
16577WAT     H149973   5.343   1.212   6.462
16577WAT     H249974   5.374   1.248   6.305
16578WAT      O49975   4.819   3.173   3.016
16578WAT     H149976   4.894   3.209   2.960
16578WAT     H249977   4.826   3.074   3.021
16579WAT      O49978   4.519   4.371   8.721
16579WAT     H149979   4.531   4.273   8.709
16579WAT     H249980   4.495   4.391   8.815
16580WAT      O49981   7.589   0.688   0.581
16580WAT     H149982   7.679   0.692   0.537
16580WAT     H249983   7.587   0.612   0.646
16581WAT      O49984   0.610   4.133   6.016
16581WAT     H149985   0.628   4.115   5.919
16581WAT     H249986   0.689   4.179   6.056
16582WAT      O49987   8.443   5.606   1.650
16582WAT     H149988   8.400   5.552   1.722
16582WAT     H249989   8.537   5.629   1.676
16583WAT      O49990   2.620   4.279   8.838
16583WAT     H149991   2.634   4.196   8.893
16583WAT     H249992   2.522   4.294   8.825
16584WAT      O49993   8.449   3.026   7.437
16584WAT     H149994   8.489   2.939   7.408
16584WAT     H249995   8.491   3.101   7.385
16585WAT      O49996   8.393   1.379   1.816
16585WAT     H149997   8.343   1.400   1.899
16585WAT     H249998   8.344   1.308   1.765
16586WAT      O49999   5.739   0.524   4.553
16586WAT     H150000   5.760   0.543   4.649
16586WAT     H250001   5.644   0.494   4.545
16587WAT      O50002   5.847   4.342   7.162
16587WAT     H150003   5.769   4.340   7.099
16587WAT     H250004   5.900   4.257   7.153
16588WAT      O50005   5.168   6.438   2.068
16588WAT     H150006   5.246   6.452   2.008
16588WAT     H250007   5.122   6.525   2.085
16589WAT      O50008   7.017   5.264   1.930
16589WAT     H150009   7.093   5.270   1.995
16589WAT     H250010   6.936   5.307   1.968
16590WAT      O50011   4.163   4.572   2.782
16590WAT     H150012   4.127   4.487   2.745
16590WAT     H250013   4.194   4.631   2.708
16591WAT      O50014   3.626   8.648   3.625
16591WAT     H150015   3.617   8.746   3.605
16591WAT     H250016   3.536   8.604   3.619
16592WAT      O50017   9.013   9.386   0.542
16592WAT     H150018   9.111   9.408   0.538
16592WAT     H250019   8.960   9.469   0.523
16593WAT      O50020   1.455   9.614   4.776
16593WAT     H150021   1.483   9.595   4.682
16593WAT     H250022   1.441   9.528   4.825
16594WAT      O50023   9.053   3.838   4.002
16594WAT     H150024   9.066   3.913   3.936
16594WAT     H250025   9.032   3.876   4.092
16595WAT      O50026   6.082   7.485   7.226
16595WAT     H150027   6.167   7.433   7.236
16595WAT     H250028   6.006   7.431   7.263
16596WAT      O50029   9.749   4.450   7.909
16596WAT     H150030   9.841   4.427   7.877
16596WAT     H250031   9.704   4.367   7.942
16597WAT      O50032   0.553   9.806   4.512
16597WAT     H150033   0.573   9.708   4.511
16597WAT     H250034   0.541   9.835   4.607
16598WAT      O50035   0.505   1.231   9.411
16598WAT     H150036   0.562   1.149   9.418
16598WAT     H250037   0.554   1.302   9.360
16599WAT      O50038   2.648   1.874   3.275
16599WAT     H150039   2.587   1.801   3.305
16599WAT     H250040   2.667   1.935   3.352
16600WAT      O50041   0.932   4.483   3.366
16600WAT     H150042   0.885   4.422   3.431
16600WAT     H250043   1.016   4.438   3.334
16601WAT      O50044   0.489   0.146   6.074
16601WAT     H150045   0.463   0.066   6.020
16601WAT     H250046   0.557   0.120   6.142
16602WAT      O50047   2.122   4.747   0.981
16602WAT     H150048   2.121   4.692   1.064
16602WAT     H250049   2.173   4.699   0.910
16603WAT      O50050   4.713   6.301   0.256
16603WAT     H150051   4.647   6.229   0.239
16603WAT     H250052   4.804   6.260   0.269
16604WAT      O50053   8.765   9.522   9.590
16604WAT     H150054   8.730   9.491   9.501
16604WAT     H250055   8.689   9.533   9.654
16605WAT      O50056   2.264   7.843   4.451
16605WAT     H150057   2.216   7.851   4.363
16605WAT     H250058   2.225   7.767   4.502
16606WAT      O50059   1.863   9.458   7.160
16606WAT     H150060   1.895   9.551   7.181
16606WAT     H250061   1.927   9.391   7.198
16607WAT      O50062   4.182   3.877   6.122
16607WAT     H150063   4.220   3.795   6.166
16607WAT     H250064   4.168   3.859   6.025
16608WAT      O50065   0.261   1.989   4.642
16608WAT     H150066   0.179   2.040   4.669
16608WAT     H250067   0.299   2.028   4.558
16609WAT      O50068   4.106   9.462   2.238
16609WAT     H150069   4.052   9.458   2.154
16609WAT     H250070   4.169   9.540   2.234
16610WAT      O50071   8.551   2.441   1.400
16610WAT     H150072   8.529   2.410   1.493
16610WAT     H250073   8.495   2.390   1.334
16611WAT      O50074   5.302   6.840   6.321
16611WAT     H150075   5.398   6.861   6.341
16611WAT     H250076   5.292   6.742   6.302
16612WAT      O50077   1.036   8.585   8.839
16612WAT     H150078   1.100   8.509   8.834
16612WAT     H250079   1.025   8.614   8.934
16613WAT      O50080   9.681   1.692   9.727
16613WAT     H150081   9.695   1.775   9.673
16613WAT     H250082   9.723   1.614   9.681
16614WAT      O50083   1.428   2.112   7.089
16614WAT     H150084   1.393   2.056   7.164
16614WAT     H250085   1.369   2.192   7.076
16615WAT      O50086   9.391   6.834   9.031
16615WAT     H150087   9.324   6.878   9.091
16615WAT     H250088   9.450   6.774   9.086
16616WAT      O50089   0.298   0.759   7.021
16616WAT     H150090   0.305   0.764   7.121
16616WAT     H250091   0.216   0.807   6.991
16617WAT      O50092   4.285   6.212   7.366
16617WAT     H150093   4.342   6.294   7.377
16617WAT     H250094   4.343   6.133   7.347
16618WAT      O50095   2.755   7.122   4.452
16618WAT     H150096   2.835   7.113   4.393
16618WAT     H250097   2.686   7.178   4.407
16619WAT      O50098   0.990   8.325   1.272
16619WAT     H150099   0.925   8.249   1.266
16619WAT     H250100   0.976   8.387   1.195
16620WAT      O50101   1.759   2.833   1.627
16620WAT     H150102   1.844   2.810   1.580
16620WAT     H250103   1.727   2.753   1.679
16621WAT      O50104   8.489   5.478   7.365
16621WAT     H150105   8.446   5.388   7.357
16621WAT     H250106   8.557   5.476   7.438
16622WAT      O50107   1.051   8.696   3.324
16622WAT     H150108   0.956   8.683   3.352
16622WAT     H250109   1.056   8.771   3.257
16623WAT      O50110   9.479   5.224   1.577
16623WAT     H150111   9.515   5.285   1.647
16623WAT     H250112   9.553   5.195   1.516
16624WAT      O50113   0.674   6.742   9.072
16624WAT     H150114   0.580   6.743   9.105
16624WAT     H250115   0.729   6.684   9.131
16625WAT      O50116   1.276   1.712   4.696
16625WAT     H150117   1.357   1.663   4.665
16625WAT     H250118   1.198   1.689   4.638
16626WAT      O50119   6.251   9.592   2.702
16626WAT     H150120   6.206   9.680   2.714
16626WAT     H250121   6.348   9.601   2.724
16627WAT      O50122   6.558   4.314   8.416
16627WAT     H150123   6.549   4.267   8.504
16627WAT     H250124   6.568   4.412   8.431
16628WAT      O50125   5.291   3.330   5.358
16628WAT     H150126   5.293   3.403   5.289
16628WAT     H250127   5.358   3.260   5.335
16629WAT      O50128   4.497   9.167   4.021
16629WAT     H150129   4.516   9.139   3.926
16629WAT     H250130   4.552   9.112   4.084
16630WAT      O50131   7.058   7.915   0.550
16630WAT     H150132   7.027   7.949   0.461
16630WAT     H250133   7.007   7.961   0.622
16631WAT      O50134   3.087   8.554   9.453
16631WAT     H150135   3.150   8.571   9.529
16631WAT     H250136   3.139   8.519   9.375
16632WAT      O50137   1.805   7.062   7.055
16632WAT     H150138   1.841   7.141   7.005
16632WAT     H250139   1.783   6.989   6.990
16633WAT      O50140   9.765   9.693   6.115
16633WAT     H150141   9.738   9.598   6.125
16633WAT     H250142   9.707   9.738   6.047
16634WAT      O50143   0.871   4.465   5.420
16634WAT     H150144   0.815   4.545   5.399
16634WAT     H250145   0.957   4.495   5.462
16635WAT      O50146   2.140   5.618   8.848
16635WAT     H150147   2.200   5.562   8.791
16635WAT     H250148   2.194   5.683   8.901
16636WAT      O50149   8.323   0.921   2.043
16636WAT     H150150   8.377   0.854   1.991
16636WAT     H250151   8.255   0.963   1.983
16637WAT      O50152   1.147   4.284   1.931
16637WAT     H150153   1.234   4.262   1.887
16637WAT     H250154   1.078   4.215   1.906
16638WAT      O50155   7.782   5.971   3.591
16638WAT     H150156   7.734   6.059   3.586
16638WAT     H250157   7.845   5.972   3.669
16639WAT      O50158   5.266   7.555   7.532
16639WAT     H150159   5.339   7.490   7.555
16639WAT     H250160   5.177   7.511   7.546
16640WAT      O50161   6.594   8.285   7.678
16640WAT     H150162   6.618   8.277   7.581
16640WAT     H250163   6.677   8.305   7.731
16641WAT      O50164   5.029   9.072   8.362
16641WAT     H150165   5.090   9.029   8.428
16641WAT     H250166   5.038   9.172   8.368
16642WAT      O50167   3.229   8.700   7.787
16642WAT     H150168   3.211   8.603   7.798
16642WAT     H250169   3.189   8.751   7.863
16643WAT      O50170   1.237   0.700   6.589
16643WAT     H150171   1.180   0.618   6.581
16643WAT     H250172   1.247   0.724   6.685
16644WAT      O50173   8.538   3.199   3.233
16644WAT     H150174   8.494   3.276   3.279
16644WAT     H250175   8.543   3.121   3.295
16645WAT      O50176   6.163   4.957   5.314
16645WAT     H150177   6.070   4.940   5.284
16645WAT     H250178   6.175   4.926   5.409
16646WAT      O50179   1.240   6.817   4.370
16646WAT     H150180   1.276   6.745   4.430
16646WAT     H250181   1.301   6.896   4.373
16647WAT      O50182   5.114   1.275   4.508
16647WAT     H150183   5.072   1.191   4.474
16647WAT     H250184   5.042   1.338   4.538
16648WAT      O50185   1.257   7.260   0.254
16648WAT     H150186   1.257   7.165   0.223
16648WAT     H250187   1.184   7.310   0.208
16649WAT      O50188   1.216   3.163   3.177
16649WAT     H150189   1.135   3.191   3.125
16649WAT     H250190   1.213   3.207   3.267
16650WAT      O50191   4.665   5.207   2.194
16650WAT     H150192   4.616   5.144   2.255
16650WAT     H250193   4.624   5.204   2.103
16651WAT      O50194   0.522   8.697   3.593
16651WAT     H150195   0.515   8.716   3.691
16651WAT     H250196   0.526   8.783   3.542
16652WAT      O50197   0.946   1.538   0.014
16652WAT     H150198   0.970   1.529  -0.082
16652WAT     H250199   0.859   1.494   0.032
16653WAT      O50200   2.374   6.712   9.552
16653WAT     H150201   2.369   6.809   9.527
16653WAT     H250202   2.402   6.703   9.647
16654WAT      O50203   8.956   2.362   2.334
16654WAT     H150204   8.998   2.414   2.259
16654WAT     H250205   8.983   2.402   2.422
16655WAT      O50206   3.564   2.013   1.938
16655WAT     H150207   3.483   2.005   1.995
16655WAT     H250208   3.635   2.063   1.987
16656WAT      O50209   6.728   8.533   0.407
16656WAT     H150210   6.675   8.613   0.378
16656WAT     H250211   6.681   8.488   0.482
16657WAT      O50212   8.293   8.992   8.695
16657WAT     H150213   8.359   8.923   8.724
16657WAT     H250214   8.200   8.955   8.702
16658WAT      O50215   4.666   7.027   3.491
16658WAT     H150216   4.693   7.103   3.433
16658WAT     H250217   4.657   6.944   3.436
16659WAT      O50218   4.868   7.754   1.552
16659WAT     H150219   4.877   7.833   1.613
16659WAT     H250220   4.773   7.747   1.520
16660WAT      O50221   5.320   4.514   1.532
16660WAT     H150222   5.287   4.430   1.574
16660WAT     H250223   5.331   4.499   1.433
16661WAT      O50224   1.826   4.366   6.671
16661WAT     H150225   1.804   4.312   6.590
16661WAT     H250226   1.814   4.309   6.753
16662WAT      O50227   6.394   2.624   0.716
16662WAT     H150228   6.478   2.575   0.741
16662WAT     H250229   6.369   2.602   0.622
16663WAT      O50230   9.414   3.191   4.828
16663WAT     H150231   9.374   3.252   4.896
16663WAT     H250232   9.375   3.100   4.837
16664WAT      O50233   8.200   5.928   1.817
16664WAT     H150234   8.267   5.890   1.881
16664WAT     H250235   8.128   5.862   1.801
16665WAT      O50236   4.559   6.097   9.035
16665WAT     H150237   4.521   6.010   9.068
16665WAT     H250238   4.658   6.093   9.038
16666WAT      O50239   5.843   4.657   4.416
16666WAT     H150240   5.820   4.754   4.423
16666WAT     H250241   5.790   4.606   4.484
16667WAT      O50242   9.794   5.204   0.552
16667WAT     H150243   9.851   5.245   0.623
16667WAT     H250244   9.699   5.201   0.583
16668WAT      O50245   1.817   3.663   7.497
16668WAT     H150246   1.907   3.637   7.533
16668WAT     H250247   1.769   3.580   7.467
16669WAT      O50248   7.695   9.371   6.654
16669WAT     H150249   7.733   9.419   6.576
16669WAT     H250250   7.766   9.315   6.697
16670WAT      O50251   7.285   5.720   5.962
16670WAT     H150252   7.317   5.626   5.948
16670WAT     H250253   7.354   5.784   5.929
16671WAT      O50254   3.197   7.442   7.027
16671WAT     H150255   3.143   7.368   7.067
16671WAT     H250256   3.293   7.414   7.024
16672WAT      O50257   2.548   4.620   4.912
16672WAT     H150258   2.504   4.699   4.954
16672WAT     H250259   2.586   4.646   4.823
16673WAT      O50260   4.976   9.047   7.438
16673WAT     H150261   4.890   9.097   7.434
16673WAT     H250262   4.971   8.966   7.379
16674WAT      O50263   6.726   2.402   4.409
16674WAT     H150264   6.821   2.410   4.442
16674WAT     H250265   6.709   2.470   4.339
16675WAT      O50266   5.992   8.668   6.348
16675WAT     H150267   6.004   8.622   6.436
16675WAT     H250268   5.896   8.663   6.320
16676WAT      O50269   4.923   4.056   6.111
16676WAT     H150270   4.941   4.093   6.202
16676WAT     H250271   5.009   4.027   6.069
16677WAT      O50272   3.550   9.108   2.690
16677WAT     H150273   3.622   9.165   2.728
16677WAT     H250274   3.568   9.012   2.711
16678WAT      O50275   5.412   2.924   7.954
16678WAT     H150276   5.413   2.870   8.038
16678WAT     H250277   5.486   2.894   7.894
16679WAT      O50278   3.557   7.338   5.320
16679WAT     H150279   3.468   7.367   5.358
16679WAT     H250280   3.619   7.416   5.319
16680WAT      O50281   8.078   3.676   4.435
16680WAT     H150282   8.032   3.757   4.471
16680WAT     H250283   8.105   3.692   4.340
16681WAT      O50284   8.719   5.306   1.364
16681WAT     H150285   8.637   5.358   1.389
16681WAT     H250286   8.767   5.353   1.290
16682WAT      O50287   1.580   0.269   0.646
16682WAT     H150288   1.672   0.294   0.615
16682WAT     H250289   1.585   0.235   0.740
16683WAT      O50290   6.449   7.469   0.331
16683WAT     H150291   6.521   7.426   0.277
16683WAT     H250292   6.456   7.569   0.322
16684WAT      O50293   8.467   2.530   4.433
16684WAT     H150294   8.471   2.609   4.494
16684WAT     H250295   8.552   2.523   4.381
16685WAT      O50296   7.479   9.558   5.412
16685WAT     H150297   7.460   9.615   5.332
16685WAT     H250298   7.439   9.468   5.399
16686WAT      O50299   2.225   1.029   4.442
16686WAT     H150300   2.320   1.054   4.463
16686WAT     H250301   2.166   1.108   4.457
16687WAT      O50302   8.956   6.428   9.762
16687WAT     H150303   9.016   6.436   9.842
16687WAT     H250304   8.995   6.362   9.698
16688WAT      O50305   7.967   9.560   4.050
16688WAT     H150306   7.926   9.637   4.099
16688WAT     H250307   7.896   9.495   4.023
16689WAT      O50308   5.649   6.234   4.872
16689WAT     H150309   5.718   6.168   4.844
16689WAT     H250310   5.673   6.272   4.961
16690WAT      O50311   8.254   2.546   5.091
16690WAT     H150312   8.181   2.595   5.139
16690WAT     H250313   8.262   2.454   5.129
16691WAT      O50314   8.560   1.735   7.295
16691WAT     H150315   8.619   1.684   7.357
16691WAT     H250316   8.468   1.742   7.335
16692WAT      O50317   4.939   8.789   7.340
16692WAT     H150318   4.984   8.699   7.345
16692WAT     H250319   4.852   8.785   7.389
16693WAT      O50320   5.462   3.424   9.601
16693WAT     H150321   5.462   3.453   9.505
16693WAT     H250322   5.414   3.337   9.608
16694WAT      O50323   3.619   9.743   2.057
16694WAT     H150324   3.689   9.681   2.092
16694WAT     H250325   3.561   9.773   2.133
16695WAT      O50326   9.468   0.559   7.055
16695WAT     H150327   9.563   0.570   7.028
16695WAT     H250328   9.463   0.516   7.145
16696WAT      O50329   3.354   7.825   0.619
16696WAT     H150330   3.363   7.870   0.708
16696WAT     H250331   3.300   7.742   0.629
16697WAT      O50332   4.340   4.738   2.167
16697WAT     H150333   4.352   4.834   2.143
16697WAT     H250334   4.428   4.701   2.200
16698WAT      O50335   6.272   6.163   8.714
16698WAT     H150336   6.368   6.193   8.714
16698WAT     H250337   6.261   6.090   8.646
16699WAT      O50338   1.289   7.780   5.300
16699WAT     H150339   1.245   7.759   5.212
16699WAT     H250340   1.363   7.715   5.316
16700WAT      O50341   8.353   1.901   0.423
16700WAT     H150342   8.260   1.897   0.459
16700WAT     H250343   8.371   1.821   0.367
16701WAT      O50344   7.036   3.998   6.687
16701WAT     H150345   7.134   3.986   6.669
16701WAT     H250346   7.024   4.063   6.762
16702WAT      O50347   0.556   2.521   2.761
16702WAT     H150348   0.467   2.500   2.720
16702WAT     H250349   0.628   2.510   2.692
16703WAT      O50350   3.903   5.649   1.993
16703WAT     H150351   3.977   5.595   2.033
16703WAT     H250352   3.816   5.619   2.032
16704WAT      O50353   7.605   6.538   6.608
16704WAT     H150354   7.535   6.609   6.623
16704WAT     H250355   7.646   6.550   6.518
16705WAT      O50356   6.247   3.163   1.667
16705WAT     H150357   6.256   3.208   1.578
16705WAT     H250358   6.281   3.224   1.739
16706WAT      O50359   8.677   6.119   8.343
16706WAT     H150360   8.684   6.051   8.270
16706WAT     H250361   8.768   6.153   8.366
16707WAT      O50362   9.027   5.033   3.091
16707WAT     H150363   9.000   5.116   3.042
16707WAT     H250364   9.072   4.970   3.028
16708WAT      O50365   2.015   3.251   9.541
16708WAT     H150366   2.081   3.185   9.506
16708WAT     H250367   1.922   3.225   9.513
16709WAT      O50368   6.135   9.746   8.149
16709WAT     H150369   6.080   9.684   8.204
16709WAT     H250370   6.083   9.777   8.070
16710WAT      O50371   5.825   4.969   9.882
16710WAT     H150372   5.763   4.967   9.960
16710WAT     H250373   5.808   5.052   9.828
16711WAT      O50374   0.948   0.374   6.305
16711WAT     H150375   0.875   0.433   6.270
16711WAT     H250376   0.957   0.294   6.245
16712WAT      O50377   1.663   2.917   4.513
16712WAT     H150378   1.598   2.973   4.462
16712WAT     H250379   1.699   2.970   4.590
16713WAT      O50380   5.297   1.398   0.494
16713WAT     H150381   5.297   1.301   0.516
16713WAT     H250382   5.387   1.437   0.515
16714WAT      O50383   9.356   6.175   6.394
16714WAT     H150384   9.357   6.115   6.474
16714WAT     H250385   9.350   6.270   6.423
16715WAT      O50386   1.392   6.272   7.913
16715WAT     H150387   1.402   6.371   7.920
16715WAT     H250388   1.333   6.250   7.835
16716WAT      O50389   3.355   1.917   1.759
16716WAT     H150390   3.282   1.983   1.744
16716WAT     H250391   3.443   1.964   1.760
16717WAT      O50392   8.542   4.102   2.440
16717WAT     H150393   8.506   4.009   2.449
16717WAT     H250394   8.467   4.165   2.421
16718WAT      O50395   4.504   3.597   1.478
16718WAT     H150396   4.581   3.660   1.467
16718WAT     H250397   4.429   3.625   1.417
16719WAT      O50398   4.401   3.585   1.013
16719WAT     H150399   4.361   3.606   0.923
16719WAT     H250400   4.493   3.624   1.018
16720WAT      O50401   7.862   3.295   2.343
16720WAT     H150402   7.875   3.199   2.321
16720WAT     H250403   7.829   3.305   2.437
16721WAT      O50404   3.950   5.653   6.961
16721WAT     H150405   3.983   5.603   7.041
16721WAT     H250406   3.879   5.717   6.990
16722WAT      O50407   7.951   3.067   6.622
16722WAT     H150408   7.995   3.152   6.594
16722WAT     H250409   7.916   3.019   6.541
16723WAT      O50410   9.334   3.010   5.445
16723WAT     H150411   9.312   2.982   5.538
16723WAT     H250412   9.408   2.952   5.410
16724WAT      O50413   1.349   9.401   5.869
16724WAT     H150414   1.447   9.419   5.869
16724WAT     H250415   1.330   9.323   5.810
16725WAT      O50416   3.742   4.133   2.769
16725WAT     H150417   3.745   4.035   2.748
16725WAT     H250418   3.715   4.184   2.687
16726WAT      O50419   3.679   9.300   5.960
16726WAT     H150420   3.604   9.321   5.897
16726WAT     H250421   3.670   9.355   6.042
16727WAT      O50422   0.074   2.750   1.091
16727WAT     H150423   0.058   2.832   1.035
16727WAT     H250424  -0.006   2.690   1.086
16728WAT      O50425   1.389   0.036   6.448
16728WAT     H150426   1.382   0.056   6.546
16728WAT     H250427   1.404  -0.062   6.434
16729WAT      O50428   7.776   7.186   3.973
16729WAT     H150429   7.807   7.091   3.976
16729WAT     H250430   7.734   7.204   3.884
16730WAT      O50431   8.290   2.264   6.334
16730WAT     H150432   8.231   2.335   6.373
16730WAT     H250433   8.352   2.305   6.267
16731WAT      O50434   4.328   6.172   0.105
16731WAT     H150435   4.254   6.111   0.078
16731WAT     H250436   4.301   6.224   0.186
16732WAT      O50437   9.084   4.097   5.193
16732WAT     H150438   9.030   4.118   5.274
16732WAT     H250439   9.079   3.999   5.174
16733WAT      O50440   9.305   2.913   6.376
16733WAT     H150441   9.360   2.986   6.335
16733WAT     H250442   9.217   2.907   6.329
16734WAT      O50443   7.692   6.027   5.796
16734WAT     H150444   7.781   6.018   5.839
16734WAT     H250445   7.702   6.022   5.697
16735WAT      O50446   5.632   8.829   6.330
16735WAT     H150447   5.692   8.908   6.319
16735WAT     H250448   5.641   8.792   6.422
16736WAT      O50449   5.743   4.361   7.791
16736WAT     H150450   5.724   4.458   7.808
16736WAT     H250451   5.827   4.335   7.838
16737WAT      O50452   2.461   0.872   4.943
16737WAT     H150453   2.390   0.821   4.895
16737WAT     H250454   2.488   0.823   5.026
16738WAT      O50455   0.191   9.365   0.930
16738WAT     H150456   0.161   9.457   0.906
16738WAT     H250457   0.261   9.334   0.865
16739WAT      O50458   5.170   6.964   7.026
16739WAT     H150459   5.191   6.878   7.073
16739WAT     H250460   5.131   6.944   6.936
16740WAT      O50461   6.739   5.288   9.086
16740WAT     H150462   6.799   5.352   9.037
16740WAT     H250463   6.776   5.273   9.178
16741WAT      O50464   3.073   0.859   4.664
16741WAT     H150465   3.072   0.866   4.764
16741WAT     H250466   3.103   0.946   4.625
16742WAT      O50467   8.794   9.621   0.991
16742WAT     H150468   8.869   9.568   1.029
16742WAT     H250469   8.714   9.612   1.050
16743WAT      O50470   8.020   5.979   4.906
16743WAT     H150471   8.049   6.020   4.993
16743WAT     H250472   7.976   6.049   4.850
16744WAT      O50473   2.278   0.273   5.724
16744WAT     H150474   2.273   0.240   5.818
16744WAT     H250475   2.197   0.243   5.674
16745WAT      O50476   1.267   7.409   2.372
16745WAT     H150477   1.275   7.453   2.282
16745WAT     H250478   1.321   7.460   2.439
16746WAT      O50479   7.129   6.414   9.168
16746WAT     H150480   7.188   6.495   9.166
16746WAT     H250481   7.039   6.439   9.205
16747WAT      O50482   7.986   1.604   2.077
16747WAT     H150483   7.952   1.697   2.094
16747WAT     H250484   7.996   1.555   2.164
16748WAT      O50485   9.040   7.712   9.779
16748WAT     H150486   9.038   7.671   9.870
16748WAT     H250487   9.134   7.712   9.744
16749WAT      O50488   4.556   1.748   7.223
16749WAT     H150489   4.474   1.707   7.264
16749WAT     H250490   4.595   1.685   7.156
16750WAT      O50491   2.462   5.843   2.825
16750WAT     H150492   2.435   5.756   2.867
16750WAT     H250493   2.493   5.827   2.732
16751WAT      O50494   2.614   2.450   4.007
16751WAT     H150495   2.538   2.483   3.950
16751WAT     H250496   2.651   2.526   4.060
16752WAT      O50497   7.287   7.750   7.700
16752WAT     H150498   7.253   7.814   7.768
16752WAT     H250499   7.233   7.666   7.703
16753WAT      O50500   8.943   5.405   0.480
16753WAT     H150501   9.030   5.362   0.457
16753WAT     H250502   8.959   5.490   0.530
16754WAT      O50503   6.555   8.988   5.536
16754WAT     H150504   6.622   8.923   5.500
16754WAT     H250505   6.515   9.040   5.460
16755WAT      O50506   7.830   3.250   4.384
16755WAT     H150507   7.803   3.182   4.453
16755WAT     H250508   7.899   3.210   4.324
16756WAT      O50509   9.181   5.509   7.707
16756WAT     H150510   9.083   5.493   7.699
16756WAT     H250511   9.211   5.573   7.636
16757WAT      O50512   9.172   8.193   3.372
16757WAT     H150513   9.262   8.234   3.356
16757WAT     H250514   9.183   8.102   3.410
16758WAT      O50515   7.468   7.291   4.229
16758WAT     H150516   7.413   7.374   4.226
16758WAT     H250517   7.436   7.232   4.303
16759WAT      O50518   0.529   7.619   2.425
16759WAT     H150519   0.549   7.713   2.398
16759WAT     H250520   0.546   7.559   2.346
16760WAT      O50521   7.109   9.252   2.310
16760WAT     H150522   7.141   9.211   2.224
16760WAT     H250523   7.188   9.276   2.366
16761WAT      O50524   4.788   4.296   7.531
16761WAT     H150525   4.771   4.199   7.514
16761WAT     H250526   4.702   4.346   7.533
16762WAT      O50527   3.007   3.275   7.302
16762WAT     H150528   3.042   3.366   7.323
16762WAT     H250529   2.911   3.282   7.276
16763WAT      O50530   1.328   0.771   7.941
16763WAT     H150531   1.375   0.744   7.857
16763WAT     H250532   1.307   0.689   7.994
16764WAT      O50533   2.809   6.485   0.043
16764WAT     H150534   2.775   6.446   0.129
16764WAT     H250535   2.780   6.580   0.036
16765WAT      O50536   1.569   0.080   1.849
16765WAT     H150537   1.477   0.084   1.889
16765WAT     H250538   1.617   0.166   1.867
16766WAT      O50539   8.418   8.827   4.286
16766WAT     H150540   8.418   8.901   4.354
16766WAT     H250541   8.408   8.739   4.332
16767WAT      O50542   1.862   7.678   9.762
16767WAT     H150543   1.945   7.629   9.791
16767WAT     H250544   1.783   7.617   9.768
16768WAT      O50545   0.943   5.265   5.203
16768WAT     H150546   0.909   5.173   5.183
16768WAT     H250547   0.944   5.279   5.302
16769WAT      O50548   3.790   0.968   6.370
16769WAT     H150549   3.696   0.963   6.337
16769WAT     H250550   3.823   0.876   6.392
16770WAT      O50551   2.043   7.948   4.925
16770WAT     H150552   2.126   7.971   4.976
16770WAT     H250553   2.010   8.028   4.876
16771WAT      O50554   6.936   8.171   2.622
16771WAT     H150555   6.900   8.183   2.530
16771WAT     H250556   6.870   8.204   2.689
16772WAT      O50557   6.887   7.850   3.652
16772WAT     H150558   6.843   7.911   3.718
16772WAT     H250559   6.874   7.755   3.680
16773WAT      O50560   0.294   6.416   7.184
16773WAT     H150561   0.251   6.464   7.260
16773WAT     H250562   0.282   6.470   7.100
16774WAT      O50563   2.019   3.090   3.106
16774WAT     H150564   1.943   3.024   3.112
16774WAT     H250565   2.051   3.111   3.199
16775WAT      O50566   9.862   9.623   2.355
16775WAT     H150567   9.837   9.666   2.269
16775WAT     H250568   9.826   9.677   2.432
16776WAT      O50569   9.625   9.080   9.096
16776WAT     H150570   9.673   9.165   9.075
16776WAT     H250571   9.691   9.007   9.112
16777WAT      O50572   2.108   6.217   2.830
16777WAT     H150573   2.121   6.121   2.805
16777WAT     H250574   2.123   6.228   2.928
16778WAT      O50575   7.909   7.411   4.001
16778WAT     H150576   7.887   7.445   4.093
16778WAT     H250577   7.866   7.322   3.987
16779WAT      O50578   0.660   5.756   3.587
16779WAT     H150579   0.735   5.817   3.562
16779WAT     H250580   0.695   5.681   3.643
16780WAT      O50581   1.248   8.296   6.924
16780WAT     H150582   1.204   8.206   6.920
16780WAT     H250583   1.307   8.300   7.005
16781WAT      O50584   6.614   4.605   8.459
16781WAT     H150585   6.657   4.679   8.510
16781WAT     H250586   6.685   4.549   8.416
16782WAT      O50587   5.693   5.055   3.817
16782WAT     H150588   5.776   5.081   3.866
16782WAT     H250589   5.702   5.081   3.721
16783WAT      O50590   3.997   1.162   9.328
16783WAT     H150591   4.084   1.212   9.333
16783WAT     H250592   4.014   1.064   9.341
16784WAT      O50593   0.459   5.953   3.589
16784WAT     H150594   0.541   5.896   3.597
16784WAT     H250595   0.486   6.049   3.574
16785WAT      O50596   8.915   0.429   5.460
16785WAT     H150597   8.876   0.351   5.509
16785WAT     H250598   9.000   0.457   5.506
16786WAT      O50599   2.260   2.005   6.435
16786WAT     H150600   2.324   1.963   6.370
16786WAT     H250601   2.197   1.935   6.470
16787WAT      O50602   7.665   8.445   7.314
16787WAT     H150603   7.678   8.450   7.413
16787WAT     H250604   7.596   8.375   7.293
16788WAT      O50605   1.113   3.870   4.433
16788WAT     H150606   1.167   3.828   4.505
16788WAT     H250607   1.168   3.876   4.349
16789WAT      O50608   8.015   1.430   4.005
16789WAT     H150609   8.025   1.518   3.957
16789WAT     H250610   8.071   1.430   4.087
16790WAT      O50611   6.281   3.663   8.514
16790WAT     H150612   6.301   3.668   8.416
16790WAT     H250613   6.343   3.598   8.557
16791WAT      O50614   1.016   3.276   1.703
16791WAT     H150615   1.099   3.256   1.652
16791WAT     H250616   1.032   3.261   1.801
16792WAT      O50617   0.960   6.216   1.317
16792WAT     H150618   0.984   6.213   1.220
16792WAT     H250619   0.937   6.310   1.343
16793WAT      O50620   7.494   0.879   6.883
16793WAT     H150621   7.433   0.958   6.872
16793WAT     H250622   7.462   0.822   6.958
16794WAT      O50623   7.735   1.735   1.937
16794WAT     H150624   7.759   1.693   1.850
16794WAT     H250625   7.646   1.780   1.929
16795WAT      O50626   2.424   5.444   8.979
16795WAT     H150627   2.376   5.456   9.066
16795WAT     H250628   2.510   5.495   8.982
16796WAT      O50629   0.794   3.581   7.016
16796WAT     H150630   0.843   3.665   6.996
16796WAT     H250631   0.797   3.563   7.114
16797WAT      O50632   5.463   3.491   7.471
16797WAT     H150633   5.476   3.550   7.551
16797WAT     H250634   5.494   3.539   7.389
16798WAT      O50635   1.256   2.171   5.548
16798WAT     H150636   1.326   2.100   5.557
16798WAT     H250637   1.240   2.214   5.636
16799WAT      O50638   1.673   3.807   8.019
16799WAT     H150639   1.719   3.767   7.939
16799WAT     H250640   1.710   3.767   8.102
16800WAT      O50641   6.591   1.047   9.111
16800WAT     H150642   6.587   1.129   9.053
16800WAT     H250643   6.501   1.031   9.152
16801WAT      O50644   7.696   5.060   5.958
16801WAT     H150645   7.636   5.006   6.017
16801WAT     H250646   7.788   5.020   5.958
16802WAT      O50647   7.029   0.277   0.883
16802WAT     H150648   7.091   0.236   0.816
16802WAT     H250649   6.952   0.214   0.899
16803WAT      O50650   8.699   8.400   0.938
16803WAT     H150651   8.759   8.450   0.876
16803WAT     H250652   8.703   8.302   0.918
16804WAT      O50653   1.178   9.075   9.121
16804WAT     H150654   1.218   8.985   9.103
16804WAT     H250655   1.147   9.079   9.216
16805WAT      O50656   7.714   8.989   9.686
16805WAT     H150657   7.706   9.070   9.744
16805WAT     H250658   7.640   8.925   9.706
16806WAT      O50659   5.959   5.436   1.518
16806WAT     H150660   6.023   5.386   1.460
16806WAT     H250661   5.935   5.379   1.597
16807WAT      O50662   9.152   1.165   8.192
16807WAT     H150663   9.181   1.120   8.108
16807WAT     H250664   9.176   1.108   8.271
16808WAT      O50665   8.287   0.414   6.483
16808WAT     H150666   8.329   0.423   6.573
16808WAT     H250667   8.354   0.376   6.419
16809WAT      O50668   3.314   1.736   7.725
16809WAT     H150669   3.331   1.824   7.682
16809WAT     H250670   3.217   1.727   7.746
16810WAT      O50671   8.316   2.677   5.576
16810WAT     H150672   8.345   2.701   5.483
16810WAT     H250673   8.371   2.601   5.610
16811WAT      O50674   1.924   6.888   3.783
16811WAT     H150675   1.972   6.941   3.713
16811WAT     H250676   1.977   6.808   3.808
16812WAT      O50677   6.989   8.094   2.116
16812WAT     H150678   6.926   8.107   2.040
16812WAT     H250679   7.046   8.174   2.127
16813WAT      O50680   7.553   9.143   1.722
16813WAT     H150681   7.598   9.120   1.809
16813WAT     H250682   7.463   9.182   1.741
16814WAT      O50683   1.697   7.294   0.165
16814WAT     H150684   1.659   7.202   0.168
16814WAT     H250685   1.695   7.334   0.257
16815WAT      O50686   7.266   3.975   6.291
16815WAT     H150687   7.261   3.938   6.384
16815WAT     H250688   7.256   3.900   6.226
16816WAT      O50689   1.011   5.693   3.426
16816WAT     H150690   1.111   5.693   3.423
16816WAT     H250691   0.975   5.672   3.335
16817WAT      O50692   4.743   7.901   6.103
16817WAT     H150693   4.736   7.951   6.189
16817WAT     H250694   4.676   7.935   6.038
16818WAT      O50695   2.518   3.052   5.043
16818WAT     H150696   2.482   3.049   5.136
16818WAT     H250697   2.533   2.959   5.010
16819WAT      O50698   6.723   2.735   7.327
16819WAT     H150699   6.761   2.689   7.246
16819WAT     H250700   6.699   2.667   7.396
16820WAT      O50701   7.995   8.718   1.057
16820WAT     H150702   7.981   8.625   1.091
16820WAT     H250703   7.972   8.723   0.960
16821WAT      O50704   9.691   3.894   4.624
16821WAT     H150705   9.677   3.978   4.676
16821WAT     H250706   9.689   3.815   4.685
16822WAT      O50707   6.912   2.299   4.655
16822WAT     H150708   6.843   2.346   4.709
16822WAT     H250709   6.953   2.363   4.590
16823WAT      O50710   9.022   5.887   7.864
16823WAT     H150711   8.985   5.805   7.821
16823WAT     H250712   8.973   5.968   7.832
16824WAT      O50713   3.712   7.159   9.115
16824WAT     H150714   3.795   7.212   9.095
16824WAT     H250715   3.696   7.093   9.042
16825WAT      O50716   6.214   8.026   5.163
16825WAT     H150717   6.303   8.055   5.198
16825WAT     H250718   6.214   8.028   5.063
16826WAT      O50719   2.031   9.584   8.030
16826WAT     H150720   2.036   9.523   8.110
16826WAT     H250721   1.944   9.632   8.029
16827WAT      O50722   0.376   9.080   7.313
16827WAT     H150723   0.442   9.154   7.328
16827WAT     H250724   0.399   9.002   7.371
16828WAT      O50725   0.630   0.082   0.404
16828WAT     H150726   0.672   0.169   0.431
16828WAT     H250727   0.646   0.066   0.307
16829WAT      O50728   4.238   8.885   4.009
16829WAT     H150729   4.243   8.924   3.917
16829WAT     H250730   4.193   8.796   4.006
16830WAT      O50731   2.903   2.376   2.406
16830WAT     H150732   2.845   2.453   2.432
16830WAT     H250733   2.889   2.300   2.471
16831WAT      O50734   4.732   7.528   6.153
16831WAT     H150735   4.795   7.459   6.117
16831WAT     H250736   4.642   7.514   6.112
16832WAT      O50737   0.953   9.134   5.744
16832WAT     H150738   0.995   9.221   5.716
16832WAT     H250739   0.987   9.061   5.685
16833WAT      O50740   4.910   4.082   4.124
16833WAT     H150741   4.838   4.039   4.071
16833WAT     H250742   4.869   4.131   4.201
16834WAT      O50743   4.563   8.003   5.365
16834WAT     H150744   4.522   8.071   5.427
16834WAT     H250745   4.557   7.912   5.407
16835WAT      O50746   7.856   0.388   5.770
16835WAT     H150747   7.902   0.404   5.857
16835WAT     H250748   7.920   0.400   5.694
16836WAT      O50749   2.081   1.306   7.589
16836WAT     H150750   2.109   1.281   7.496
16836WAT     H250751   2.030   1.231   7.630
16837WAT      O50752   9.370   5.356   9.161
16837WAT     H150753   9.277   5.330   9.137
16837WAT     H250754   9.385   5.340   9.259
16838WAT      O50755   5.420   0.284   5.104
16838WAT     H150756   5.431   0.382   5.121
16838WAT     H250757   5.496   0.234   5.145
16839WAT      O50758   9.509   3.387   1.039
16839WAT     H150759   9.510   3.289   1.063
16839WAT     H250760   9.423   3.428   1.067
16840WAT      O50761   6.788   0.588   5.713
16840WAT     H150762   6.824   0.508   5.760
16840WAT     H250763   6.713   0.560   5.653
16841WAT      O50764   4.790   7.152   3.711
16841WAT     H150765   4.815   7.083   3.779
16841WAT     H250766   4.756   7.107   3.629
16842WAT      O50767   4.899   0.259   4.361
16842WAT     H150768   4.881   0.343   4.311
16842WAT     H250769   4.918   0.185   4.296
16843WAT      O50770   7.934   9.214   6.207
16843WAT     H150771   7.877   9.132   6.217
16843WAT     H250772   7.948   9.255   6.298
16844WAT      O50773   1.776   5.530   5.655
16844WAT     H150774   1.753   5.603   5.591
16844WAT     H250775   1.875   5.522   5.662
16845WAT      O50776   2.739   2.886   6.527
16845WAT     H150777   2.769   2.848   6.439
16845WAT     H250778   2.767   2.982   6.533
16846WAT      O50779   1.117   6.786   4.653
16846WAT     H150780   1.172   6.703   4.666
16846WAT     H250781   1.054   6.772   4.577
16847WAT      O50782   4.861   4.146   5.624
16847WAT     H150783   4.854   4.238   5.663
16847WAT     H250784   4.771   4.101   5.629
16848WAT      O50785   2.665   5.574   9.102
16848WAT     H150786   2.698   5.568   9.008
16848WAT     H250787   2.741   5.598   9.163
16849WAT      O50788   4.966   0.437   2.004
16849WAT     H150789   4.898   0.460   2.074
16849WAT     H250790   5.054   0.479   2.027
16850WAT      O50791   3.400   0.273   8.571
16850WAT     H150792   3.366   0.212   8.643
16850WAT     H250793   3.328   0.337   8.546
16851WAT      O50794   9.106   4.052   2.506
16851WAT     H150795   9.068   4.002   2.584
16851WAT     H250796   9.172   4.120   2.539
16852WAT      O50797   3.798   0.768   3.238
16852WAT     H150798   3.845   0.683   3.217
16852WAT     H250799   3.713   0.774   3.186
16853WAT      O50800   1.603   8.834   2.957
16853WAT     H150801   1.557   8.848   3.045
16853WAT     H250802   1.596   8.738   2.930
16854WAT      O50803   3.914   0.799   5.647
16854WAT     H150804   3.939   0.811   5.743
16854WAT     H250805   3.830   0.746   5.641
16855WAT      O50806   3.087   0.890   5.808
16855WAT     H150807   3.178   0.865   5.842
16855WAT     H250808   3.058   0.826   5.737
16856WAT      O50809   6.245   1.644   8.593
16856WAT     H150810   6.163   1.590   8.572
16856WAT     H250811   6.296   1.661   8.508
16857WAT      O50812   5.979   8.575   6.619
16857WAT     H150813   5.948   8.492   6.665
16857WAT     H250814   6.023   8.635   6.685
16858WAT      O50815   4.612   1.186   7.576
16858WAT     H150816   4.592   1.104   7.629
16858WAT     H250817   4.544   1.256   7.596
16859WAT      O50818   4.226   1.687   0.419
16859WAT     H150819   4.185   1.596   0.426
16859WAT     H250820   4.319   1.684   0.456
16860WAT      O50821   9.647   6.656   5.981
16860WAT     H150822   9.569   6.720   5.981
16860WAT     H250823   9.644   6.601   5.898
16861WAT      O50824   5.398   5.308   4.998
16861WAT     H150825   5.487   5.325   4.956
16861WAT     H250826   5.346   5.243   4.942
16862WAT      O50827   5.361   8.582   1.902
16862WAT     H150828   5.418   8.502   1.920
16862WAT     H250829   5.418   8.658   1.871
16863WAT      O50830   8.725   5.665   0.542
16863WAT     H150831   8.822   5.684   0.554
16863WAT     H250832   8.675   5.752   0.534
16864WAT      O50833   5.339   7.295   1.715
16864WAT     H150834   5.425   7.286   1.664
16864WAT     H250835   5.269   7.236   1.675
16865WAT      O50836   1.023   2.665   1.658
16865WAT     H150837   1.027   2.612   1.743
16865WAT     H250838   1.035   2.604   1.580
16866WAT      O50839   3.973   3.728   0.009
16866WAT     H150840   3.965   3.671  -0.073
16866WAT     H250841   4.068   3.730   0.039
16867WAT      O50842   7.997   5.217   9.360
16867WAT     H150843   8.064   5.263   9.302
16867WAT     H250844   7.937   5.161   9.303
16868WAT      O50845   5.931   2.073   3.998
16868WAT     H150846   5.957   1.983   4.034
16868WAT     H250847   5.967   2.144   4.058
16869WAT      O50848   2.242   5.448   9.570
16869WAT     H150849   2.215   5.484   9.659
16869WAT     H250850   2.304   5.371   9.582
16870WAT      O50851   7.025   3.363   3.992
16870WAT     H150852   7.082   3.287   3.960
16870WAT     H250853   7.031   3.369   4.092
16871WAT      O50854   4.283   5.187   7.542
16871WAT     H150855   4.311   5.122   7.612
16871WAT     H250856   4.319   5.158   7.453
16872WAT      O50857   5.095   5.278   6.053
16872WAT     H150858   5.147   5.220   6.115
16872WAT     H250859   5.149   5.295   5.971
16873WAT      O50860   0.567   1.400   4.047
16873WAT     H150861   0.537   1.443   3.962
16873WAT     H250862   0.666   1.384   4.044
16874WAT      O50863   1.575   4.348   8.735
16874WAT     H150864   1.606   4.333   8.641
16874WAT     H250865   1.654   4.354   8.796
16875WAT      O50866   3.629   7.001   3.981
16875WAT     H150867   3.655   6.996   3.885
16875WAT     H250868   3.697   7.053   4.032
16876WAT      O50869   0.251   7.430   1.454
16876WAT     H150870   0.343   7.412   1.421
16876WAT     H250871   0.254   7.460   1.550
16877WAT      O50872   3.168   5.306   2.984
16877WAT     H150873   3.099   5.369   2.947
16877WAT     H250874   3.247   5.304   2.924
16878WAT      O50875   0.091   7.038   3.118
16878WAT     H150876  -0.002   7.070   3.103
16878WAT     H250877   0.129   7.002   3.033
16879WAT      O50878   5.735   9.040   9.460
16879WAT     H150879   5.670   8.991   9.519
16879WAT     H250880   5.827   9.003   9.474
16880WAT      O50881   1.989   8.815   6.421
16880WAT     H150882   2.064   8.861   6.468
16880WAT     H250883   2.022   8.772   6.337
16881WAT      O50884   0.643   0.986   3.769
16881WAT     H150885   0.598   1.070   3.741
16881WAT     H250886   0.575   0.913   3.778
16882WAT      O50887   7.631   4.867   6.659
16882WAT     H150888   7.554   4.812   6.628
16882WAT     H250889   7.657   4.840   6.752
16883WAT      O50890   3.891   7.773   3.040
16883WAT     H150891   3.918   7.685   3.079
16883WAT     H250892   3.930   7.847   3.095
16884WAT      O50893   3.015   5.732   9.128
16884WAT     H150894   3.012   5.634   9.148
16884WAT     H250895   3.105   5.757   9.093
16885WAT      O50896   3.192   4.541   6.847
16885WAT     H150897   3.115   4.486   6.815
16885WAT     H250898   3.277   4.493   6.825
16886WAT      O50899   8.161   5.258   6.559
16886WAT     H150900   8.067   5.229   6.579
16886WAT     H250901   8.219   5.178   6.549
16887WAT      O50902   2.920   1.029   3.715
16887WAT     H150903   2.973   1.084   3.651
16887WAT     H250904   2.893   0.943   3.671
16888WAT      O50905   3.658   2.676   5.049
16888WAT     H150906   3.680   2.757   4.995
16888WAT     H250907   3.559   2.663   5.049
16889WAT      O50908   6.308   3.108   5.062
16889WAT     H150909   6.368   3.139   5.136
16889WAT     H250910   6.351   3.129   4.974
16890WAT      O50911   4.925   6.607   2.101
16890WAT     H150912   4.884   6.694   2.127
16890WAT     H250913   4.904   6.588   2.005
16891WAT      O50914   6.226   2.850   3.368
16891WAT     H150915   6.214   2.937   3.415
16891WAT     H250916   6.136   2.810   3.349
16892WAT      O50917   6.127   9.467   2.906
16892WAT     H150918   6.135   9.501   2.812
16892WAT     H250919   6.032   9.475   2.936
16893WAT      O50920   1.586   2.650   3.629
16893WAT     H150921   1.568   2.558   3.594
16893WAT     H250922   1.507   2.708   3.614
16894WAT      O50923   2.039   1.232   4.423
16894WAT     H150924   2.058   1.295   4.348
16894WAT     H250925   1.943   1.205   4.420
16895WAT      O50926   6.488   1.865   1.358
16895WAT     H150927   6.496   1.923   1.439
16895WAT     H250928   6.551   1.788   1.367
16896WAT      O50929   2.466   4.365   3.880
16896WAT     H150930   2.532   4.403   3.945
16896WAT     H250931   2.409   4.438   3.843
16897WAT      O50932   8.468   1.703   8.003
16897WAT     H150933   8.503   1.691   7.910
16897WAT     H250934   8.417   1.621   8.029
16898WAT      O50935   1.903   6.676   6.148
16898WAT     H150936   1.913   6.744   6.075
16898WAT     H250937   1.895   6.585   6.107
16899WAT      O50938   1.146   5.821   9.067
16899WAT     H150939   1.154   5.882   8.988
16899WAT     H250940   1.097   5.738   9.041
16900WAT      O50941   2.015   5.573   0.899
16900WAT     H150942   1.947   5.552   0.969
16900WAT     H250943   1.971   5.574   0.809
16901WAT      O50944   0.279   5.375   5.178
16901WAT     H150945   0.197   5.389   5.123
16901WAT     H250946   0.357   5.419   5.133
16902WAT      O50947   7.228   6.430   4.890
16902WAT     H150948   7.213   6.448   4.793
16902WAT     H250949   7.289   6.351   4.900
16903WAT      O50950   0.110   4.658   2.709
16903WAT     H150951   0.103   4.688   2.804
16903WAT     H250952   0.077   4.564   2.700
16904WAT      O50953   7.357   3.278   1.648
16904WAT     H150954   7.269   3.291   1.603
16904WAT     H250955   7.405   3.200   1.608
16905WAT      O50956   4.924   3.731   5.163
16905WAT     H150957   4.850   3.783   5.120
16905WAT     H250958   4.973   3.678   5.093
16906WAT      O50959   2.473   1.150   8.880
16906WAT     H150960   2.533   1.170   8.802
16906WAT     H250961   2.470   1.229   8.941
16907WAT      O50962   8.514   1.708   3.667
16907WAT     H150963   8.566   1.689   3.750
16907WAT     H250964   8.483   1.622   3.626
16908WAT      O50965   5.756   1.462   1.024
16908WAT     H150966   5.741   1.526   1.099
16908WAT     H250967   5.844   1.416   1.038
16909WAT      O50968   2.472   2.044   7.353
16909WAT     H150969   2.486   2.142   7.340
16909WAT     H250970   2.518   2.015   7.437
16910WAT      O50971   7.331   0.812   1.826
16910WAT     H150972   7.410   0.799   1.887
16910WAT     H250973   7.353   0.775   1.736
16911WAT      O50974   0.733   0.633   3.732
16911WAT     H150975   0.807   0.697   3.710
16911WAT     H250976   0.710   0.640   3.829
16912WAT      O50977   3.092   7.679   7.127
16912WAT     H150978   3.145   7.745   7.074
16912WAT     H250979   3.128   7.587   7.110
16913WAT      O50980   4.100   0.890   1.745
16913WAT     H150981   4.012   0.918   1.707
16913WAT     H250982   4.168   0.961   1.727
16914WAT      O50983   1.294   2.614   1.936
16914WAT     H150984   1.226   2.545   1.909
16914WAT     H250985   1.259   2.666   2.014
16915WAT      O50986   7.773   8.401   8.203
16915WAT     H150987   7.733   8.368   8.118
16915WAT     H250988   7.854   8.347   8.225
16916WAT      O50989   2.596   5.590   6.336
16916WAT     H150990   2.673   5.527   6.335
16916WAT     H250991   2.623   5.675   6.291
16917WAT      O50992   5.743   3.221   0.160
16917WAT     H150993   5.649   3.252   0.145
16917WAT     H250994   5.806   3.284   0.114
16918WAT      O50995   5.059   5.536   9.006
16918WAT     H150996   4.966   5.569   9.022
16918WAT     H250997   5.119   5.614   8.986
16919WAT      O50998   3.119   3.073   3.532
16919WAT     H150999   3.163   2.987   3.506
16919WAT     H251000   3.023   3.071   3.506
16920WAT      O51001   7.833   2.741   0.936
16920WAT     H151002   7.835   2.678   0.858
16920WAT     H251003   7.762   2.711   1.000
16921WAT      O51004   3.485   6.528   2.360
16921WAT     H151005   3.392   6.544   2.393
16921WAT     H251006   3.485   6.532   2.260
16922WAT      O51007   8.457   9.098   3.719
16922WAT     H151008   8.500   9.187   3.736
16922WAT     H251009   8.384   9.084   3.787
16923WAT      O51010   8.881   6.579   8.447
16923WAT     H151011   8.926   6.584   8.358
16923WAT     H251012   8.932   6.634   8.513
16924WAT      O51013   4.859   3.062   6.781
16924WAT     H151014   4.864   2.962   6.778
16924WAT     H251015   4.810   3.095   6.700
16925WAT      O51016   3.951   5.788   0.479
16925WAT     H151017   3.863   5.823   0.446
16925WAT     H251018   3.936   5.703   0.530
16926WAT      O51019   5.275   1.412   1.501
16926WAT     H151020   5.275   1.330   1.558
16926WAT     H251021   5.338   1.479   1.539
16927WAT      O51022   1.693   2.401   1.366
16927WAT     H151023   1.647   2.312   1.362
16927WAT     H251024   1.769   2.396   1.431
16928WAT      O51025   7.807   9.336   0.506
16928WAT     H151026   7.814   9.354   0.408
16928WAT     H251027   7.736   9.268   0.523
16929WAT      O51028   0.466   4.064   3.078
16929WAT     H151029   0.386   4.102   3.123
16929WAT     H251030   0.538   4.046   3.145
16930WAT      O51031   7.492   8.478   5.988
16930WAT     H151032   7.402   8.446   6.019
16930WAT     H251033   7.480   8.559   5.930
16931WAT      O51034   7.956   1.157   4.689
16931WAT     H151035   7.964   1.068   4.734
16931WAT     H251036   7.993   1.151   4.596
16932WAT      O51037   9.495   0.097   5.693
16932WAT     H151038   9.424   0.056   5.635
16932WAT     H251039   9.576   0.115   5.637
16933WAT      O51040   4.465   3.095   3.619
16933WAT     H151041   4.453   3.192   3.643
16933WAT     H251042   4.413   3.075   3.536
16934WAT      O51043   5.038   4.282   4.475
16934WAT     H151044   5.045   4.381   4.460
16934WAT     H251045   5.126   4.248   4.508
16935WAT      O51046   6.539   8.836   7.698
16935WAT     H151047   6.487   8.763   7.655
16935WAT     H251048   6.484   8.919   7.702
16936WAT      O51049   8.259   3.635   4.651
16936WAT     H151050   8.257   3.589   4.563
16936WAT     H251051   8.349   3.624   4.693
16937WAT      O51052   5.863   8.817   8.566
16937WAT     H151053   5.821   8.883   8.629
16937WAT     H251054   5.839   8.724   8.595
16938WAT      O51055   7.594   7.657   3.695
16938WAT     H151056   7.627   7.623   3.783
16938WAT     H251057   7.499   7.686   3.704
16939WAT      O51058   1.666   9.545   9.756
16939WAT     H151059   1.575   9.566   9.790
16939WAT     H251060   1.677   9.446   9.749
16940WAT      O51061   6.789   1.471   5.421
16940WAT     H151062   6.855   1.517   5.481
16940WAT     H251063   6.746   1.539   5.361
16941WAT      O51064   1.502   8.562   3.361
16941WAT     H151065   1.543   8.479   3.400
16941WAT     H251066   1.422   8.537   3.307
16942WAT      O51067   4.568   6.193   6.585
16942WAT     H151068   4.541   6.288   6.603
16942WAT     H251069   4.647   6.170   6.642
16943WAT      O51070   0.363   8.555   8.666
16943WAT     H151071   0.430   8.488   8.699
16943WAT     H251072   0.272   8.515   8.670
16944WAT      O51073   2.568   1.378   6.727
16944WAT     H151074   2.635   1.443   6.693
16944WAT     H251075   2.511   1.346   6.651
16945WAT      O51076   1.733   6.876   7.464
16945WAT     H151077   1.811   6.821   7.435
16945WAT     H251078   1.677   6.823   7.528
16946WAT      O51079   5.621   7.509   1.977
16946WAT     H151080   5.589   7.571   1.905
16946WAT     H251081   5.655   7.563   2.054
16947WAT      O51082   4.536   3.828   5.930
16947WAT     H151083   4.614   3.788   5.882
16947WAT     H251084   4.458   3.766   5.923
16948WAT      O51085   2.053   8.944   8.026
16948WAT     H151086   1.980   9.007   8.052
16948WAT     H251087   2.024   8.889   7.947
16949WAT      O51088   4.184   3.140   7.605
16949WAT     H151089   4.090   3.168   7.585
16949WAT     H251090   4.190   3.041   7.607
16950WAT      O51091   9.862   7.134   0.659
16950WAT     H151092   9.955   7.133   0.695
16950WAT     H251093   9.860   7.184   0.573
16951WAT      O51094   8.970   4.999   1.670
16951WAT     H151095   9.010   5.003   1.579
16951WAT     H251096   9.021   5.061   1.731
16952WAT      O51097   1.824   4.077   3.909
16952WAT     H151098   1.873   4.017   3.973
16952WAT     H251099   1.834   4.172   3.939
16953WAT      O51100   1.918   7.050   0.543
16953WAT     H151101   1.822   7.066   0.520
16953WAT     H251102   1.933   7.069   0.640
16954WAT      O51103   6.946   0.966   8.340
16954WAT     H151104   6.886   0.997   8.414
16954WAT     H251105   6.974   1.044   8.285
16955WAT      O51106   3.822   5.876   7.167
16955WAT     H151107   3.916   5.903   7.149
16955WAT     H251108   3.762   5.912   7.095
16956WAT      O51109   6.658   4.373   3.768
16956WAT     H151110   6.648   4.282   3.727
16956WAT     H251111   6.636   4.368   3.865
16957WAT      O51112   8.040   0.381   0.552
16957WAT     H151113   8.131   0.422   0.557
16957WAT     H251114   7.972   0.449   0.577
16958WAT      O51115   2.434   4.288   3.574
16958WAT     H151116   2.336   4.305   3.573
16958WAT     H251117   2.451   4.189   3.572
16959WAT      O51118   6.048   6.841   3.100
16959WAT     H151119   5.962   6.794   3.116
16959WAT     H251120   6.031   6.930   3.058
16960WAT      O51121   7.725   4.995   2.922
16960WAT     H151122   7.747   5.042   2.837
16960WAT     H251123   7.648   4.933   2.906
16961WAT      O51124   2.885   7.101   5.242
16961WAT     H151125   2.956   7.067   5.182
16961WAT     H251126   2.824   7.162   5.190
16962WAT      O51127   0.520   2.755   4.611
16962WAT     H151128   0.511   2.802   4.699
16962WAT     H251129   0.569   2.813   4.546
16963WAT      O51130   4.634   0.580   0.240
16963WAT     H151131   4.588   0.609   0.156
16963WAT     H251132   4.723   0.626   0.247
16964WAT      O51133   4.502   3.115   9.380
16964WAT     H151134   4.468   3.096   9.287
16964WAT     H251135   4.442   3.071   9.446
16965WAT      O51136   7.202   8.864   5.877
16965WAT     H151137   7.126   8.812   5.916
16965WAT     H251138   7.187   8.877   5.779
16966WAT      O51139   8.863   2.688   6.749
16966WAT     H151140   8.909   2.660   6.665
16966WAT     H251141   8.889   2.782   6.771
16967WAT      O51142   1.575   6.314   6.153
16967WAT     H151143   1.584   6.257   6.235
16967WAT     H251144   1.527   6.399   6.176
16968WAT      O51145   3.191   0.156   9.512
16968WAT     H151146   3.268   0.165   9.448
16968WAT     H251147   3.120   0.099   9.470
16969WAT      O51148   7.147   7.110   5.414
16969WAT     H151149   7.176   7.206   5.413
16969WAT     H251150   7.164   7.069   5.324
16970WAT      O51151   4.366   1.054   1.229
16970WAT     H151152   4.277   1.073   1.188
16970WAT     H251153   4.354   1.032   1.326
16971WAT      O51154   6.794   5.771   4.992
16971WAT     H151155   6.700   5.770   5.028
16971WAT     H251156   6.836   5.681   5.007
16972WAT      O51157   4.675   5.208   9.001
16972WAT     H151158   4.640   5.208   9.094
16972WAT     H251159   4.626   5.141   8.946
16973WAT      O51160   9.154   0.860   0.113
16973WAT     H151161   9.104   0.947   0.123
16973WAT     H251162   9.198   0.858   0.023
16974WAT      O51163   3.251   1.560   2.419
16974WAT     H151164   3.272   1.595   2.510
16974WAT     H251165   3.329   1.578   2.358
16975WAT      O51166   0.895   9.011   1.204
16975WAT     H151167   0.964   9.072   1.167
16975WAT     H251168   0.835   8.980   1.130
16976WAT      O51169   1.863   0.616   2.058
16976WAT     H151170   1.833   0.523   2.083
16976WAT     H251171   1.796   0.682   2.091
16977WAT      O51172   7.814   9.529   7.138
16977WAT     H151173   7.742   9.528   7.069
16977WAT     H251174   7.864   9.443   7.136
16978WAT      O51175   7.556   2.397   7.305
16978WAT     H151176   7.607   2.314   7.284
16978WAT     H251177   7.461   2.373   7.324
16979WAT      O51178   5.152   7.915   3.263
16979WAT     H151179   5.236   7.869   3.233
16979WAT     H251180   5.080   7.900   3.195
16980WAT      O51181   0.952   8.143   7.969
16980WAT     H151182   0.868   8.127   8.020
16980WAT     H251183   0.930   8.162   7.873
16981WAT      O51184   5.435   3.854   6.916
16981WAT     H151185   5.512   3.795   6.938
16981WAT     H251186   5.368   3.802   6.862
16982WAT      O51187   7.969   8.617   1.580
16982WAT     H151188   7.949   8.709   1.614
16982WAT     H251189   8.056   8.618   1.530
16983WAT      O51190   6.952   4.899   5.339
16983WAT     H151191   6.902   4.890   5.426
16983WAT     H251192   6.948   4.994   5.309
16984WAT      O51193   0.396   1.617   8.855
16984WAT     H151194   0.465   1.546   8.868
16984WAT     H251195   0.319   1.601   8.916
16985WAT      O51196   7.490   3.384   3.803
16985WAT     H151197   7.422   3.339   3.746
16985WAT     H251198   7.450   3.408   3.891
16986WAT      O51199   6.266   5.380   0.897
16986WAT     H151200   6.280   5.389   0.798
16986WAT     H251201   6.186   5.434   0.924
16987WAT      O51202   6.125   1.948   4.449
16987WAT     H151203   6.150   1.869   4.504
16987WAT     H251204   6.200   2.015   4.453
16988WAT      O51205   4.518   3.079   6.621
16988WAT     H151206   4.456   3.023   6.566
16988WAT     H251207   4.602   3.096   6.570
16989WAT      O51208   2.755   8.674   6.014
16989WAT     H151209   2.839   8.712   6.055
16989WAT     H251210   2.704   8.624   6.084
16990WAT      O51211   2.257   6.687   5.802
16990WAT     H151212   2.295   6.672   5.893
16990WAT     H251213   2.325   6.663   5.733
16991WAT      O51214   5.967   0.854   6.636
16991WAT     H151215   5.883   0.879   6.586
16991WAT     H251216   5.949   0.774   6.692
16992WAT      O51217   4.119   8.540   2.448
16992WAT     H151218   4.039   8.489   2.415
16992WAT     H251219   4.201   8.505   2.403
16993WAT      O51220   4.956   7.551   3.237
16993WAT     H151221   4.860   7.526   3.246
16993WAT     H251222   5.007   7.475   3.197
16994WAT      O51223   6.371   5.207   1.541
16994WAT     H151224   6.386   5.255   1.454
16994WAT     H251225   6.451   5.151   1.562
16995WAT      O51226   5.643   0.648   9.691
16995WAT     H151227   5.568   0.590   9.723
16995WAT     H251228   5.605   0.734   9.656
16996WAT      O51229   7.021   0.236   2.196
16996WAT     H151230   7.082   0.272   2.266
16996WAT     H251231   6.936   0.203   2.238
16997WAT      O51232   8.137   0.757   5.646
16997WAT     H151233   8.118   0.736   5.741
16997WAT     H251234   8.197   0.688   5.607
16998WAT      O51235   9.464   3.233   3.106
16998WAT     H151236   9.462   3.331   3.125
16998WAT     H251237   9.546   3.210   3.053
16999WAT      O51238   9.483   8.566   7.235
16999WAT     H151239   9.411   8.520   7.286
16999WAT     H251240   9.442   8.623   7.163
17000WAT      O51241   1.030   1.782   8.684
17000WAT     H151242   1.082   1.712   8.634
17000WAT     H251243   1.056   1.872   8.651
17001WAT      O51244   6.928   3.735   6.709
17001WAT     H151245   6.959   3.829   6.697
17001WAT     H251246   6.967   3.678   6.637
17002WAT      O51247   2.529   5.742   8.814
17002WAT     H151248   2.530   5.774   8.719
17002WAT     H251249   2.598   5.671   8.827
17003WAT      O51250   1.275   1.814   5.615
17003WAT     H151251   1.353   1.827   5.554
17003WAT     H251252   1.197   1.780   5.564
17004WAT      O51253   5.391   6.435   1.154
17004WAT     H151254   5.413   6.360   1.092
17004WAT     H251255   5.324   6.495   1.111
17005WAT      O51256   6.751   1.736   0.690
17005WAT     H151257   6.684   1.760   0.760
17005WAT     H251258   6.745   1.638   0.671
17006WAT      O51259   5.865   0.470   8.359
17006WAT     H151260   5.926   0.505   8.288
17006WAT     H251261   5.771   0.499   8.341
17007WAT      O51262   9.642   3.152   5.059
17007WAT     H151263   9.549   3.188   5.069
17007WAT     H251264   9.638   3.056   5.033
17008WAT      O51265   5.371   5.022   0.033
17008WAT     H151266   5.312   4.942   0.040
17008WAT     H251267   5.444   5.005  -0.033
17009WAT      O51268   6.014   4.143   6.240
17009WAT     H151269   5.936   4.105   6.190
17009WAT     H251270   5.992   4.236   6.269
17010WAT      O51271   0.619   7.430   1.744
17010WAT     H151272   0.691   7.371   1.781
17010WAT     H251273   0.535   7.377   1.733
17011WAT      O51274   8.404   0.999   6.565
17011WAT     H151275   8.311   0.974   6.540
17011WAT     H251276   8.403   1.048   6.653
17012WAT      O51277   7.267   9.416   9.604
17012WAT     H151278   7.215   9.492   9.641
17012WAT     H251279   7.272   9.423   9.505
17013WAT      O51280   7.757   3.649   7.516
17013WAT     H151281   7.824   3.637   7.589
17013WAT     H251282   7.666   3.658   7.556
17014WAT      O51283   0.312   3.778   9.809
17014WAT     H151284   0.302   3.721   9.891
17014WAT     H251285   0.290   3.873   9.831
17015WAT      O51286   8.074   2.037   4.340
17015WAT     H151287   8.021   1.971   4.287
17015WAT     H251288   8.170   2.010   4.341
17016WAT      O51289   8.496   4.850   7.940
17016WAT     H151290   8.491   4.753   7.915
17016WAT     H251291   8.572   4.893   7.893
17017WAT      O51292   3.357   0.021   5.179
17017WAT     H151293   3.312   0.018   5.090
17017WAT     H251294   3.456   0.010   5.167
17018WAT      O51295   8.582   8.064   4.124
17018WAT     H151296   8.632   8.114   4.054
17018WAT     H251297   8.609   7.967   4.122
17019WAT      O51298   5.332   2.803   9.611
17019WAT     H151299   5.391   2.820   9.690
17019WAT     H251300   5.255   2.745   9.638
17020WAT      O51301   4.330   4.818   6.169
17020WAT     H151302   4.379   4.732   6.183
17020WAT     H251303   4.262   4.806   6.097
17021WAT      O51304   0.159   3.855   7.995
17021WAT     H151305   0.065   3.826   7.976
17021WAT     H251306   0.223   3.790   7.954
17022WAT      O51307   8.524   9.187   6.073
17022WAT     H151308   8.500   9.200   5.977
17022WAT     H251309   8.449   9.220   6.131
17023WAT      O51310   6.951   9.651   1.891
17023WAT     H151311   6.866   9.693   1.860
17023WAT     H251312   6.955   9.654   1.991
17024WAT      O51313   8.863   9.647   6.046
17024WAT     H151314   8.866   9.706   5.965
17024WAT     H251315   8.952   9.603   6.058
17025WAT      O51316   7.320   3.420   2.539
17025WAT     H151317   7.247   3.415   2.471
17025WAT     H251318   7.280   3.442   2.628
17026WAT      O51319   9.039   8.523   2.313
17026WAT     H151320   9.107   8.454   2.290
17026WAT     H251321   8.997   8.500   2.401
17027WAT      O51322   3.662   2.029   3.467
17027WAT     H151323   3.590   2.029   3.397
17027WAT     H251324   3.733   1.963   3.443
17028WAT      O51325   8.901   6.026   4.345
17028WAT     H151326   8.829   6.084   4.384
17028WAT     H251327   8.950   6.077   4.274
17029WAT      O51328   0.495   7.561   8.901
17029WAT     H151329   0.448   7.603   8.823
17029WAT     H251330   0.564   7.624   8.936
17030WAT      O51331   4.810   1.797   3.528
17030WAT     H151332   4.818   1.872   3.463
17030WAT     H251333   4.862   1.718   3.495
17031WAT      O51334   0.032   6.578   4.217
17031WAT     H151335   0.078   6.501   4.172
17031WAT     H251336  -0.067   6.564   4.214
17032WAT      O51337   5.365   4.349   0.614
17032WAT     H151338   5.317   4.262   0.628
17032WAT     H251339   5.298   4.423   0.607
17033WAT      O51340   4.049   8.869   0.850
17033WAT     H151341   3.969   8.900   0.901
17033WAT     H251342   4.127   8.928   0.872
17034WAT      O51343   5.491   0.802   2.825
17034WAT     H151344   5.426   0.859   2.776
17034WAT     H251345   5.496   0.712   2.782
17035WAT      O51346   1.346   7.383   5.852
17035WAT     H151347   1.429   7.417   5.897
17035WAT     H251348   1.344   7.416   5.758
17036WAT      O51349   5.436   3.448   0.482
17036WAT     H151350   5.359   3.425   0.422
17036WAT     H251351   5.504   3.500   0.430
17037WAT      O51352   8.661   6.901   7.105
17037WAT     H151353   8.736   6.851   7.063
17037WAT     H251354   8.599   6.838   7.150
17038WAT      O51355   4.242   3.124   7.337
17038WAT     H151356   4.242   3.152   7.433
17038WAT     H251357   4.206   3.031   7.329
17039WAT      O51358   1.468   3.468   4.160
17039WAT     H151359   1.486   3.413   4.242
17039WAT     H251360   1.531   3.441   4.087
17040WAT      O51361   3.206   3.751   5.391
17040WAT     H151362   3.136   3.733   5.322
17040WAT     H251363   3.162   3.754   5.481
17041WAT      O51364   6.806   4.439   2.070
17041WAT     H151365   6.789   4.356   2.123
17041WAT     H251366   6.732   4.505   2.086
17042WAT      O51367   6.387   8.032   2.008
17042WAT     H151368   6.379   8.015   2.106
17042WAT     H251369   6.297   8.054   1.971
17043WAT      O51370   2.400   6.309   3.642
17043WAT     H151371   2.426   6.279   3.550
17043WAT     H251372   2.348   6.236   3.687
17044WAT      O51373   5.536   7.372   8.910
17044WAT     H151374   5.594   7.453   8.908
17044WAT     H251375   5.480   7.373   8.994
17045WAT      O51376   1.158   1.147   5.840
17045WAT     H151377   1.181   1.055   5.870
17045WAT     H251378   1.114   1.143   5.750
17046WAT      O51379   6.694   2.920   7.787
17046WAT     H151380   6.726   2.950   7.698
17046WAT     H251381   6.625   2.848   7.775
17047WAT      O51382   7.315  -0.001   3.976
17047WAT     H151383   7.388   0.005   3.909
17047WAT     H251384   7.227   0.020   3.932
17048WAT      O51385   1.196   2.617   8.406
17048WAT     H151386   1.183   2.696   8.466
17048WAT     H251387   1.137   2.627   8.325
17049WAT      O51388   6.118   7.257   8.827
17049WAT     H151389   6.203   7.285   8.783
17049WAT     H251390   6.103   7.312   8.909
17050WAT      O51391   8.793   9.174   1.735
17050WAT     H151392   8.720   9.241   1.722
17050WAT     H251393   8.796   9.147   1.831
17051WAT      O51394   0.186   4.951   4.996
17051WAT     H151395   0.101   4.924   4.952
17051WAT     H251396   0.258   4.960   4.927
17052WAT      O51397   5.825   7.301   6.071
17052WAT     H151398   5.903   7.345   6.117
17052WAT     H251399   5.858   7.236   6.003
17053WAT      O51400   5.520   7.323   5.051
17053WAT     H151401   5.420   7.321   5.046
17053WAT     H251402   5.554   7.402   5.000
17054WAT      O51403   6.306   6.829   9.434
17054WAT     H151404   6.398   6.869   9.435
17054WAT     H251405   6.313   6.730   9.426
17055WAT      O51406   0.407   6.292   6.744
17055WAT     H151407   0.376   6.288   6.649
17055WAT     H251408   0.418   6.388   6.770
17056WAT      O51409   1.656   7.518   7.706
17056WAT     H151410   1.702   7.505   7.618
17056WAT     H251411   1.691   7.600   7.751
17057WAT      O51412   0.261   0.980   8.510
17057WAT     H151413   0.283   0.912   8.580
17057WAT     H251414   0.252   0.934   8.422
17058WAT      O51415   4.687   3.592   5.496
17058WAT     H151416   4.753   3.531   5.452
17058WAT     H251417   4.626   3.538   5.554
17059WAT      O51418   2.122   9.075   7.500
17059WAT     H151419   2.183   8.997   7.484
17059WAT     H251420   2.172   9.149   7.543
17060WAT      O51421   8.817   3.476   6.941
17060WAT     H151422   8.732   3.427   6.923
17060WAT     H251423   8.821   3.501   7.038
17061WAT      O51424   0.886   5.733   5.933
17061WAT     H151425   0.836   5.646   5.928
17061WAT     H251426   0.977   5.722   5.893
17062WAT      O51427   9.603   0.794   6.374
17062WAT     H151428   9.536   0.841   6.317
17062WAT     H251429   9.629   0.708   6.330
17063WAT      O51430   3.414   0.925   3.866
17063WAT     H151431   3.497   0.951   3.914
17063WAT     H251432   3.337   0.982   3.897
17064WAT      O51433   4.353   4.240   5.268
17064WAT     H151434   4.396   4.328   5.288
17064WAT     H251435   4.396   4.169   5.322
17065WAT      O51436   1.952   3.919   4.083
17065WAT     H151437   1.915   3.853   4.148
17065WAT     H251438   2.034   3.961   4.121
17066WAT      O51439   8.236   4.169   3.747
17066WAT     H151440   8.164   4.235   3.770
17066WAT     H251441   8.286   4.202   3.667
17067WAT      O51442   2.453   3.485   3.737
17067WAT     H151443   2.538   3.514   3.694
17067WAT     H251444   2.463   3.391   3.770
17068WAT      O51445   7.664   5.093   7.194
17068WAT     H151446   7.693   4.997   7.195
17068WAT     H251447   7.581   5.102   7.138
17069WAT      O51448   0.646   4.518   3.830
17069WAT     H151449   0.729   4.559   3.870
17069WAT     H251450   0.638   4.423   3.860
17070WAT      O51451   2.424   4.532   8.272
17070WAT     H151452   2.512   4.554   8.231
17070WAT     H251453   2.350   4.563   8.211
17071WAT      O51454   4.135   6.912   1.240
17071WAT     H151455   4.070   6.859   1.185
17071WAT     H251456   4.110   7.008   1.238
17072WAT      O51457   5.551   5.778   6.880
17072WAT     H151458   5.463   5.796   6.836
17072WAT     H251459   5.585   5.861   6.923
17073WAT      O51460   0.237   7.284   6.536
17073WAT     H151461   0.188   7.311   6.618
17073WAT     H251462   0.335   7.281   6.555
17074WAT      O51463   1.085   9.671   3.861
17074WAT     H151464   1.155   9.627   3.916
17074WAT     H251465   0.995   9.651   3.898
17075WAT      O51466   2.823   6.605   8.809
17075WAT     H151467   2.896   6.598   8.742
17075WAT     H251468   2.748   6.659   8.771
17076WAT      O51469   2.373   7.801   3.849
17076WAT     H151470   2.423   7.826   3.932
17076WAT     H251471   2.414   7.719   3.809
17077WAT      O51472   6.498   4.349   3.132
17077WAT     H151473   6.537   4.351   3.040
17077WAT     H251474   6.464   4.440   3.156
17078WAT      O51475   9.409   2.157   6.266
17078WAT     H151476   9.504   2.127   6.270
17078WAT     H251477   9.365   2.142   6.355
17079WAT      O51478   6.506   6.586   9.795
17079WAT     H151479   6.473   6.506   9.745
17079WAT     H251480   6.448   6.665   9.774
17080WAT      O51481   0.792   9.476   0.262
17080WAT     H151482   0.818   9.565   0.299
17080WAT     H251483   0.872   9.432   0.221
17081WAT      O51484   6.821   0.301   8.060
17081WAT     H151485   6.817   0.397   8.091
17081WAT     H251486   6.841   0.242   8.138
17082WAT      O51487   9.763   7.556   7.981
17082WAT     H151488   9.727   7.495   8.051
17082WAT     H251489   9.688   7.611   7.943
17083WAT      O51490   9.756   8.148   0.737
17083WAT     H151491   9.707   8.140   0.650
17083WAT     H251492   9.835   8.208   0.725
17084WAT      O51493   7.924   2.327   8.424
17084WAT     H151494   8.007   2.382   8.414
17084WAT     H251495   7.856   2.355   8.356
17085WAT      O51496   7.530   4.806   8.827
17085WAT     H151497   7.620   4.843   8.851
17085WAT     H251498   7.524   4.711   8.860
17086WAT      O51499   0.121   0.342   5.140
17086WAT     H151500   0.166   0.253   5.126
17086WAT     H251501   0.155   0.408   5.074
17087WAT      O51502   1.578   4.214   7.723
17087WAT     H151503   1.604   4.311   7.723
17087WAT     H251504   1.530   4.192   7.638
17088WAT      O51505   6.743   8.699   9.716
17088WAT     H151506   6.750   8.659   9.807
17088WAT     H251507   6.800   8.781   9.710
17089WAT      O51508   3.740   1.450   3.711
17089WAT     H151509   3.727   1.354   3.738
17089WAT     H251510   3.793   1.453   3.626
17090WAT      O51511   1.697   2.641   4.413
17090WAT     H151512   1.712   2.721   4.472
17090WAT     H251513   1.717   2.557   4.465
17091WAT      O51514   5.575   0.387   2.036
17091WAT     H151515   5.484   0.406   2.001
17091WAT     H251516   5.641   0.449   1.994
17092WAT      O51517   3.637   8.054   2.623
17092WAT     H151518   3.546   8.074   2.659
17092WAT     H251519   3.638   8.067   2.524
17093WAT      O51520   3.186   6.055   1.049
17093WAT     H151521   3.198   6.150   1.075
17093WAT     H251522   3.179   6.048   0.949
17094WAT      O51523   3.667   7.821   9.776
17094WAT     H151524   3.719   7.906   9.782
17094WAT     H251525   3.569   7.842   9.770
17095WAT      O51526   3.209   2.093   3.284
17095WAT     H151527   3.181   2.178   3.240
17095WAT     H251528   3.195   2.016   3.222
17096WAT      O51529   8.175   5.782   7.951
17096WAT     H151530   8.239   5.709   7.929
17096WAT     H251531   8.196   5.820   8.041
17097WAT      O51532   9.379   4.312   7.581
17097WAT     H151533   9.445   4.239   7.598
17097WAT     H251534   9.362   4.362   7.666
17098WAT      O51535   0.905   8.826   6.575
17098WAT     H151536   0.818   8.778   6.587
17098WAT     H251537   0.905   8.910   6.628
17099WAT      O51538   8.996   2.995   6.542
17099WAT     H151539   8.959   3.072   6.595
17099WAT     H251540   9.020   2.920   6.604
17100WAT      O51541   5.132   2.903   2.632
17100WAT     H151542   5.218   2.922   2.585
17100WAT     H251543   5.151   2.867   2.723
17101WAT      O51544   1.939   6.140   5.688
17101WAT     H151545   1.857   6.135   5.633
17101WAT     H251546   1.929   6.084   5.770
17102WAT      O51547   5.934   2.070   8.651
17102WAT     H151548   5.977   2.104   8.568
17102WAT     H251549   5.914   1.972   8.640
17103WAT      O51550   5.540   9.307   4.169
17103WAT     H151551   5.572   9.381   4.228
17103WAT     H251552   5.481   9.344   4.098
17104WAT      O51553   6.974   7.857   2.658
17104WAT     H151554   7.023   7.796   2.596
17104WAT     H251555   6.930   7.929   2.605
17105WAT      O51556   6.376   2.354   7.670
17105WAT     H151557   6.333   2.418   7.734
17105WAT     H251558   6.349   2.378   7.577
17106WAT      O51559   4.119   7.089   9.175
17106WAT     H151560   4.157   6.998   9.193
17106WAT     H251561   4.175   7.135   9.106
17107WAT      O51562   2.034   6.020   9.795
17107WAT     H151563   2.036   6.103   9.850
17107WAT     H251564   1.978   5.951   9.842
17108WAT      O51565   1.565   5.102   2.378
17108WAT     H151566   1.632   5.038   2.416
17108WAT     H251567   1.487   5.051   2.342
17109WAT      O51568   7.232   3.620   9.754
17109WAT     H151569   7.251   3.621   9.852
17109WAT     H251570   7.202   3.711   9.725
17110WAT      O51571   0.323   9.117   3.145
17110WAT     H151572   0.244   9.086   3.092
17110WAT     H251573   0.328   9.066   3.230
17111WAT      O51574   8.256   5.350   3.747
17111WAT     H151575   8.266   5.253   3.769
17111WAT     H251576   8.345   5.388   3.720
17112WAT      O51577   9.101   1.545   6.851
17112WAT     H151578   9.110   1.524   6.949
17112WAT     H251579   9.068   1.464   6.803
17113WAT      O51580   1.276   8.030   8.189
17113WAT     H151581   1.263   7.935   8.217
17113WAT     H251582   1.286   8.035   8.090
17114WAT      O51583   5.511   8.792   7.141
17114WAT     H151584   5.581   8.795   7.070
17114WAT     H251585   5.460   8.707   7.134
17115WAT      O51586   8.908   9.294   2.168
17115WAT     H151587   8.997   9.305   2.124
17115WAT     H251588   8.888   9.374   2.225
17116WAT      O51589   3.917   0.843   6.760
17116WAT     H151590   3.830   0.846   6.711
17116WAT     H251591   3.973   0.768   6.725
17117WAT      O51592   7.664   1.350   0.585
17117WAT     H151593   7.736   1.326   0.520
17117WAT     H251594   7.589   1.395   0.536
17118WAT      O51595   4.334   2.100   8.826
17118WAT     H151596   4.330   2.191   8.785
17118WAT     H251597   4.421   2.090   8.874
17119WAT      O51598   8.406   5.904   6.794
17119WAT     H151599   8.476   5.871   6.731
17119WAT     H251600   8.392   6.002   6.780
17120WAT      O51601   6.111   4.969   3.941
17120WAT     H151602   6.123   4.994   3.845
17120WAT     H251603   6.195   4.928   3.976
17121WAT      O51604   7.643   1.409   8.840
17121WAT     H151605   7.627   1.436   8.745
17121WAT     H251606   7.593   1.469   8.901
17122WAT      O51607   6.951   8.766   1.121
17122WAT     H151608   6.982   8.859   1.140
17122WAT     H251609   6.958   8.711   1.204
17123WAT      O51610   7.354   2.986   3.791
17123WAT     H151611   7.432   3.020   3.842
17123WAT     H251612   7.359   3.019   3.696
17124WAT      O51613   1.855   1.048   1.077
17124WAT     H151614   1.870   1.097   0.992
17124WAT     H251615   1.758   1.023   1.084
17125WAT      O51616   7.217   4.252   2.521
17125WAT     H151617   7.245   4.159   2.543
17125WAT     H251618   7.118   4.260   2.528
17126WAT      O51619   1.067   8.954   8.561
17126WAT     H151620   1.078   9.052   8.551
17126WAT     H251621   1.036   8.933   8.654
17127WAT      O51622   2.582   4.809   2.171
17127WAT     H151623   2.492   4.842   2.200
17127WAT     H251624   2.640   4.887   2.146
17128WAT      O51625   2.183   1.268   7.351
17128WAT     H151626   2.133   1.270   7.265
17128WAT     H251627   2.278   1.294   7.335
17129WAT      O51628   8.358   4.383   4.967
17129WAT     H151629   8.368   4.471   5.014
17129WAT     H251630   8.323   4.399   4.875
17130WAT      O51631   2.771   9.657   9.088
17130WAT     H151632   2.709   9.663   9.167
17130WAT     H251633   2.776   9.746   9.044
17131WAT      O51634   5.708   2.838   0.445
17131WAT     H151635   5.726   2.864   0.350
17131WAT     H251636   5.761   2.897   0.506
17132WAT      O51637   0.715   1.183   1.511
17132WAT     H151638   0.778   1.107   1.527
17132WAT     H251639   0.627   1.163   1.555
17133WAT      O51640   4.890   0.287   9.098
17133WAT     H151641   4.902   0.202   9.151
17133WAT     H251642   4.795   0.316   9.103
17134WAT      O51643   8.637   8.363   9.084
17134WAT     H151644   8.661   8.268   9.100
17134WAT     H251645   8.539   8.371   9.067
17135WAT      O51646   0.310   4.899   5.395
17135WAT     H151647   0.339   4.889   5.300
17135WAT     H251648   0.246   4.826   5.418
17136WAT      O51649   9.766   8.604   6.456
17136WAT     H151650   9.692   8.541   6.430
17136WAT     H251651   9.737   8.698   6.440
17137WAT      O51652   9.811   1.851   6.637
17137WAT     H151653   9.768   1.919   6.697
17137WAT     H251654   9.879   1.897   6.580
17138WAT      O51655   2.108   6.617   5.191
17138WAT     H151656   2.056   6.672   5.257
17138WAT     H251657   2.186   6.669   5.158
17139WAT      O51658   5.305   5.440   2.462
17139WAT     H151659   5.304   5.465   2.365
17139WAT     H251660   5.242   5.500   2.512
17140WAT      O51661   9.652   9.775   5.376
17140WAT     H151662   9.713   9.841   5.419
17140WAT     H251663   9.652   9.690   5.428
17141WAT      O51664   9.492   9.063   3.636
17141WAT     H151665   9.538   9.144   3.601
17141WAT     H251666   9.471   9.001   3.560
17142WAT      O51667   0.537   1.794   7.803
17142WAT     H151668   0.538   1.727   7.730
17142WAT     H251669   0.569   1.752   7.888
17143WAT      O51670   7.821   0.326   2.453
17143WAT     H151671   7.919   0.348   2.447
17143WAT     H251672   7.809   0.237   2.498
17144WAT      O51673   6.343   0.217   1.753
17144WAT     H151674   6.382   0.255   1.669
17144WAT     H251675   6.399   0.243   1.831
17145WAT      O51676   7.503   9.151   4.897
17145WAT     H151677   7.580   9.214   4.886
17145WAT     H251678   7.530   9.059   4.869
17146WAT      O51679   6.571   7.950   4.245
17146WAT     H151680   6.519   7.998   4.316
17146WAT     H251681   6.508   7.894   4.191
17147WAT      O51682   8.968   9.765   6.834
17147WAT     H151683   9.053   9.713   6.842
17147WAT     H251684   8.968   9.816   6.748
17148WAT      O51685   1.696   8.775   8.776
17148WAT     H151686   1.721   8.725   8.693
17148WAT     H251687   1.630   8.721   8.828
17149WAT      O51688   6.789   5.844   2.172
17149WAT     H151689   6.697   5.813   2.196
17149WAT     H251690   6.795   5.855   2.073
17150WAT      O51691   6.970   5.846   1.759
17150WAT     H151692   7.045   5.804   1.810
17150WAT     H251693   6.888   5.849   1.816
17151WAT      O51694   5.680   3.879   3.608
17151WAT     H151695   5.726   3.943   3.669
17151WAT     H251696   5.683   3.914   3.514
17152WAT      O51697   9.077   2.390   4.479
17152WAT     H151698   9.138   2.448   4.426
17152WAT     H251699   9.122   2.363   4.564
17153WAT      O51700   4.667   1.588   7.728
17153WAT     H151701   4.653   1.634   7.640
17153WAT     H251702   4.581   1.585   7.779
17154WAT      O51703   0.845   4.013   3.483
17154WAT     H151704   0.890   3.933   3.443
17154WAT     H251705   0.908   4.059   3.545
17155WAT      O51706   9.697   9.701   3.788
17155WAT     H151707   9.693   9.657   3.699
17155WAT     H251708   9.647   9.645   3.855
17156WAT      O51709   9.064   6.179   2.765
17156WAT     H151710   9.108   6.098   2.803
17156WAT     H251711   9.003   6.220   2.834
17157WAT      O51712   1.567   0.145   0.893
17157WAT     H151713   1.562   0.046   0.895
17157WAT     H251714   1.534   0.183   0.979
17158WAT      O51715   4.736   8.696   2.527
17158WAT     H151716   4.828   8.717   2.561
17158WAT     H251717   4.692   8.780   2.495
17159WAT      O51718   9.661   3.075   0.876
17159WAT     H151719   9.633   3.151   0.817
17159WAT     H251720   9.638   3.096   0.971
17160WAT      O51721   6.136   3.589   7.288
17160WAT     H151722   6.044   3.614   7.317
17160WAT     H251723   6.133   3.558   7.193
17161WAT      O51724   2.325   5.829   4.187
17161WAT     H151725   2.323   5.916   4.236
17161WAT     H251726   2.365   5.759   4.247
17162WAT      O51727   0.402   6.184   4.321
17162WAT     H151728   0.463   6.253   4.357
17162WAT     H251729   0.443   6.140   4.241
17163WAT      O51730   3.768   9.579   7.381
17163WAT     H151731   3.767   9.673   7.346
17163WAT     H251732   3.840   9.570   7.450
17164WAT      O51733   9.879   0.811   5.241
17164WAT     H151734   9.913   0.905   5.249
17164WAT     H251735   9.815   0.792   5.315
17165WAT      O51736   5.985   4.547   3.304
17165WAT     H151737   5.965   4.474   3.370
17165WAT     H251738   5.949   4.633   3.339
17166WAT      O51739   8.480   9.545   7.457
17166WAT     H151740   8.546   9.524   7.384
17166WAT     H251741   8.525   9.536   7.546
17167WAT      O51742   1.756   9.518   3.259
17167WAT     H151743   1.720   9.569   3.181
17167WAT     H251744   1.685   9.511   3.329
17168WAT      O51745   7.297   0.724   1.559
17168WAT     H151746   7.199   0.747   1.552
17168WAT     H251747   7.313   0.635   1.515
17169WAT      O51748   8.094   5.013   3.874
17169WAT     H151749   8.030   5.013   3.797
17169WAT     H251750   8.043   5.020   3.960
17170WAT      O51751   4.466   9.111   1.891
17170WAT     H151752   4.550   9.068   1.860
17170WAT     H251753   4.488   9.190   1.949
17171WAT      O51754   4.348   2.110   4.376
17171WAT     H151755   4.352   2.122   4.277
17171WAT     H251756   4.323   2.016   4.398
17172WAT      O51757   2.393   7.078   5.687
17172WAT     H151758   2.298   7.087   5.719
17172WAT     H251759   2.393   7.050   5.591
17173WAT      O51760   5.069   1.103   0.937
17173WAT     H151761   5.046   1.199   0.950
17173WAT     H251762   5.115   1.069   1.019
17174WAT      O51763   8.001   0.360   3.370
17174WAT     H151764   7.945   0.316   3.300
17174WAT     H251765   8.016   0.296   3.445
17175WAT      O51766   7.452   4.430   5.302
17175WAT     H151767   7.469   4.404   5.207
17175WAT     H251768   7.533   4.414   5.357
17176WAT      O51769   4.281   2.632   2.177
17176WAT     H151770   4.199   2.598   2.223
17176WAT     H251771   4.259   2.715   2.126
17177WAT      O51772   0.626   3.563   8.599
17177WAT     H151773   0.716   3.605   8.589
17177WAT     H251774   0.609   3.542   8.695
17178WAT      O51775   8.813   8.801   9.735
17178WAT     H151776   8.768   8.881   9.774
17178WAT     H251777   8.886   8.770   9.796
17179WAT      O51778   7.340   7.760   3.663
17179WAT     H151779   7.338   7.752   3.563
17179WAT     H251780   7.279   7.833   3.692
17180WAT      O51781   2.644   4.186   5.153
17180WAT     H151782   2.628   4.279   5.122
17180WAT     H251783   2.731   4.182   5.203
17181WAT      O51784   6.459   7.018   2.205
17181WAT     H151785   6.398   7.040   2.281
17181WAT     H251786   6.512   7.099   2.180
17182WAT      O51787   7.970   0.830   4.226
17182WAT     H151788   7.890   0.875   4.186
17182WAT     H251789   8.050   0.847   4.168
17183WAT      O51790   9.483   5.799   8.683
17183WAT     H151791   9.555   5.805   8.614
17183WAT     H251792   9.521   5.761   8.768
17184WAT      O51793   4.093   6.292   8.580
17184WAT     H151794   4.157   6.345   8.635
17184WAT     H251795   4.025   6.353   8.539
17185WAT      O51796   9.778   8.899   6.452
17185WAT     H151797   9.734   8.965   6.514
17185WAT     H251798   9.871   8.879   6.485
17186WAT      O51799   2.421   7.183   2.316
17186WAT     H151800   2.369   7.105   2.280
17186WAT     H251801   2.358   7.251   2.354
17187WAT      O51802   5.254   7.198   0.475
17187WAT     H151803   5.263   7.103   0.446
17187WAT     H251804   5.159   7.227   0.468
17188WAT      O51805   3.458   4.018   4.971
17188WAT     H151806   3.542   4.065   4.998
17188WAT     H251807   3.430   4.049   4.880
17189WAT      O51808   8.485   6.700   3.279
17189WAT     H151809   8.493   6.607   3.244
17189WAT     H251810   8.561   6.755   3.244
17190WAT      O51811   1.259   2.676   6.728
17190WAT     H151812   1.160   2.687   6.724
17190WAT     H251813   1.303   2.747   6.673
17191WAT      O51814   2.834   6.873   4.485
17191WAT     H151815   2.933   6.889   4.477
17191WAT     H251816   2.785   6.955   4.459
17192WAT      O51817   8.488   9.823  -0.002
17192WAT     H151818   8.508   9.822   0.096
17192WAT     H251819   8.546   9.890  -0.047
17193WAT      O51820   1.281   3.542   6.393
17193WAT     H151821   1.327   3.485   6.461
17193WAT     H251822   1.346   3.606   6.353
17194WAT      O51823   1.961   1.187   6.752
17194WAT     H151824   1.902   1.180   6.832
17194WAT     H251825   1.912   1.152   6.672
17195WAT      O51826   9.813   5.520   6.895
17195WAT     H151827   9.736   5.512   6.958
17195WAT     H251828   9.783   5.496   6.802
17196WAT      O51829   4.221   7.077   4.704
17196WAT     H151830   4.121   7.083   4.710
17196WAT     H251831   4.260   7.168   4.712
17197WAT      O51832   9.562   3.768   8.935
17197WAT     H151833   9.541   3.864   8.949
17197WAT     H251834   9.504   3.712   8.995
17198WAT      O51835   8.111   5.500   1.660
17198WAT     H151836   8.187   5.521   1.721
17198WAT     H251837   8.046   5.441   1.707
17199WAT      O51838   1.463   5.329   2.512
17199WAT     H151839   1.514   5.259   2.461
17199WAT     H251840   1.525   5.404   2.537
17200WAT      O51841   9.594   5.345   9.008
17200WAT     H151842   9.498   5.339   9.034
17200WAT     H251843   9.646   5.387   9.082
17201WAT      O51844   8.956   2.267   6.592
17201WAT     H151845   8.957   2.204   6.514
17201WAT     H251846   8.927   2.219   6.674
17202WAT      O51847   6.266   9.454   7.366
17202WAT     H151848   6.344   9.393   7.352
17202WAT     H251849   6.220   9.470   7.278
17203WAT      O51850   2.966   9.832   3.423
17203WAT     H151851   2.918   9.806   3.507
17203WAT     H251852   3.041   9.769   3.406
17204WAT      O51853   6.339   9.535   1.123
17204WAT     H151854   6.390   9.620   1.132
17204WAT     H251855   6.281   9.523   1.204
17205WAT      O51856   3.241   0.058   3.937
17205WAT     H151857   3.155   0.008   3.926
17205WAT     H251858   3.317  -0.002   3.911
17206WAT      O51859   8.887   3.714   4.971
17206WAT     H151860   8.919   3.760   5.055
17206WAT     H251861   8.823   3.773   4.923
17207WAT      O51862   2.004   5.331   5.377
17207WAT     H151863   1.939   5.355   5.305
17207WAT     H251864   2.078   5.275   5.339
17208WAT      O51865   6.549   4.325   1.032
17208WAT     H151866   6.504   4.247   1.074
17208WAT     H251867   6.506   4.344   0.943
17209WAT      O51868   2.478   8.322   9.250
17209WAT     H151869   2.577   8.331   9.258
17209WAT     H251870   2.456   8.232   9.211
17210WAT      O51871   1.620   7.718   1.689
17210WAT     H151872   1.684   7.720   1.612
17210WAT     H251873   1.527   7.737   1.656
17211WAT      O51874   0.346   1.773   9.306
17211WAT     H151875   0.438   1.798   9.335
17211WAT     H251876   0.326   1.680   9.336
17212WAT      O51877   1.926   3.871   1.247
17212WAT     H151878   1.955   3.812   1.172
17212WAT     H251879   1.951   3.829   1.334
17213WAT      O51880   3.833   1.950   9.511
17213WAT     H151881   3.930   1.936   9.490
17213WAT     H251882   3.815   2.048   9.522
17214WAT      O51883   4.197   9.299   4.550
17214WAT     H151884   4.212   9.335   4.642
17214WAT     H251885   4.243   9.357   4.484
17215WAT      O51886   8.854   6.207   8.001
17215WAT     H151887   8.931   6.270   8.012
17215WAT     H251888   8.859   6.164   7.910
17216WAT      O51889   0.700   6.027   3.760
17216WAT     H151890   0.692   5.959   3.833
17216WAT     H251891   0.770   5.999   3.695
17217WAT      O51892   3.095   1.361   7.732
17217WAT     H151893   2.996   1.353   7.734
17217WAT     H251894   3.120   1.458   7.728
17218WAT      O51895   0.675   0.719   0.222
17218WAT     H151896   0.759   0.667   0.202
17218WAT     H251897   0.664   0.726   0.321
17219WAT      O51898   7.346   1.919   3.092
17219WAT     H151899   7.320   1.903   2.997
17219WAT     H251900   7.275   1.885   3.154
17220WAT      O51901   5.144   6.806   7.720
17220WAT     H151902   5.101   6.734   7.775
17220WAT     H251903   5.196   6.867   7.780
17221WAT      O51904   2.451   7.819   4.690
17221WAT     H151905   2.486   7.735   4.649
17221WAT     H251906   2.385   7.861   4.628
17222WAT      O51907   1.189   9.154   1.615
17222WAT     H151908   1.201   9.183   1.520
17222WAT     H251909   1.093   9.132   1.632
17223WAT      O51910   7.928   1.861   4.839
17223WAT     H151911   7.924   1.959   4.855
17223WAT     H251912   7.935   1.844   4.741
17224WAT      O51913   3.768   5.501   3.477
17224WAT     H151914   3.718   5.588   3.478
17224WAT     H251915   3.726   5.437   3.541
17225WAT      O51916   9.032   8.615   1.144
17225WAT     H151917   9.007   8.709   1.119
17225WAT     H251918   8.952   8.556   1.135
17226WAT      O51919   3.082   8.159   2.469
17226WAT     H151920   3.010   8.133   2.533
17226WAT     H251921   3.048   8.152   2.375
17227WAT      O51922   3.541   4.198   5.723
17227WAT     H151923   3.461   4.146   5.693
17227WAT     H251924   3.523   4.239   5.812
17228WAT      O51925   5.874   5.503   0.175
17228WAT     H151926   5.800   5.436   0.188
17228WAT     H251927   5.961   5.461   0.200
17229WAT      O51928   5.507   8.838   3.412
17229WAT     H151929   5.436   8.903   3.387
17229WAT     H251930   5.465   8.752   3.442
17230WAT      O51931   7.190   9.606   4.008
17230WAT     H151932   7.191   9.581   3.911
17230WAT     H251933   7.253   9.682   4.024
17231WAT      O51934   6.041   0.083   7.606
17231WAT     H151935   6.120   0.021   7.610
17231WAT     H251936   6.034   0.134   7.692
17232WAT      O51937   5.967   7.366   6.966
17232WAT     H151938   5.983   7.414   7.052
17232WAT     H251939   5.985   7.268   6.979
17233WAT      O51940   2.375   0.306   9.774
17233WAT     H151941   2.395   0.223   9.721
17233WAT     H251942   2.452   0.326   9.834
17234WAT      O51943   3.087   0.446   5.374
17234WAT     H151944   3.160   0.477   5.434
17234WAT     H251945   3.124   0.383   5.305
17235WAT      O51946   9.858   3.272   8.562
17235WAT     H151947   9.918   3.285   8.483
17235WAT     H251948   9.913   3.240   8.640
17236WAT      O51949   5.113   1.040   7.183
17236WAT     H151950   5.018   1.068   7.194
17236WAT     H251951   5.162   1.053   7.269
17237WAT      O51952   9.392   9.687   2.966
17237WAT     H151953   9.357   9.735   2.885
17237WAT     H251954   9.323   9.690   3.039
17238WAT      O51955   9.592   7.963   6.664
17238WAT     H151956   9.609   7.865   6.651
17238WAT     H251957   9.664   8.002   6.721
17239WAT      O51958   2.840   9.314   8.929
17239WAT     H151959   2.758   9.347   8.882
17239WAT     H251960   2.900   9.391   8.951
17240WAT      O51961   9.415   4.083   3.509
17240WAT     H151962   9.381   4.078   3.603
17240WAT     H251963   9.385   4.002   3.459
17241WAT      O51964   5.149   7.973   3.939
17241WAT     H151965   5.190   8.059   3.911
17241WAT     H251966   5.078   7.990   4.008
17242WAT      O51967   6.878   8.478   8.232
17242WAT     H151968   6.966   8.436   8.253
17242WAT     H251969   6.862   8.476   8.134
17243WAT      O51970   1.679   1.409   3.463
17243WAT     H151971   1.640   1.442   3.549
17243WAT     H251972   1.646   1.464   3.387
17244WAT      O51973   1.708   0.700   4.632
17244WAT     H151974   1.670   0.779   4.680
17244WAT     H251975   1.704   0.717   4.533
17245WAT      O51976   8.497   6.463   8.482
17245WAT     H151977   8.502   6.366   8.506
17245WAT     H251978   8.500   6.473   8.383
17246WAT      O51979   8.200   7.266   9.438
17246WAT     H151980   8.213   7.365   9.425
17246WAT     H251981   8.285   7.218   9.415
17247WAT      O51982   0.089   7.169   4.190
17247WAT     H151983   0.046   7.100   4.248
17247WAT     H251984   0.186   7.147   4.179
17248WAT      O51985   0.147   9.776   6.091
17248WAT     H151986   0.058   9.735   6.111
17248WAT     H251987   0.220   9.712   6.113
17249WAT      O51988   2.393   1.665   9.617
17249WAT     H151989   2.427   1.687   9.709
17249WAT     H251990   2.294   1.672   9.616
17250WAT      O51991   9.692   4.652   9.266
17250WAT     H151992   9.639   4.735   9.246
17250WAT     H251993   9.664   4.578   9.206
17251WAT      O51994   5.676   1.689   9.042
17251WAT     H151995   5.584   1.705   9.006
17251WAT     H251996   5.688   1.592   9.063
17252WAT      O51997   4.309   7.175   1.513
17252WAT     H151998   4.366   7.097   1.488
17252WAT     H251999   4.218   7.142   1.539
17253WAT      O52000   0.249   6.503   5.887
17253WAT     H152001   0.156   6.476   5.912
17253WAT     H252002   0.281   6.445   5.812
17254WAT      O52003   0.656   8.165   0.477
17254WAT     H152004   0.652   8.088   0.540
17254WAT     H252005   0.567   8.177   0.433
17255WAT      O52006   1.812   4.361   2.966
17255WAT     H152007   1.896   4.400   3.004
17255WAT     H252008   1.807   4.382   2.868
17256WAT      O52009   8.750   7.695   5.084
17256WAT     H152010   8.770   7.791   5.103
17256WAT     H252011   8.763   7.677   4.986
17257WAT      O52012   4.973   1.927   2.059
17257WAT     H152013   4.933   1.994   2.121
17257WAT     H252014   4.975   1.837   2.103
17258WAT      O52015   2.188   0.730   3.641
17258WAT     H152016   2.242   0.797   3.590
17258WAT     H252017   2.225   0.638   3.625
17259WAT      O52018   9.102   7.386   5.434
17259WAT     H152019   9.115   7.385   5.335
17259WAT     H252020   9.041   7.461   5.459
17260WAT      O52021   3.776   3.546   1.505
17260WAT     H152022   3.705   3.612   1.530
17260WAT     H252023   3.866   3.582   1.530
17261WAT      O52024   3.479   8.939   4.056
17261WAT     H152025   3.467   8.848   4.018
17261WAT     H252026   3.575   8.953   4.082
17262WAT      O52027   7.838   6.671   8.043
17262WAT     H152028   7.764   6.725   8.002
17262WAT     H252029   7.830   6.675   8.143
17263WAT      O52030   2.812   6.042   8.196
17263WAT     H152031   2.859   6.124   8.226
17263WAT     H252032   2.821   6.033   8.097
17264WAT      O52033   8.286   4.123   4.974
17264WAT     H152034   8.281   4.116   4.875
17264WAT     H252035   8.344   4.200   5.000
17265WAT      O52036   6.453   0.711   2.731
17265WAT     H152037   6.430   0.629   2.783
17265WAT     H252038   6.375   0.773   2.731
17266WAT      O52039   0.278   7.027   5.797
17266WAT     H152040   0.252   6.934   5.772
17266WAT     H252041   0.273   7.086   5.716
17267WAT      O52042   4.177   9.359   8.357
17267WAT     H152043   4.206   9.390   8.266
17267WAT     H252044   4.148   9.437   8.411
17268WAT      O52045   6.144   1.956   9.670
17268WAT     H152046   6.134   1.892   9.593
17268WAT     H252047   6.057   2.001   9.687
17269WAT      O52048   6.653   0.207   7.859
17269WAT     H152049   6.690   0.210   7.766
17269WAT     H252050   6.728   0.199   7.925
17270WAT      O52051   3.667   1.590   1.898
17270WAT     H152052   3.669   1.667   1.835
17270WAT     H252053   3.717   1.513   1.859
17271WAT      O52054   7.685   6.864   1.368
17271WAT     H152055   7.659   6.904   1.280
17271WAT     H252056   7.676   6.933   1.440
17272WAT      O52057   3.309   7.200   0.754
17272WAT     H152058   3.402   7.164   0.751
17272WAT     H252059   3.306   7.281   0.813
17273WAT      O52060   0.770   1.795   7.227
17273WAT     H152061   0.684   1.805   7.277
17273WAT     H252062   0.841   1.762   7.290
17274WAT      O52063   2.408   1.645   1.463
17274WAT     H152064   2.366   1.600   1.384
17274WAT     H252065   2.341   1.708   1.504
17275WAT      O52066   3.892   5.805   7.928
17275WAT     H152067   3.837   5.815   7.845
17275WAT     H252068   3.980   5.763   7.905
17276WAT      O52069   4.734   9.340   9.782
17276WAT     H152070   4.687   9.400   9.716
17276WAT     H252071   4.832   9.356   9.776
17277WAT      O52072   3.566   3.952   3.179
17277WAT     H152073   3.566   4.017   3.103
17277WAT     H252074   3.577   4.001   3.265
17278WAT      O52075   6.994   6.275   8.961
17278WAT     H152076   6.955   6.192   9.001
17278WAT     H252077   7.060   6.315   9.024
17279WAT      O52078   1.208   3.397   0.338
17279WAT     H152079   1.242   3.317   0.290
17279WAT     H252080   1.112   3.383   0.363
17280WAT      O52081   5.124   6.469   5.953
17280WAT     H152082   5.121   6.369   5.953
17280WAT     H252083   5.074   6.504   6.033
17281WAT      O52084   0.802   3.490   0.946
17281WAT     H152085   0.888   3.452   0.979
17281WAT     H252086   0.737   3.416   0.928
17282WAT      O52087   3.618   8.129   7.909
17282WAT     H152088   3.591   8.033   7.912
17282WAT     H252089   3.537   8.187   7.900
17283WAT      O52090   3.968   0.661   8.566
17283WAT     H152091   3.905   0.697   8.498
17283WAT     H252092   3.975   0.725   8.642
17284WAT      O52093   6.579   0.329   4.992
17284WAT     H152094   6.502   0.294   4.939
17284WAT     H252095   6.637   0.386   4.934
17285WAT      O52096   7.314   4.983   8.102
17285WAT     H152097   7.291   5.019   8.012
17285WAT     H252098   7.243   4.920   8.133
17286WAT      O52099   5.703   4.294   9.083
17286WAT     H152100   5.785   4.349   9.097
17286WAT     H252101   5.630   4.352   9.045
17287WAT      O52102   6.695   7.725   0.941
17287WAT     H152103   6.750   7.797   0.899
17287WAT     H252104   6.755   7.662   0.991
17288WAT      O52105   7.862   7.307   9.860
17288WAT     H152106   7.859   7.406   9.874
17288WAT     H252107   7.955   7.278   9.840
17289WAT      O52108   2.914   0.024   4.672
17289WAT     H152109   2.909   0.113   4.626
17289WAT     H252110   3.010  -0.006   4.673
17290WAT      O52111   3.200   4.229   6.588
17290WAT     H152112   3.124   4.293   6.587
17290WAT     H252113   3.216   4.193   6.496
17291WAT      O52114   3.124   1.852   9.818
17291WAT     H152115   3.113   1.806   9.730
17291WAT     H252116   3.045   1.911   9.836
17292WAT      O52117   1.573   8.914   4.915
17292WAT     H152118   1.639   8.988   4.923
17292WAT     H252119   1.552   8.879   5.006
17293WAT      O52120   5.595   1.347   1.421
17293WAT     H152121   5.541   1.284   1.365
17293WAT     H252122   5.689   1.315   1.427
17294WAT      O52123   6.669   0.034   1.315
17294WAT     H152124   6.690   0.127   1.287
17294WAT     H252125   6.742  -0.001   1.374
17295WAT      O52126   6.249   4.526   3.333
17295WAT     H152127   6.246   4.482   3.423
17295WAT     H252128   6.156   4.548   3.304
17296WAT      O52129   8.095   5.117   0.923
17296WAT     H152130   8.145   5.184   0.977
17296WAT     H252131   8.153   5.086   0.847
17297WAT      O52132   4.032   4.766   9.393
17297WAT     H152133   4.046   4.772   9.491
17297WAT     H252134   4.084   4.838   9.347
17298WAT      O52135   1.154   6.808   3.832
17298WAT     H152136   1.198   6.898   3.831
17298WAT     H252137   1.084   6.806   3.903
17299WAT      O52138   0.267   3.758   5.317
17299WAT     H152139   0.296   3.853   5.331
17299WAT     H252140   0.171   3.756   5.287
17300WAT      O52141   2.708   6.901   9.264
17300WAT     H152142   2.751   6.838   9.200
17300WAT     H252143   2.775   6.970   9.292
17301WAT      O52144   4.777   8.475   1.515
17301WAT     H152145   4.741   8.438   1.601
17301WAT     H252146   4.702   8.517   1.463
17302WAT      O52147   0.818   4.748   4.373
17302WAT     H152148   0.898   4.701   4.337
17302WAT     H252149   0.845   4.810   4.447
17303WAT      O52150   3.289   8.174   4.998
17303WAT     H152151   3.299   8.271   5.016
17303WAT     H252152   3.228   8.161   4.919
17304WAT      O52153   9.230   1.592   5.739
17304WAT     H152154   9.322   1.573   5.704
17304WAT     H252155   9.231   1.674   5.795
17305WAT      O52156   3.794   4.014   5.827
17305WAT     H152157   3.782   4.026   5.728
17305WAT     H252158   3.707   3.986   5.867
17306WAT      O52159   1.775   0.389   3.094
17306WAT     H152160   1.695   0.434   3.054
17306WAT     H252161   1.758   0.291   3.103
17307WAT      O52162   9.200   3.712   7.506
17307WAT     H152163   9.200   3.797   7.453
17307WAT     H252164   9.210   3.734   7.604
17308WAT      O52165   9.553   2.145   5.093
17308WAT     H152166   9.646   2.118   5.117
17308WAT     H252167   9.556   2.232   5.044
17309WAT      O52168   5.250   5.453   9.365
17309WAT     H152169   5.258   5.498   9.453
17309WAT     H252170   5.266   5.354   9.376
17310WAT      O52171   8.786   9.350   8.048
17310WAT     H152172   8.698   9.309   8.073
17310WAT     H252173   8.780   9.450   8.059
17311WAT      O52174   5.632   6.054   8.300
17311WAT     H152175   5.647   6.140   8.350
17311WAT     H252176   5.548   6.061   8.246
17312WAT      O52177   5.495   1.902   1.597
17312WAT     H152178   5.504   1.832   1.668
17312WAT     H252179   5.403   1.899   1.558
17313WAT      O52180   6.546   1.980   3.771
17313WAT     H152181   6.510   1.912   3.835
17313WAT     H252182   6.485   2.060   3.771
17314WAT      O52183   5.427   2.907   2.807
17314WAT     H152184   5.447   2.995   2.850
17314WAT     H252185   5.424   2.918   2.708
17315WAT      O52186   7.568   1.199   5.491
17315WAT     H152187   7.564   1.148   5.577
17315WAT     H252188   7.612   1.143   5.421
17316WAT      O52189   8.230   2.943   5.225
17316WAT     H152190   8.285   2.960   5.307
17316WAT     H252191   8.291   2.937   5.146
17317WAT      O52192   7.600   1.809   5.766
17317WAT     H152193   7.677   1.866   5.795
17317WAT     H252194   7.631   1.714   5.758
17318WAT      O52195   8.728   0.490   8.543
17318WAT     H152196   8.729   0.390   8.540
17318WAT     H252197   8.639   0.522   8.575
17319WAT      O52198   2.067   5.346   4.491
17319WAT     H152199   2.021   5.285   4.556
17319WAT     H252200   2.110   5.292   4.419
17320WAT      O52201   1.656   4.024   6.672
17320WAT     H152202   1.560   4.045   6.653
17320WAT     H252203   1.695   3.975   6.594
17321WAT      O52204   6.646   8.268   6.007
17321WAT     H152205   6.685   8.358   5.985
17321WAT     H252206   6.719   8.203   6.026
17322WAT      O52207   1.466   2.755   1.733
17322WAT     H152208   1.466   2.664   1.692
17322WAT     H252209   1.397   2.759   1.805
17323WAT      O52210   6.644   5.003   9.074
17323WAT     H152211   6.724   4.953   9.039
17323WAT     H252212   6.666   5.099   9.085
17324WAT      O52213   6.534   6.236   8.746
17324WAT     H152214   6.564   6.201   8.834
17324WAT     H252215   6.545   6.165   8.676
17325WAT      O52216   1.303   8.278   5.233
17325WAT     H152217   1.209   8.247   5.217
17325WAT     H252218   1.362   8.198   5.249
17326WAT      O52219   4.161   5.636   3.233
17326WAT     H152220   4.082   5.695   3.217
17326WAT     H252221   4.166   5.614   3.330
17327WAT      O52222   8.249   9.776   5.413
17327WAT     H152223   8.202   9.772   5.501
17327WAT     H252224   8.347   9.765   5.428
17328WAT      O52225   3.666   1.646   5.423
17328WAT     H152226   3.727   1.717   5.458
17328WAT     H252227   3.607   1.684   5.353
17329WAT      O52228   7.415   0.428   1.011
17329WAT     H152229   7.316   0.441   1.001
17329WAT     H252230   7.440   0.441   1.107
17330WAT      O52231   6.808   4.437   1.176
17330WAT     H152232   6.775   4.383   1.099
17330WAT     H252233   6.815   4.379   1.257
17331WAT      O52234   2.998   4.176   3.660
17331WAT     H152235   2.975   4.168   3.563
17331WAT     H252236   2.984   4.087   3.705
17332WAT      O52237   4.660   3.194   7.604
17332WAT     H152238   4.693   3.221   7.514
17332WAT     H252239   4.665   3.272   7.666
17333WAT      O52240   2.000   0.898   4.089
17333WAT     H152241   2.004   0.839   4.008
17333WAT     H252242   1.915   0.951   4.088
17334WAT      O52243   6.752   8.975   7.447
17334WAT     H152244   6.676   9.002   7.507
17334WAT     H252245   6.720   8.908   7.380
17335WAT      O52246   9.448   6.577   7.029
17335WAT     H152247   9.537   6.533   7.029
17335WAT     H252248   9.427   6.609   6.936
17336WAT      O52249   1.122   8.071   4.240
17336WAT     H152250   1.072   8.100   4.322
17336WAT     H252251   1.186   8.144   4.213
17337WAT      O52252   6.803   7.164   5.826
17337WAT     H152253   6.847   7.129   5.909
17337WAT     H252254   6.866   7.155   5.749
17338WAT      O52255   9.017   5.173   3.324
17338WAT     H152256   9.102   5.222   3.344
17338WAT     H252257   9.032   5.110   3.248
17339WAT      O52258   8.231   7.519   7.995
17339WAT     H152259   8.326   7.544   7.974
17339WAT     H252260   8.220   7.514   8.095
17340WAT      O52261   6.069   8.128   8.259
17340WAT     H152262   6.160   8.142   8.221
17340WAT     H252263   6.070   8.148   8.357
17341WAT      O52264   2.677   2.144   8.963
17341WAT     H152265   2.752   2.195   8.921
17341WAT     H252266   2.681   2.048   8.935
17342WAT      O52267   4.268   4.245   8.376
17342WAT     H152268   4.312   4.252   8.286
17342WAT     H252269   4.271   4.150   8.407
17343WAT      O52270   4.109   9.812   6.807
17343WAT     H152271   4.146   9.773   6.724
17343WAT     H252272   4.081   9.739   6.869
17344WAT      O52273   4.098   6.541   5.426
17344WAT     H152274   4.187   6.569   5.390
17344WAT     H252275   4.078   6.448   5.397
17345WAT      O52276   7.185   8.096   0.827
17345WAT     H152277   7.104   8.040   0.847
17345WAT     H252278   7.219   8.136   0.912
17346WAT      O52279   7.523   0.285   7.062
17346WAT     H152280   7.560   0.198   7.028
17346WAT     H252281   7.517   0.351   6.987
17347WAT      O52282   0.439   6.773   0.869
17347WAT     H152283   0.459   6.858   0.918
17347WAT     H252284   0.524   6.721   0.857
17348WAT      O52285   6.689   4.662   0.884
17348WAT     H152286   6.701   4.676   0.982
17348WAT     H252287   6.753   4.592   0.852
17349WAT      O52288   8.356   7.200   1.138
17349WAT     H152289   8.343   7.219   1.041
17349WAT     H252290   8.452   7.177   1.155
17350WAT      O52291   8.792   9.703   6.294
17350WAT     H152292   8.839   9.693   6.206
17350WAT     H252293   8.698   9.732   6.278
17351WAT      O52294   3.312   1.696   2.964
17351WAT     H152295   3.292   1.726   3.057
17351WAT     H252296   3.262   1.612   2.944
17352WAT      O52297   3.352   9.557   2.039
17352WAT     H152298   3.348   9.556   2.139
17352WAT     H252299   3.357   9.652   2.007
17353WAT      O52300   6.879   6.792   2.085
17353WAT     H152301   6.868   6.891   2.098
17353WAT     H252302   6.927   6.754   2.164
17354WAT      O52303   3.546   4.528   4.873
17354WAT     H152304   3.544   4.618   4.828
17354WAT     H252305   3.608   4.467   4.824
17355WAT      O52306   2.310   1.911   0.311
17355WAT     H152307   2.359   1.825   0.296
17355WAT     H252308   2.226   1.893   0.362
17356WAT      O52309   1.463   2.471   6.701
17356WAT     H152310   1.444   2.424   6.615
17356WAT     H252311   1.385   2.528   6.726
17357WAT      O52312   2.978   7.410   5.672
17357WAT     H152313   2.933   7.367   5.750
17357WAT     H252314   2.996   7.507   5.693
17358WAT      O52315   9.611   5.942   3.707
17358WAT     H152316   9.548   6.018   3.688
17358WAT     H252317   9.698   5.978   3.741
17359WAT      O52318   1.537   8.249   8.080
17359WAT     H152319   1.462   8.315   8.088
17359WAT     H252320   1.623   8.293   8.103
17360WAT      O52321   0.863   0.257   4.456
17360WAT     H152322   0.770   0.223   4.440
17360WAT     H252323   0.916   0.187   4.503
17361WAT      O52324   8.476   7.027   1.948
17361WAT     H152325   8.562   6.984   1.921
17361WAT     H252326   8.488   7.075   2.035
17362WAT      O52327   3.378   3.552   4.529
17362WAT     H152328   3.296   3.568   4.475
17362WAT     H252329   3.400   3.633   4.582
17363WAT      O52330   6.136   4.892   1.758
17363WAT     H152331   6.165   4.838   1.679
17363WAT     H252332   6.084   4.832   1.821
17364WAT      O52333   7.083   9.671   8.229
17364WAT     H152334   7.048   9.697   8.140
17364WAT     H252335   7.128   9.750   8.272
17365WAT      O52336   8.683   2.290   5.188
17365WAT     H152337   8.683   2.212   5.250
17365WAT     H252338   8.696   2.374   5.240
17366WAT      O52339   3.954   6.573   3.272
17366WAT     H152340   3.943   6.560   3.174
17366WAT     H252341   3.982   6.668   3.289
17367WAT      O52342   0.038   7.833   6.713
17367WAT     H152343   0.043   7.829   6.813
17367WAT     H252344   0.022   7.928   6.684
17368WAT      O52345   4.100   2.783   6.764
17368WAT     H152346   4.081   2.716   6.836
17368WAT     H252347   4.180   2.752   6.711
17369WAT      O52348   4.446   5.445   0.090
17369WAT     H152349   4.506   5.380   0.137
17369WAT     H252350   4.351   5.425   0.112
17370WAT      O52351   0.611   1.259   1.973
17370WAT     H152352   0.594   1.272   2.071
17370WAT     H252353   0.606   1.162   1.951
17371WAT      O52354   4.445   1.616   8.390
17371WAT     H152355   4.501   1.581   8.465
17371WAT     H252356   4.403   1.703   8.417
17372WAT      O52357   6.287   4.586   6.116
17372WAT     H152358   6.253   4.674   6.149
17372WAT     H252359   6.222   4.514   6.141
17373WAT      O52360   3.899   1.755   5.540
17373WAT     H152361   3.956   1.832   5.571
17373WAT     H252362   3.954   1.696   5.481
17374WAT      O52363   3.184   4.910   0.393
17374WAT     H152364   3.101   4.962   0.373
17374WAT     H252365   3.173   4.862   0.480
17375WAT      O52366   3.078   6.051   0.158
17375WAT     H152367   3.160   5.993   0.165
17375WAT     H252368   3.039   6.042   0.066
17376WAT      O52369   6.685   6.543   2.165
17376WAT     H152370   6.689   6.640   2.191
17376WAT     H252371   6.777   6.511   2.143
17377WAT      O52372   6.445   3.609   7.324
17377WAT     H152373   6.444   3.566   7.234
17377WAT     H252374   6.351   3.637   7.349
17378WAT      O52375   7.607   0.784   6.624
17378WAT     H152376   7.580   0.850   6.554
17378WAT     H252377   7.573   0.814   6.713
17379WAT      O52378   7.755   3.517   6.904
17379WAT     H152379   7.781   3.531   7.000
17379WAT     H252380   7.681   3.450   6.900
17380WAT      O52381   8.484   0.401   6.303
17380WAT     H152382   8.517   0.472   6.241
17380WAT     H252383   8.559   0.367   6.358
17381WAT      O52384   4.353   6.920   8.060
17381WAT     H152385   4.355   6.848   7.991
17381WAT     H252386   4.305   6.888   8.141
17382WAT      O52387   9.590   4.647   8.682
17382WAT     H152388   9.587   4.580   8.756
17382WAT     H252389   9.576   4.739   8.719
17383WAT      O52390   2.971   5.394   9.047
17383WAT     H152391   2.922   5.380   8.961
17383WAT     H252392   3.007   5.306   9.079
17384WAT      O52393   5.992   8.440   1.177
17384WAT     H152394   5.983   8.408   1.083
17384WAT     H252395   6.005   8.362   1.239
17385WAT      O52396   5.239   1.733   2.472
17385WAT     H152397   5.296   1.665   2.425
17385WAT     H252398   5.250   1.723   2.571
17386WAT      O52399   4.669   1.608   6.376
17386WAT     H152400   4.682   1.694   6.426
17386WAT     H252401   4.592   1.618   6.313
17387WAT      O52402   3.974   3.730   4.526
17387WAT     H152403   4.026   3.739   4.611
17387WAT     H252404   3.884   3.690   4.546
17388WAT      O52405   9.740   0.721   7.553
17388WAT     H152406   9.784   0.690   7.469
17388WAT     H252407   9.760   0.818   7.568
17389WAT      O52408   2.664   1.914   5.219
17389WAT     H152409   2.666   1.985   5.289
17389WAT     H252410   2.685   1.826   5.260
17390WAT      O52411   8.287   5.890   2.539
17390WAT     H152412   8.228   5.924   2.612
17390WAT     H252413   8.321   5.967   2.485
17391WAT      O52414   8.202   5.552   5.480
17391WAT     H152415   8.183   5.631   5.538
17391WAT     H252416   8.293   5.560   5.441
17392WAT      O52417   6.619   6.730   3.222
17392WAT     H152418   6.710   6.706   3.256
17392WAT     H252419   6.551   6.718   3.295
17393WAT      O52420   0.768   8.117   8.498
17393WAT     H152421   0.816   8.154   8.578
17393WAT     H252422   0.678   8.160   8.490
17394WAT      O52423   2.152   9.745   8.335
17394WAT     H152424   2.123   9.754   8.430
17394WAT     H252425   2.218   9.817   8.314
17395WAT      O52426   5.770   4.829   6.763
17395WAT     H152427   5.687   4.884   6.747
17395WAT     H252428   5.832   4.841   6.686
17396WAT      O52429   0.019   3.136   7.190
17396WAT     H152430  -0.076   3.146   7.218
17396WAT     H252431   0.023   3.122   7.091
17397WAT      O52432   2.378   2.709   1.364
17397WAT     H152433   2.401   2.770   1.439
17397WAT     H252434   2.401   2.615   1.390
17398WAT      O52435   6.869   3.263   4.792
17398WAT     H152436   6.817   3.287   4.710
17398WAT     H252437   6.825   3.186   4.838
17399WAT      O52438   2.414   5.045   4.814
17399WAT     H152439   2.405   4.985   4.735
17399WAT     H252440   2.323   5.071   4.846
17400WAT      O52441   3.743   6.822   5.583
17400WAT     H152442   3.806   6.888   5.623
17400WAT     H252443   3.694   6.865   5.507
17401WAT      O52444   4.867   5.047   2.285
17401WAT     H152445   4.819   5.108   2.223
17401WAT     H252446   4.904   5.100   2.362
17402WAT      O52447   3.203   3.563   9.458
17402WAT     H152448   3.206   3.648   9.512
17402WAT     H252449   3.110   3.550   9.423
17403WAT      O52450   7.779   9.800   9.360
17403WAT     H152451   7.791   9.834   9.453
17403WAT     H252452   7.751   9.704   9.364
17404WAT      O52453   2.381   5.919   2.424
17404WAT     H152454   2.408   5.968   2.341
17404WAT     H252455   2.341   5.984   2.490
17405WAT      O52456   2.582   8.363   8.059
17405WAT     H152457   2.497   8.397   8.099
17405WAT     H252458   2.601   8.272   8.093
17406WAT      O52459   0.298   6.833   8.277
17406WAT     H152460   0.265   6.866   8.189
17406WAT     H252461   0.289   6.906   8.345
17407WAT      O52462   9.136   9.135   0.475
17407WAT     H152463   9.074   9.208   0.504
17407WAT     H252464   9.128   9.121   0.377
17408WAT      O52465   8.799   5.270   2.769
17408WAT     H152466   8.809   5.182   2.815
17408WAT     H252467   8.806   5.344   2.836
17409WAT      O52468   1.365   2.027   2.501
17409WAT     H152469   1.292   2.013   2.434
17409WAT     H252470   1.444   2.068   2.456
17410WAT      O52471   6.738   9.834   7.086
17410WAT     H152472   6.775   9.817   6.994
17410WAT     H252473   6.813   9.842   7.151
17411WAT      O52474   6.672   1.417   4.329
17411WAT     H152475   6.634   1.392   4.239
17411WAT     H252476   6.604   1.398   4.400
17412WAT      O52477   1.904   5.490   0.074
17412WAT     H152478   1.919   5.566   0.138
17412WAT     H252479   1.921   5.404   0.121
17413WAT      O52480   0.654   0.346   5.966
17413WAT     H152481   0.595   0.270   5.992
17413WAT     H252482   0.648   0.361   5.867
17414WAT      O52483   7.067   7.876   6.392
17414WAT     H152484   6.986   7.846   6.442
17414WAT     H252485   7.040   7.909   6.302
17415WAT      O52486   1.874   0.457   5.693
17415WAT     H152487   1.928   0.454   5.777
17415WAT     H252488   1.777   0.458   5.717
17416WAT      O52489   6.824   9.646   7.613
17416WAT     H152490   6.918   9.644   7.648
17416WAT     H252491   6.772   9.572   7.653
17417WAT      O52492   3.594   5.745   9.815
17417WAT     H152493   3.606   5.678   9.743
17417WAT     H252494   3.681   5.759   9.863
17418WAT      O52495   3.799   3.234   5.958
17418WAT     H152496   3.886   3.244   5.909
17418WAT     H252497   3.727   3.214   5.892
17419WAT      O52498   1.179   1.220   9.326
17419WAT     H152499   1.179   1.253   9.420
17419WAT     H252500   1.271   1.230   9.287
17420WAT      O52501   6.682   7.153   0.811
17420WAT     H152502   6.699   7.252   0.812
17420WAT     H252503   6.594   7.135   0.855
17421WAT      O52504   5.396   8.004   6.648
17421WAT     H152505   5.488   7.978   6.675
17421WAT     H252506   5.367   7.949   6.570
17422WAT      O52507   6.219   8.737   7.518
17422WAT     H152508   6.153   8.765   7.588
17422WAT     H252509   6.294   8.686   7.561
17423WAT      O52510   6.652   5.880   4.056
17423WAT     H152511   6.721   5.953   4.049
17423WAT     H252512   6.687   5.808   4.115
17424WAT      O52513   3.944   2.619   8.951
17424WAT     H152514   3.992   2.617   9.038
17424WAT     H252515   3.872   2.689   8.955
17425WAT      O52516   0.044   7.552   9.297
17425WAT     H152517   0.123   7.591   9.344
17425WAT     H252518   0.075   7.495   9.221
17426WAT      O52519   6.281   0.433   6.276
17426WAT     H152520   6.214   0.368   6.312
17426WAT     H252521   6.313   0.492   6.351
17427WAT      O52522   1.628   3.351   3.238
17427WAT     H152523   1.575   3.399   3.168
17427WAT     H252524   1.684   3.417   3.289
17428WAT      O52525   5.041   2.347   0.271
17428WAT     H152526   4.996   2.287   0.206
17428WAT     H252527   5.051   2.300   0.359
17429WAT      O52528   0.530   0.029   8.468
17429WAT     H152529   0.484   0.112   8.500
17429WAT     H252530   0.462  -0.036   8.433
17430WAT      O52531   1.548   7.144   7.155
17430WAT     H152532   1.641   7.119   7.128
17430WAT     H252533   1.489   7.144   7.074
17431WAT      O52534   7.662   1.077   4.848
17431WAT     H152535   7.622   1.010   4.786
17431WAT     H252536   7.756   1.095   4.823
17432WAT      O52537   6.930   9.771   3.744
17432WAT     H152538   6.954   9.731   3.656
17432WAT     H252539   6.851   9.832   3.733
17433WAT      O52540   2.292   5.448   3.927
17433WAT     H152541   2.220   5.463   3.995
17433WAT     H252542   2.348   5.530   3.918
17434WAT      O52543   7.168   3.385   2.296
17434WAT     H152544   7.081   3.364   2.251
17434WAT     H252545   7.220   3.450   2.241
17435WAT      O52546   4.025   9.495   9.587
17435WAT     H152547   3.998   9.424   9.522
17435WAT     H252548   4.052   9.453   9.674
17436WAT      O52549   4.408   9.484   7.815
17436WAT     H152550   4.502   9.453   7.800
17436WAT     H252551   4.404   9.538   7.899
17437WAT      O52552   1.177   6.811   7.592
17437WAT     H152553   1.086   6.817   7.552
17437WAT     H252554   1.200   6.898   7.635
17438WAT      O52555   7.067   0.543   8.723
17438WAT     H152556   7.148   0.487   8.707
17438WAT     H252557   6.998   0.489   8.772
17439WAT      O52558   8.285   4.407   0.886
17439WAT     H152559   8.241   4.329   0.930
17439WAT     H252560   8.216   4.476   0.865
17440WAT      O52561   2.477   8.120   2.933
17440WAT     H152562   2.442   8.029   2.912
17440WAT     H252563   2.577   8.120   2.928
17441WAT      O52564   0.557   8.922   1.603
17441WAT     H152565   0.521   8.849   1.662
17441WAT     H252566   0.524   8.908   1.510
17442WAT      O52567   2.185   0.532   8.075
17442WAT     H152568   2.284   0.541   8.064
17442WAT     H252569   2.166   0.469   8.150
17443WAT      O52570   0.547   8.763   6.466
17443WAT     H152571   0.466   8.706   6.482
17443WAT     H252572   0.625   8.722   6.513
17444WAT      O52573   0.902   9.794   5.981
17444WAT     H152574   0.884   9.890   6.003
17444WAT     H252575   0.977   9.760   6.038
17445WAT      O52576   9.005   3.969   0.750
17445WAT     H152577   9.095   3.926   0.751
17445WAT     H252578   8.943   3.919   0.811
17446WAT      O52579   9.757   6.907   0.553
17446WAT     H152580   9.775   6.830   0.614
17446WAT     H252581   9.764   6.993   0.605
17447WAT      O52582   2.090   2.637   0.812
17447WAT     H152583   2.028   2.561   0.829
17447WAT     H252584   2.059   2.688   0.731
17448WAT      O52585   8.225   8.457   1.147
17448WAT     H152586   8.268   8.429   1.233
17448WAT     H252587   8.267   8.407   1.071
17449WAT      O52588   9.273   1.330   0.424
17449WAT     H152589   9.254   1.424   0.396
17449WAT     H252590   9.354   1.296   0.375
17450WAT      O52591   6.812   6.603   1.403
17450WAT     H152592   6.729   6.550   1.387
17450WAT     H252593   6.887   6.568   1.347
17451WAT      O52594   1.534   5.077   5.223
17451WAT     H152595   1.507   5.158   5.172
17451WAT     H252596   1.552   5.101   5.318
17452WAT      O52597   3.262   7.206   7.336
17452WAT     H152598   3.270   7.289   7.392
17452WAT     H252599   3.171   7.201   7.296
17453WAT      O52600   7.082   3.992   3.868
17453WAT     H152601   7.074   4.072   3.927
17453WAT     H252602   7.003   3.988   3.806
17454WAT      O52603   8.462   3.741   2.559
17454WAT     H152604   8.512   3.696   2.485
17454WAT     H252605   8.513   3.732   2.644
17455WAT      O52606   6.565   5.043   2.507
17455WAT     H152607   6.477   5.089   2.519
17455WAT     H252608   6.637   5.112   2.491
17456WAT      O52609   0.464   2.404   8.541
17456WAT     H152610   0.556   2.402   8.580
17456WAT     H252611   0.413   2.324   8.573
17457WAT      O52612   2.448   5.706   0.181
17457WAT     H152613   2.395   5.777   0.226
17457WAT     H252614   2.528   5.684   0.236
17458WAT      O52615   6.890   6.075   3.538
17458WAT     H152616   6.796   6.041   3.531
17458WAT     H252617   6.889   6.169   3.572
17459WAT      O52618   1.319   4.189   1.396
17459WAT     H152619   1.244   4.154   1.451
17459WAT     H252620   1.390   4.228   1.455
17460WAT      O52621   8.575   8.756   3.149
17460WAT     H152622   8.667   8.785   3.124
17460WAT     H252623   8.577   8.709   3.237
17461WAT      O52624   0.670   5.315   1.287
17461WAT     H152625   0.658   5.386   1.356
17461WAT     H252626   0.583   5.298   1.241
17462WAT      O52627   3.988   8.248   2.953
17462WAT     H152628   3.963   8.338   2.989
17462WAT     H252629   3.905   8.194   2.937
17463WAT      O52630   6.047   4.584   8.280
17463WAT     H152631   5.948   4.591   8.273
17463WAT     H252632   6.084   4.549   8.193
17464WAT      O52633   7.622   7.194   5.614
17464WAT     H152634   7.619   7.101   5.577
17464WAT     H252635   7.539   7.212   5.666
17465WAT      O52636   0.587   7.835   6.879
17465WAT     H152637   0.614   7.740   6.894
17465WAT     H252638   0.497   7.837   6.836
17466WAT      O52639   6.149   6.413   5.075
17466WAT     H152640   6.049   6.420   5.075
17466WAT     H252641   6.189   6.504   5.084
17467WAT      O52642   4.012   2.931   5.685
17467WAT     H152643   4.003   2.927   5.585
17467WAT     H252644   4.097   2.887   5.712
17468WAT      O52645   7.609   6.761   3.118
17468WAT     H152646   7.602   6.682   3.057
17468WAT     H252647   7.527   6.817   3.108
17469WAT      O52648   9.454   7.957   9.731
17469WAT     H152649   9.510   7.986   9.809
17469WAT     H252650   9.514   7.922   9.658
17470WAT      O52651   9.316   3.070   0.943
17470WAT     H152652   9.232   3.031   0.980
17470WAT     H252653   9.373   3.103   1.018
17471WAT      O52654   8.050   0.249   0.890
17471WAT     H152655   8.108   0.305   0.950
17471WAT     H252656   8.107   0.186   0.837
17472WAT      O52657   6.057   6.679   6.634
17472WAT     H152658   6.076   6.583   6.653
17472WAT     H252659   6.016   6.688   6.543
17473WAT      O52660   3.945   6.563   2.976
17473WAT     H152661   3.948   6.518   2.887
17473WAT     H252662   4.015   6.634   2.981
17474WAT      O52663   0.968   3.185   9.429
17474WAT     H152664   0.985   3.169   9.526
17474WAT     H252665   1.035   3.250   9.393
17475WAT      O52666   0.396   0.535   6.852
17475WAT     H152667   0.431   0.566   6.763
17475WAT     H252668   0.337   0.606   6.891
17476WAT      O52669   2.995   5.373   4.726
17476WAT     H152670   2.906   5.388   4.769
17476WAT     H252671   3.042   5.460   4.716
17477WAT      O52672   9.601   7.928   2.852
17477WAT     H152673   9.668   7.998   2.877
17477WAT     H252674   9.555   7.896   2.935
17478WAT      O52675   9.177   4.439   6.314
17478WAT     H152676   9.221   4.407   6.397
17478WAT     H252677   9.082   4.465   6.334
17479WAT      O52678   7.988   0.393   0.208
17479WAT     H152679   7.995   0.307   0.158
17479WAT     H252680   7.897   0.400   0.250
17480WAT      O52681   5.909   1.506   5.321
17480WAT     H152682   5.938   1.514   5.416
17480WAT     H252683   5.830   1.444   5.315
17481WAT      O52684   8.536   9.309   8.116
17481WAT     H152685   8.534   9.354   8.206
17481WAT     H252686   8.485   9.223   8.122
17482WAT      O52687   1.865   3.758   4.342
17482WAT     H152688   1.773   3.726   4.322
17482WAT     H252689   1.883   3.750   4.440
17483WAT      O52690   3.408   0.827   7.572
17483WAT     H152691   3.387   0.896   7.503
17483WAT     H252692   3.487   0.773   7.542
17484WAT      O52693   8.785   1.103   8.027
17484WAT     H152694   8.828   1.177   8.079
17484WAT     H252695   8.738   1.041   8.089
17485WAT      O52696   8.816   5.112   7.162
17485WAT     H152697   8.728   5.087   7.204
17485WAT     H252698   8.800   5.179   7.089
17486WAT      O52699   0.210   8.016   4.804
17486WAT     H152700   0.218   8.052   4.711
17486WAT     H252701   0.174   7.923   4.800
17487WAT      O52702   4.489   7.751   0.867
17487WAT     H152703   4.427   7.828   0.852
17487WAT     H252704   4.583   7.782   0.852
17488WAT      O52705   6.640   8.725   3.224
17488WAT     H152706   6.568   8.667   3.187
17488WAT     H252707   6.601   8.787   3.293
17489WAT      O52708   1.385   6.957   6.063
17489WAT     H152709   1.311   6.914   6.115
17489WAT     H252710   1.442   6.886   6.022
17490WAT      O52711   7.103   4.409   1.080
17490WAT     H152712   7.037   4.338   1.057
17490WAT     H252713   7.146   4.443   0.996
17491WAT      O52714   2.935   5.466   3.189
17491WAT     H152715   2.925   5.497   3.094
17491WAT     H252716   2.951   5.367   3.190
17492WAT      O52717   9.182   5.356   0.703
17492WAT     H152718   9.237   5.274   0.693
17492WAT     H252719   9.185   5.409   0.618
17493WAT      O52720   0.245   4.495   7.949
17493WAT     H152721   0.201   4.430   7.887
17493WAT     H252722   0.331   4.526   7.909
17494WAT      O52723   1.042   4.372   7.424
17494WAT     H152724   1.059   4.320   7.340
17494WAT     H252725   0.961   4.334   7.470
17495WAT      O52726   2.406   1.697   3.187
17495WAT     H152727   2.354   1.772   3.227
17495WAT     H252728   2.367   1.610   3.217
17496WAT      O52729   3.660   9.449   8.483
17496WAT     H152730   3.677   9.480   8.576
17496WAT     H252731   3.745   9.452   8.430
17497WAT      O52732   0.740   1.330   6.380
17497WAT     H152733   0.674   1.260   6.350
17497WAT     H252734   0.800   1.353   6.304
17498WAT      O52735   5.244   7.770   3.793
17498WAT     H152736   5.263   7.797   3.699
17498WAT     H252737   5.210   7.849   3.844
17499WAT      O52738   2.990   7.172   6.813
17499WAT     H152739   3.031   7.244   6.757
17499WAT     H252740   3.007   7.083   6.771
17500WAT      O52741   4.749   5.103   2.664
17500WAT     H152742   4.784   5.134   2.752
17500WAT     H252743   4.809   5.136   2.591
17501WAT      O52744   2.310   3.149   0.342
17501WAT     H152745   2.338   3.211   0.415
17501WAT     H252746   2.255   3.199   0.276
17502WAT      O52747   7.564   8.290   2.332
17502WAT     H152748   7.514   8.331   2.408
17502WAT     H252749   7.514   8.211   2.298
17503WAT      O52750   8.652   0.904   0.893
17503WAT     H152751   8.643   0.806   0.912
17503WAT     H252752   8.749   0.927   0.881
17504WAT      O52753   6.234   8.019   3.964
17504WAT     H152754   6.247   7.920   3.973
17504WAT     H252755   6.227   8.060   4.054
17505WAT      O52756   9.491   5.138   6.852
17505WAT     H152757   9.448   5.107   6.936
17505WAT     H252758   9.463   5.078   6.777
17506WAT      O52759   1.094   3.000   0.346
17506WAT     H152760   1.077   2.910   0.306
17506WAT     H252761   1.054   3.003   0.438
17507WAT      O52762   9.458   8.306   3.730
17507WAT     H152763   9.472   8.261   3.642
17507WAT     H252764   9.459   8.237   3.803
17508WAT      O52765   7.361   7.387   8.755
17508WAT     H152766   7.262   7.385   8.739
17508WAT     H252767   7.396   7.478   8.731
17509WAT      O52768   3.051   0.968   7.751
17509WAT     H152769   3.011   1.023   7.678
17509WAT     H252770   3.094   1.028   7.818
17510WAT      O52771   8.316   1.575   0.836
17510WAT     H152772   8.388   1.601   0.901
17510WAT     H252773   8.284   1.656   0.788
17511WAT      O52774   4.318   4.745   7.603
17511WAT     H152775   4.227   4.781   7.582
17511WAT     H252776   4.366   4.726   7.517
17512WAT      O52777   2.211   1.986   1.323
17512WAT     H152778   2.151   2.054   1.281
17512WAT     H252779   2.298   2.029   1.347
17513WAT      O52780   3.426   3.407   3.312
17513WAT     H152781   3.496   3.351   3.355
17513WAT     H252782   3.452   3.427   3.218
17514WAT      O52783   9.703   5.169   3.626
17514WAT     H152784   9.604   5.162   3.643
17514WAT     H252785   9.732   5.093   3.569
17515WAT      O52786   6.136   6.841   4.106
17515WAT     H152787   6.217   6.887   4.071
17515WAT     H252788   6.127   6.856   4.204
17516WAT      O52789   7.396   6.559   5.572
17516WAT     H152790   7.398   6.658   5.587
17516WAT     H252791   7.303   6.525   5.588
17517WAT      O52792   4.867   9.182   3.969
17517WAT     H152793   4.835   9.088   3.957
17517WAT     H252794   4.791   9.239   3.999
17518WAT      O52795   8.531   5.298   6.300
17518WAT     H152796   8.515   5.262   6.392
17518WAT     H252797   8.536   5.223   6.234
17519WAT      O52798   8.315   5.297   7.087
17519WAT     H152799   8.405   5.334   7.108
17519WAT     H252800   8.318   5.248   6.999
17520WAT      O52801   3.559   4.986   0.045
17520WAT     H152802   3.600   4.898   0.072
17520WAT     H252803   3.460   4.980   0.053
17521WAT      O52804   4.166   7.347   6.110
17521WAT     H152805   4.078   7.338   6.156
17521WAT     H252806   4.180   7.270   6.048
17522WAT      O52807   3.063   0.306   4.242
17522WAT     H152808   3.092   0.363   4.165
17522WAT     H252809   3.063   0.360   4.326
17523WAT      O52810   7.340   2.427   1.878
17523WAT     H152811   7.314   2.439   1.974
17523WAT     H252812   7.392   2.343   1.868
17524WAT      O52813   4.818   9.124   0.805
17524WAT     H152814   4.911   9.153   0.827
17524WAT     H252815   4.796   9.151   0.712
17525WAT      O52816   4.561   4.345   6.413
17525WAT     H152817   4.603   4.369   6.326
17525WAT     H252818   4.611   4.269   6.455
17526WAT      O52819   1.116   9.429   6.062
17526WAT     H152820   1.029   9.421   6.012
17526WAT     H252821   1.192   9.413   5.999
17527WAT      O52822   9.170   3.080   8.959
17527WAT     H152823   9.138   2.987   8.979
17527WAT     H252824   9.112   3.120   8.888
17528WAT      O52825   8.562   2.939   5.831
17528WAT     H152826   8.541   3.028   5.792
17528WAT     H252827   8.479   2.884   5.837
17529WAT      O52828   3.410   1.497   3.182
17529WAT     H152829   3.381   1.574   3.239
17529WAT     H252830   3.509   1.491   3.182
17530WAT      O52831   0.172   0.832   1.019
17530WAT     H152832   0.105   0.906   1.014
17530WAT     H252833   0.125   0.744   1.025
17531WAT      O52834   8.766   8.203   6.392
17531WAT     H152835   8.682   8.150   6.391
17531WAT     H252836   8.796   8.216   6.486
17532WAT      O52837   6.809   5.867   8.998
17532WAT     H152838   6.724   5.816   8.996
17532WAT     H252839   6.886   5.805   9.014
17533WAT      O52840   2.535   9.264   1.803
17533WAT     H152841   2.605   9.193   1.795
17533WAT     H252842   2.452   9.236   1.754
17534WAT      O52843   0.883   6.186   8.240
17534WAT     H152844   0.929   6.098   8.252
17534WAT     H252845   0.789   6.170   8.211
17535WAT      O52846   5.764   9.442   1.689
17535WAT     H152847   5.726   9.433   1.781
17535WAT     H252848   5.806   9.532   1.679
17536WAT      O52849   0.704   1.708   9.127
17536WAT     H152850   0.763   1.686   9.204
17536WAT     H252851   0.760   1.721   9.045
17537WAT      O52852   0.551   2.627   5.635
17537WAT     H152853   0.624   2.677   5.681
17537WAT     H252854   0.548   2.533   5.670
17538WAT      O52855   6.642   3.443   5.596
17538WAT     H152856   6.715   3.468   5.659
17538WAT     H252857   6.577   3.382   5.642
17539WAT      O52858   3.056   7.967   6.437
17539WAT     H152859   3.007   7.981   6.351
17539WAT     H252860   3.078   7.870   6.448
17540WAT      O52861   3.041   9.217   9.747
17540WAT     H152862   2.978   9.184   9.817
17540WAT     H252863   2.990   9.266   9.677
17541WAT      O52864   6.897   2.374   6.448
17541WAT     H152865   6.855   2.407   6.363
17541WAT     H252866   6.975   2.316   6.426
17542WAT      O52867   4.353   4.362   4.053
17542WAT     H152868   4.361   4.454   4.093
17542WAT     H252869   4.259   4.329   4.065
17543WAT      O52870   9.356   9.469   9.832
17543WAT     H152871   9.451   9.463   9.862
17543WAT     H252872   9.347   9.429   9.741
17544WAT      O52873   7.468   0.753   4.992
17544WAT     H152874   7.533   0.678   4.997
17544WAT     H252875   7.510   0.830   4.945
17545WAT      O52876   0.284   9.271   8.008
17545WAT     H152877   0.276   9.232   8.100
17545WAT     H252878   0.276   9.371   8.014
17546WAT      O52879   4.974   7.406   8.830
17546WAT     H152880   5.001   7.485   8.886
17546WAT     H252881   4.881   7.419   8.798
17547WAT      O52882   2.551   5.975   5.975
17547WAT     H152883   2.498   5.957   5.892
17547WAT     H252884   2.509   6.051   6.024
17548WAT      O52885   4.035   5.386   2.408
17548WAT     H152886   4.104   5.317   2.387
17548WAT     H252887   4.071   5.450   2.476
17549WAT      O52888   7.362   9.485   6.438
17549WAT     H152889   7.403   9.472   6.529
17549WAT     H252890   7.269   9.521   6.448
17550WAT      O52891   8.029   2.197   3.969
17550WAT     H152892   7.997   2.214   4.062
17550WAT     H252893   7.951   2.178   3.909
17551WAT      O52894   6.882   3.823   2.934
17551WAT     H152895   6.940   3.847   2.856
17551WAT     H252896   6.788   3.808   2.903
17552WAT      O52897   2.623   9.359   9.199
17552WAT     H152898   2.699   9.363   9.135
17552WAT     H252899   2.553   9.425   9.173
17553WAT      O52900   3.284   1.552   1.386
17553WAT     H152901   3.247   1.611   1.314
17553WAT     H252902   3.242   1.461   1.380
17554WAT      O52903   0.058   0.444   3.295
17554WAT     H152904   0.068   0.374   3.366
17554WAT     H252905   0.022   0.528   3.335
17555WAT      O52906   4.978   6.481   9.294
17555WAT     H152907   4.888   6.451   9.261
17555WAT     H252908   5.049   6.426   9.251
17556WAT      O52909   7.505   3.841   7.468
17556WAT     H152910   7.587   3.802   7.425
17556WAT     H252911   7.434   3.854   7.399
17557WAT      O52912   9.319   1.986   0.374
17557WAT     H152913   9.321   1.921   0.298
17557WAT     H252914   9.254   2.059   0.353
17558WAT      O52915   6.463   3.545   2.221
17558WAT     H152916   6.383   3.536   2.162
17558WAT     H252917   6.481   3.459   2.268
17559WAT      O52918   5.832   6.831   6.046
17559WAT     H152919   5.734   6.815   6.041
17559WAT     H252920   5.879   6.774   5.979
17560WAT      O52921   8.651   0.804   5.525
17560WAT     H152922   8.576   0.780   5.463
17560WAT     H252923   8.625   0.783   5.619
17561WAT      O52924   2.957   0.400   9.420
17561WAT     H152925   3.012   0.478   9.451
17561WAT     H252926   2.883   0.434   9.361
17562WAT      O52927   0.480   9.325   8.556
17562WAT     H152928   0.522   9.321   8.465
17562WAT     H252929   0.494   9.238   8.603
17563WAT      O52930   9.079   7.439   7.320
17563WAT     H152931   9.063   7.445   7.419
17563WAT     H252932   9.153   7.501   7.294
17564WAT      O52933   8.581   1.278   8.786
17564WAT     H152934   8.640   1.288   8.866
17564WAT     H252935   8.485   1.271   8.816
17565WAT      O52936   8.140   2.554   9.544
17565WAT     H152937   8.105   2.599   9.626
17565WAT     H252938   8.232   2.519   9.562
17566WAT      O52939   6.063   5.289   7.528
17566WAT     H152940   6.060   5.383   7.493
17566WAT     H252941   5.990   5.236   7.486
17567WAT      O52942   5.957   3.086   4.973
17567WAT     H152943   6.040   3.056   4.925
17567WAT     H252944   5.881   3.088   4.908
17568WAT      O52945   9.191   8.574   4.565
17568WAT     H152946   9.100   8.577   4.522
17568WAT     H252947   9.196   8.495   4.626
17569WAT      O52948   6.118   5.164   6.792
17569WAT     H152949   6.141   5.200   6.883
17569WAT     H252950   6.189   5.099   6.764
17570WAT      O52951   2.357   5.164   6.731
17570WAT     H152952   2.320   5.256   6.742
17570WAT     H252953   2.289   5.097   6.759
17571WAT      O52954   1.944   1.225   9.856
17571WAT     H152955   1.996   1.168   9.793
17571WAT     H252956   1.979   1.212   9.949
17572WAT      O52957   1.088   3.349   8.134
17572WAT     H152958   1.171   3.389   8.096
17572WAT     H252959   1.008   3.389   8.089
17573WAT      O52960   0.950   3.086   1.209
17573WAT     H152961   0.856   3.063   1.181
17573WAT     H252962   0.947   3.151   1.285
17574WAT      O52963   1.862   1.667   2.459
17574WAT     H152964   1.895   1.665   2.553
17574WAT     H252965   1.763   1.677   2.459
17575WAT      O52966   5.501   7.098   0.315
17575WAT     H152967   5.577   7.085   0.250
17575WAT     H252968   5.503   7.026   0.384
17576WAT      O52969   6.233   6.989   5.215
17576WAT     H152970   6.206   6.951   5.127
17576WAT     H252971   6.323   7.033   5.207
17577WAT      O52972   8.180   4.838   4.107
17577WAT     H152973   8.265   4.869   4.148
17577WAT     H252974   8.161   4.892   4.025
17578WAT      O52975   3.402   2.878   2.342
17578WAT     H152976   3.405   2.910   2.437
17578WAT     H252977   3.429   2.953   2.281
17579WAT      O52978   1.988   3.449   9.734
17579WAT     H152979   2.024   3.386   9.666
17579WAT     H252980   2.016   3.418   9.826
17580WAT      O52981   0.668   1.784   4.127
17580WAT     H152982   0.580   1.797   4.172
17580WAT     H252983   0.706   1.873   4.102
17581WAT      O52984   1.765   5.147   4.627
17581WAT     H152985   1.729   5.224   4.680
17581WAT     H252986   1.864   5.142   4.640
17582WAT      O52987   2.104   6.594   1.154
17582WAT     H152988   2.050   6.670   1.117
17582WAT     H252989   2.128   6.615   1.249
17583WAT      O52990   9.764   5.463   6.107
17583WAT     H152991   9.779   5.475   6.009
17583WAT     H252992   9.701   5.387   6.123
17584WAT      O52993   5.798   6.305   2.244
17584WAT     H152994   5.818   6.207   2.246
17584WAT     H252995   5.848   6.351   2.318
17585WAT      O52996   1.740   2.341   8.043
17585WAT     H152997   1.807   2.270   8.022
17585WAT     H252998   1.648   2.307   8.024
17586WAT      O52999   8.787   4.422   4.598
17586WAT     H153000   8.840   4.348   4.640
17586WAT     H253001   8.828   4.446   4.510
17587WAT      O53002   5.158   3.831   2.681
17587WAT     H153003   5.181   3.798   2.772
17587WAT     H253004   5.094   3.767   2.638
17588WAT      O53005   9.275   8.430   7.415
17588WAT     H153006   9.224   8.394   7.494
17588WAT     H253007   9.228   8.406   7.331
17589WAT      O53008   9.039   5.026   6.550
17589WAT     H153009   9.077   5.038   6.641
17589WAT     H253010   9.076   4.943   6.508
17590WAT      O53011   3.438   2.415   1.838
17590WAT     H153012   3.439   2.365   1.925
17590WAT     H253013   3.343   2.430   1.810
17591WAT      O53014   6.440   1.026   1.890
17591WAT     H153015   6.496   0.944   1.902
17591WAT     H253016   6.448   1.083   1.972
17592WAT      O53017   0.490   3.227   4.566
17592WAT     H153018   0.403   3.183   4.544
17592WAT     H253019   0.494   3.245   4.665
17593WAT      O53020   2.295   1.336   7.803
17593WAT     H153021   2.300   1.238   7.824
17593WAT     H253022   2.225   1.352   7.733
17594WAT      O53023   1.445   0.634   4.155
17594WAT     H153024   1.467   0.552   4.102
17594WAT     H253025   1.516   0.649   4.225
17595WAT      O53026   1.293   8.704   7.010
17595WAT     H153027   1.354   8.625   7.010
17595WAT     H253028   1.319   8.766   6.936
17596WAT      O53029   9.198   8.504   5.246
17596WAT     H153030   9.200   8.599   5.214
17596WAT     H253031   9.116   8.489   5.301
17597WAT      O53032   7.531   2.717   7.789
17597WAT     H153033   7.461   2.690   7.854
17597WAT     H253034   7.582   2.795   7.825
17598WAT      O53035   2.582   8.191   0.720
17598WAT     H153036   2.601   8.288   0.706
17598WAT     H253037   2.529   8.156   0.643
17599WAT      O53038   5.145   6.552   7.333
17599WAT     H153039   5.084   6.518   7.405
17599WAT     H253040   5.239   6.526   7.354
17600WAT      O53041   0.657   7.608   4.521
17600WAT     H153042   0.628   7.642   4.432
17600WAT     H253043   0.580   7.613   4.586
17601WAT      O53044   0.540   1.186   2.236
17601WAT     H153045   0.507   1.207   2.328
17601WAT     H253046   0.503   1.098   2.207
17602WAT      O53047   1.551   5.101   8.996
17602WAT     H153048   1.647   5.082   8.977
17602WAT     H253049   1.544   5.168   9.070
17603WAT      O53050   1.252   5.602   9.414
17603WAT     H153051   1.239   5.690   9.459
17603WAT     H253052   1.313   5.614   9.336
17604WAT      O53053   0.706   0.562   8.778
17604WAT     H153054   0.612   0.538   8.804
17604WAT     H253055   0.724   0.528   8.686
17605WAT      O53056   9.409   4.377   4.901
17605WAT     H153057   9.367   4.442   4.838
17605WAT     H253058   9.433   4.422   4.986
17606WAT      O53059   3.753   6.605   0.489
17606WAT     H153060   3.827   6.646   0.437
17606WAT     H253061   3.670   6.601   0.433
17607WAT      O53062   1.248   0.146   5.525
17607WAT     H153063   1.164   0.093   5.538
17607WAT     H253064   1.288   0.166   5.614
17608WAT      O53065   0.233   5.576   3.175
17608WAT     H153066   0.325   5.573   3.214
17608WAT     H253067   0.195   5.484   3.174
17609WAT      O53068   2.217   1.581   5.900
17609WAT     H153069   2.183   1.644   5.831
17609WAT     H253070   2.145   1.516   5.925
17610WAT      O53071   2.109   1.786   5.044
17610WAT     H153072   2.207   1.780   5.023
17610WAT     H253073   2.056   1.776   4.959
17611WAT      O53074   1.067   1.497   3.564
17611WAT     H153075   1.041   1.486   3.659
17611WAT     H253076   1.058   1.410   3.516
17612WAT      O53077   6.463   9.208   9.417
17612WAT     H153078   6.363   9.209   9.420
17612WAT     H253079   6.496   9.281   9.357
17613WAT      O53080   8.374   1.482   8.150
17613WAT     H153081   8.370   1.383   8.160
17613WAT     H253082   8.322   1.525   8.224
17614WAT      O53083   5.581   3.932   4.713
17614WAT     H153084   5.494   3.890   4.687
17614WAT     H253085   5.654   3.891   4.659
17615WAT      O53086   6.610   4.260   5.652
17615WAT     H153087   6.520   4.216   5.650
17615WAT     H253088   6.611   4.328   5.725
17616WAT      O53089   8.957   2.122   2.477
17616WAT     H153090   8.869   2.124   2.523
17616WAT     H253091   8.965   2.203   2.419
17617WAT      O53092   3.102   6.574   5.634
17617WAT     H153093   3.198   6.587   5.655
17617WAT     H253094   3.093   6.514   5.554
17618WAT      O53095   9.831   8.068   2.831
17618WAT     H153096   9.895   7.995   2.852
17618WAT     H253097   9.800   8.111   2.916
17619WAT      O53098   7.754   8.327   5.685
17619WAT     H153099   7.661   8.335   5.650
17619WAT     H253100   7.757   8.258   5.757
17620WAT      O53101   4.186   7.500   8.174
17620WAT     H153102   4.172   7.401   8.165
17620WAT     H253103   4.133   7.534   8.252
17621WAT      O53104   9.063   2.851   3.945
17621WAT     H153105   8.988   2.813   3.999
17621WAT     H253106   9.118   2.912   4.002
17622WAT      O53107   1.815   7.619   4.318
17622WAT     H153108   1.723   7.657   4.308
17622WAT     H253109   1.819   7.530   4.271
17623WAT      O53110   6.671   4.037   6.066
17623WAT     H153111   6.647   3.960   6.007
17623WAT     H253112   6.593   4.061   6.123
17624WAT      O53113   7.986   1.221   2.192
17624WAT     H153114   7.992   1.307   2.243
17624WAT     H253115   8.073   1.171   2.201
17625WAT      O53116   9.752   8.946   9.397
17625WAT     H153117   9.672   8.924   9.452
17625WAT     H253118   9.793   9.032   9.429
17626WAT      O53119   1.169   5.724   7.555
17626WAT     H153120   1.122   5.645   7.595
17626WAT     H253121   1.265   5.702   7.539
17627WAT      O53122   4.134   6.365   2.456
17627WAT     H153123   4.079   6.407   2.384
17627WAT     H253124   4.231   6.379   2.436
17628WAT      O53125   7.789   6.098   0.541
17628WAT     H153126   7.727   6.055   0.475
17628WAT     H253127   7.880   6.058   0.531
17629WAT      O53128   6.674   8.616   2.001
17629WAT     H153129   6.732   8.695   2.021
17629WAT     H253130   6.589   8.647   1.957
17630WAT      O53131   9.316   0.187   2.389
17630WAT     H153132   9.300   0.201   2.487
17630WAT     H253133   9.368   0.263   2.352
17631WAT      O53134   2.810   3.322   4.303
17631WAT     H153135   2.810   3.422   4.310
17631WAT     H253136   2.745   3.284   4.368
17632WAT      O53137   0.750   4.800   2.976
17632WAT     H153138   0.746   4.879   3.037
17632WAT     H253139   0.760   4.716   3.031
17633WAT      O53140   0.789   5.250   5.670
17633WAT     H153141   0.766   5.309   5.748
17633WAT     H253142   0.731   5.274   5.592
17634WAT      O53143   6.899   2.941   9.172
17634WAT     H153144   6.961   3.003   9.123
17634WAT     H253145   6.806   2.977   9.167
17635WAT      O53146   6.738   0.190   0.348
17635WAT     H153147   6.680   0.109   0.348
17635WAT     H253148   6.727   0.239   0.262
17636WAT      O53149   4.611   6.729   0.212
17636WAT     H153150   4.554   6.800   0.254
17636WAT     H253151   4.684   6.772   0.158
17637WAT      O53152   1.323   1.813   9.047
17637WAT     H153153   1.324   1.758   8.964
17637WAT     H253154   1.246   1.785   9.104
17638WAT      O53155   8.753   1.230   3.647
17638WAT     H153156   8.760   1.228   3.747
17638WAT     H253157   8.661   1.202   3.619
17639WAT      O53158   3.465   2.958   1.597
17639WAT     H153159   3.513   2.892   1.539
17639WAT     H253160   3.527   3.033   1.619
17640WAT      O53161   6.795   6.367   5.159
17640WAT     H153162   6.859   6.369   5.082
17640WAT     H253163   6.839   6.405   5.241
17641WAT      O53164   3.546   6.266   2.108
17641WAT     H153165   3.550   6.364   2.090
17641WAT     H253166   3.515   6.251   2.202
17642WAT      O53167   2.087   3.734   1.054
17642WAT     H153168   2.171   3.709   1.102
17642WAT     H253169   2.107   3.804   0.985
17643WAT      O53170   1.570   0.105   6.160
17643WAT     H153171   1.511   0.024   6.160
17643WAT     H253172   1.659   0.081   6.120
17644WAT      O53173   6.814   8.963   2.791
17644WAT     H153174   6.880   8.935   2.721
17644WAT     H253175   6.849   9.042   2.841
17645WAT      O53176   0.825   3.278   3.367
17645WAT     H153177   0.837   3.375   3.348
17645WAT     H253178   0.730   3.251   3.346
17646WAT      O53179   4.031   4.919   0.782
17646WAT     H153180   4.046   5.008   0.738
17646WAT     H253181   4.104   4.857   0.756
17647WAT      O53182   1.808   9.016   1.726
17647WAT     H153183   1.801   9.083   1.800
17647WAT     H253184   1.729   8.954   1.730
17648WAT      O53185   8.462   9.233   4.336
17648WAT     H153186   8.558   9.231   4.362
17648WAT     H253187   8.410   9.281   4.407
17649WAT      O53188   8.921   1.453   9.128
17649WAT     H153189   9.006   1.453   9.075
17649WAT     H253190   8.880   1.544   9.126
17650WAT      O53191   4.942   8.361   9.630
17650WAT     H153192   5.042   8.361   9.631
17650WAT     H253193   4.909   8.409   9.711
17651WAT      O53194   3.621   2.383   4.336
17651WAT     H153195   3.678   2.459   4.305
17651WAT     H253196   3.533   2.384   4.289
17652WAT      O53197   5.884   0.800   9.313
17652WAT     H153198   5.796   0.843   9.333
17652WAT     H253199   5.886   0.771   9.217
17653WAT      O53200   1.330   8.351   7.204
17653WAT     H153201   1.390   8.301   7.266
17653WAT     H253202   1.359   8.447   7.200
17654WAT      O53203   7.931   9.192   9.302
17654WAT     H153204   7.908   9.288   9.292
17654WAT     H253205   7.997   9.166   9.231
17655WAT      O53206   0.493   5.728   2.756
17655WAT     H153207   0.425   5.736   2.829
17655WAT     H253208   0.575   5.779   2.781
17656WAT      O53209   4.025   4.831   6.953
17656WAT     H153210   4.069   4.755   6.905
17656WAT     H253211   3.938   4.801   6.991
17657WAT      O53212   0.461   2.384   2.211
17657WAT     H153213   0.392   2.324   2.170
17657WAT     H253214   0.552   2.344   2.199
17658WAT      O53215   5.014   5.030   1.384
17658WAT     H153216   4.978   5.083   1.308
17658WAT     H253217   4.946   4.962   1.414
17659WAT      O53218   4.467   5.026   3.248
17659WAT     H153219   4.437   4.931   3.261
17659WAT     H253220   4.403   5.087   3.296
17660WAT      O53221   2.721   7.018   3.642
17660WAT     H153222   2.716   7.043   3.739
17660WAT     H253223   2.659   7.076   3.590
17661WAT      O53224   5.072   2.408   3.021
17661WAT     H153225   5.112   2.381   3.109
17661WAT     H253226   4.978   2.437   3.034
17662WAT      O53227   1.079   5.626   0.559
17662WAT     H153228   0.980   5.631   0.565
17662WAT     H253229   1.114   5.708   0.513
17663WAT      O53230   2.592   9.010   6.804
17663WAT     H153231   2.538   9.093   6.794
17663WAT     H253232   2.681   9.022   6.761
17664WAT      O53233   4.601   7.254   6.870
17664WAT     H153234   4.590   7.290   6.777
17664WAT     H253235   4.678   7.190   6.872
17665WAT      O53236   4.347   2.483   8.999
17665WAT     H153237   4.268   2.517   9.049
17665WAT     H253238   4.315   2.436   8.916
17666WAT      O53239   8.928   5.290   7.850
17666WAT     H153240   8.965   5.282   7.943
17666WAT     H253241   8.974   5.224   7.790
17667WAT      O53242   7.178   8.122   1.631
17667WAT     H153243   7.134   8.207   1.601
17667WAT     H253244   7.165   8.051   1.562
17668WAT      O53245   1.797   5.259   5.686
17668WAT     H153246   1.892   5.260   5.718
17668WAT     H253247   1.771   5.351   5.657
17669WAT      O53248   0.160   4.467   9.346
17669WAT     H153249   0.255   4.442   9.326
17669WAT     H253250   0.098   4.412   9.289
17670WAT      O53251   1.392   6.551   9.579
17670WAT     H153252   1.436   6.641   9.582
17670WAT     H253253   1.386   6.513   9.671
17671WAT      O53254   8.938   3.005   5.279
17671WAT     H153255   8.857   2.983   5.334
17671WAT     H253256   8.918   3.082   5.219
17672WAT      O53257   1.742   1.695   4.779
17672WAT     H153258   1.838   1.718   4.799
17672WAT     H253259   1.688   1.704   4.863
17673WAT      O53260   9.425   7.666   0.911
17673WAT     H153261   9.379   7.598   0.968
17673WAT     H253262   9.413   7.757   0.952
17674WAT      O53263   1.702   3.256   1.732
17674WAT     H153264   1.607   3.267   1.764
17674WAT     H253265   1.743   3.176   1.775
17675WAT      O53266   2.938   1.021   9.208
17675WAT     H153267   2.858   0.962   9.200
17675WAT     H253268   3.016   0.968   9.240
17676WAT      O53269   8.677   7.014   8.093
17676WAT     H153270   8.664   7.056   8.183
17676WAT     H253271   8.725   6.927   8.102
17677WAT      O53272   2.556   7.108   0.715
17677WAT     H153273   2.546   7.130   0.812
17677WAT     H253274   2.646   7.140   0.683
17678WAT      O53275   1.387   2.298   0.847
17678WAT     H153276   1.353   2.315   0.940
17678WAT     H253277   1.445   2.374   0.819
17679WAT      O53278   4.062   0.403   2.844
17679WAT     H153279   3.997   0.391   2.769
17679WAT     H253280   4.151   0.427   2.807
17680WAT      O53281   5.708   8.217   5.278
17680WAT     H153282   5.780   8.274   5.237
17680WAT     H253283   5.731   8.197   5.373
17681WAT      O53284   7.658   1.471   1.771
17681WAT     H153285   7.655   1.491   1.673
17681WAT     H253286   7.753   1.468   1.802
17682WAT      O53287   0.219   0.265   0.036
17682WAT     H153288   0.279   0.231  -0.037
17682WAT     H253289   0.261   0.247   0.125
17683WAT      O53290   5.876   1.309   7.952
17683WAT     H153291   5.929   1.302   7.867
17683WAT     H253292   5.938   1.313   8.030
17684WAT      O53293   6.427   6.260   0.230
17684WAT     H153294   6.372   6.189   0.274
17684WAT     H253295   6.367   6.322   0.180
17685WAT      O53296   5.127   9.823   6.703
17685WAT     H153297   5.096   9.902   6.650
17685WAT     H253298   5.225   9.831   6.721
17686WAT      O53299   1.864   8.629   0.000
17686WAT     H153300   1.842   8.726  -0.006
17686WAT     H253301   1.928   8.614   0.076
17687WAT      O53302   9.648   4.376   2.077
17687WAT     H153303   9.569   4.363   2.136
17687WAT     H253304   9.635   4.323   1.993
17688WAT      O53305   0.953   8.591   6.203
17688WAT     H153306   0.990   8.582   6.295
17688WAT     H253307   1.028   8.587   6.137
17689WAT      O53308   2.609   4.248   8.083
17689WAT     H153309   2.545   4.234   8.158
17689WAT     H253310   2.642   4.159   8.050
17690WAT      O53311   8.711   0.575   7.343
17690WAT     H153312   8.791   0.633   7.356
17690WAT     H253313   8.739   0.487   7.305
17691WAT      O53314   5.121   2.198   1.274
17691WAT     H153315   5.125   2.278   1.334
17691WAT     H253316   5.214   2.173   1.246
17692WAT      O53317   4.089   3.590   5.689
17692WAT     H153318   4.091   3.630   5.597
17692WAT     H253319   4.036   3.649   5.750
17693WAT      O53320   5.966   5.529   9.284
17693WAT     H153321   6.049   5.478   9.306
17693WAT     H253322   5.901   5.522   9.360
17694WAT      O53323   9.308   5.192   2.651
17694WAT     H153324   9.317   5.182   2.552
17694WAT     H253325   9.232   5.254   2.670
17695WAT      O53326   1.006   8.493   1.851
17695WAT     H153327   0.913   8.511   1.882
17695WAT     H253328   1.006   8.414   1.790
17696WAT      O53329   3.381   6.459   8.349
17696WAT     H153330   3.338   6.384   8.301
17696WAT     H253331   3.469   6.481   8.305
17697WAT      O53332   3.959   9.477   3.515
17697WAT     H153333   4.004   9.433   3.437
17697WAT     H253334   3.911   9.559   3.485
17698WAT      O53335   8.017   5.395   8.674
17698WAT     H153336   7.965   5.471   8.635
17698WAT     H253337   7.958   5.314   8.680
17699WAT      O53338   5.031   1.751   2.947
17699WAT     H153339   5.048   1.674   2.887
17699WAT     H253340   5.073   1.833   2.909
17700WAT      O53341   4.935   7.168   9.023
17700WAT     H153342   4.836   7.158   9.026
17700WAT     H253343   4.961   7.219   8.942
17701WAT      O53344   2.109   1.918   3.610
17701WAT     H153345   2.088   1.863   3.690
17701WAT     H253346   2.046   1.995   3.605
17702WAT      O53347   7.001   6.204   2.955
17702WAT     H153348   6.992   6.119   3.007
17702WAT     H253349   6.945   6.199   2.872
17703WAT      O53350   5.405   8.354   0.676
17703WAT     H153351   5.407   8.325   0.581
17703WAT     H253352   5.399   8.454   0.681
17704WAT      O53353   6.740   3.249   8.378
17704WAT     H153354   6.726   3.151   8.386
17704WAT     H253355   6.768   3.272   8.285
17705WAT      O53356   7.870   6.798   8.770
17705WAT     H153357   7.795   6.847   8.726
17705WAT     H253358   7.860   6.802   8.869
17706WAT      O53359   8.980   3.475   8.121
17706WAT     H153360   8.946   3.558   8.078
17706WAT     H253361   9.077   3.486   8.143
17707WAT      O53362   4.794   2.630   8.567
17707WAT     H153363   4.836   2.554   8.517
17707WAT     H253364   4.713   2.597   8.615
17708WAT      O53365   9.730   2.590   1.035
17708WAT     H153366   9.687   2.503   1.061
17708WAT     H253367   9.668   2.641   0.976
17709WAT      O53368   4.841   2.111   6.110
17709WAT     H153369   4.891   2.036   6.067
17709WAT     H253370   4.789   2.077   6.188
17710WAT      O53371   0.763   1.302   3.425
17710WAT     H153372   0.731   1.374   3.486
17710WAT     H253373   0.733   1.213   3.459
17711WAT      O53374   8.447   4.762   2.966
17711WAT     H153375   8.434   4.667   2.938
17711WAT     H253376   8.399   4.822   2.903
17712WAT      O53377   1.415   3.845   0.801
17712WAT     H153378   1.458   3.804   0.721
17712WAT     H253379   1.435   3.789   0.882
17713WAT      O53380   3.837   6.359   6.647
17713WAT     H153381   3.858   6.433   6.711
17713WAT     H253382   3.751   6.315   6.674
17714WAT      O53383   7.234   2.336   5.598
17714WAT     H153384   7.213   2.427   5.563
17714WAT     H253385   7.191   2.267   5.539
17715WAT      O53386   8.405   4.530   5.344
17715WAT     H153387   8.452   4.601   5.396
17715WAT     H253388   8.389   4.562   5.251
17716WAT      O53389   5.320   7.999   9.503
17716WAT     H153390   5.318   7.921   9.441
17716WAT     H253391   5.349   8.081   9.453
17717WAT      O53392   3.065   1.318   6.458
17717WAT     H153393   2.983   1.299   6.511
17717WAT     H253394   3.086   1.238   6.400
17718WAT      O53395   9.046   4.099   6.404
17718WAT     H153396   9.121   4.098   6.338
17718WAT     H253397   9.080   4.134   6.492
17719WAT      O53398   8.177   0.322   9.213
17719WAT     H153399   8.236   0.300   9.135
17719WAT     H253400   8.157   0.238   9.264
17720WAT      O53401   0.060   0.354   4.537
17720WAT     H153402  -0.013   0.288   4.519
17720WAT     H253403   0.148   0.306   4.542
17721WAT      O53404   8.973   3.589   1.400
17721WAT     H153405   8.914   3.670   1.396
17721WAT     H253406   9.037   3.591   1.324
17722WAT      O53407   4.610   3.992   3.704
17722WAT     H153408   4.702   4.030   3.699
17722WAT     H253409   4.545   4.055   3.662
17723WAT      O53410   0.890   6.462   1.416
17723WAT     H153411   0.858   6.478   1.509
17723WAT     H253412   0.834   6.515   1.352
17724WAT      O53413   5.522   6.345   6.439
17724WAT     H153414   5.574   6.430   6.448
17724WAT     H253415   5.496   6.332   6.344
17725WAT      O53416   1.985   6.357   1.981
17725WAT     H153417   1.904   6.368   2.038
17725WAT     H253418   1.978   6.416   1.901
17726WAT      O53419   4.620   2.192   0.463
17726WAT     H153420   4.654   2.285   0.446
17726WAT     H253421   4.617   2.142   0.376
17727WAT      O53422   3.726   8.537   2.734
17727WAT     H153423   3.825   8.547   2.734
17727WAT     H253424   3.700   8.460   2.676
17728WAT      O53425   8.223   8.399   5.784
17728WAT     H153426   8.279   8.480   5.765
17728WAT     H253427   8.143   8.426   5.838
17729WAT      O53428   1.708   0.623   7.598
17729WAT     H153429   1.761   0.584   7.522
17729WAT     H253430   1.768   0.637   7.677
17730WAT      O53431   1.741   2.900   8.816
17730WAT     H153432   1.764   2.885   8.719
17730WAT     H253433   1.643   2.891   8.828
17731WAT      O53434   5.879   0.683   4.320
17731WAT     H153435   5.909   0.707   4.412
17731WAT     H253436   5.779   0.687   4.316
17732WAT      O53437   2.009   0.347   3.820
17732WAT     H153438   1.974   0.414   3.885
17732WAT     H253439   2.025   0.392   3.732
17733WAT      O53440   4.089   8.398   9.726
17733WAT     H153441   4.091   8.329   9.798
17733WAT     H253442   4.062   8.486   9.764
17734WAT      O53443   6.007   0.983   8.113
17734WAT     H153444   6.053   1.069   8.135
17734WAT     H253445   5.990   0.931   8.197
17735WAT      O53446   7.791   9.262   5.694
17735WAT     H153447   7.713   9.201   5.706
17735WAT     H253448   7.875   9.215   5.718
17736WAT      O53449   9.311   3.432   0.061
17736WAT     H153450   9.322   3.408  -0.035
17736WAT     H253451   9.213   3.430   0.085
17737WAT      O53452   6.015   8.305   7.718
17737WAT     H153453   5.954   8.244   7.768
17737WAT     H253454   6.062   8.366   7.782
17738WAT      O53455   3.595   0.885   5.361
17738WAT     H153456   3.509   0.857   5.318
17738WAT     H253457   3.668   0.881   5.293
17739WAT      O53458   5.308   4.322   3.085
17739WAT     H153459   5.332   4.416   3.062
17739WAT     H253460   5.269   4.277   3.004
17740WAT      O53461   9.566   1.052   9.523
17740WAT     H153462   9.628   0.974   9.515
17740WAT     H253463   9.620   1.136   9.532
17741WAT      O53464   9.251   3.013   2.042
17741WAT     H153465   9.300   3.092   2.078
17741WAT     H253466   9.154   3.036   2.031
17742WAT      O53467   6.575   6.674   4.313
17742WAT     H153468   6.609   6.587   4.350
17742WAT     H253469   6.487   6.659   4.268
17743WAT      O53470   0.900   6.761   4.410
17743WAT     H153471   0.885   6.856   4.382
17743WAT     H253472   0.817   6.725   4.453
17744WAT      O53473   5.999   4.121   4.795
17744WAT     H153474   6.047   4.104   4.881
17744WAT     H253475   6.030   4.055   4.726
17745WAT      O53476   3.580   5.055   5.350
17745WAT     H153477   3.670   5.088   5.380
17745WAT     H253478   3.510   5.121   5.376
17746WAT      O53479   4.035   5.788   8.688
17746WAT     H153480   4.098   5.734   8.632
17746WAT     H253481   4.058   5.885   8.678
17747WAT      O53482   6.131   9.713   2.333
17747WAT     H153483   6.071   9.646   2.377
17747WAT     H253484   6.220   9.671   2.314
17748WAT      O53485   5.362   3.434   2.010
17748WAT     H153486   5.398   3.475   1.926
17748WAT     H253487   5.263   3.443   2.013
17749WAT      O53488   8.879   2.265   6.945
17749WAT     H153489   8.871   2.188   7.009
17749WAT     H253490   8.799   2.266   6.885
17750WAT      O53491   2.546   9.177   2.109
17750WAT     H153492   2.573   9.083   2.132
17750WAT     H253493   2.560   9.193   2.012
17751WAT      O53494   7.643   4.140   2.060
17751WAT     H153495   7.637   4.144   2.160
17751WAT     H253496   7.702   4.064   2.033
17752WAT      O53497   9.844   5.486   5.841
17752WAT     H153498   9.828   5.544   5.761
17752WAT     H253499   9.861   5.392   5.810
17753WAT      O53500   6.958   5.898   9.488
17753WAT     H153501   7.002   5.887   9.576
17753WAT     H253502   7.022   5.939   9.423
17754WAT      O53503   8.393   9.648   0.316
17754WAT     H153504   8.293   9.646   0.323
17754WAT     H253505   8.428   9.554   0.312
17755WAT      O53506   3.162   2.398   7.393
17755WAT     H153507   3.244   2.425   7.342
17755WAT     H253508   3.080   2.428   7.343
17756WAT      O53509   9.258   8.771   4.742
17756WAT     H153510   9.241   8.717   4.660
17756WAT     H253511   9.343   8.741   4.786
17757WAT      O53512   9.381   7.566   2.906
17757WAT     H153513   9.307   7.544   2.969
17757WAT     H253514   9.344   7.592   2.817
17758WAT      O53515   2.062   9.762   9.138
17758WAT     H153516   2.009   9.839   9.173
17758WAT     H253517   2.155   9.767   9.174
17759WAT      O53518   0.255   7.923   2.213
17759WAT     H153519   0.346   7.910   2.176
17759WAT     H253520   0.222   7.837   2.252
17760WAT      O53521   0.897   5.231   3.095
17760WAT     H153522   0.979   5.219   3.039
17760WAT     H253523   0.922   5.240   3.191
17761WAT      O53524   3.934   4.013   9.429
17761WAT     H153525   3.836   4.001   9.445
17761WAT     H253526   3.975   3.924   9.410
17762WAT      O53527   1.994   7.580   3.714
17762WAT     H153528   1.979   7.497   3.659
17762WAT     H253529   1.938   7.654   3.676
17763WAT      O53530   2.653   8.562   6.643
17763WAT     H153531   2.664   8.587   6.546
17763WAT     H253532   2.738   8.581   6.692
17764WAT      O53533   2.984   6.066   9.808
17764WAT     H153534   2.897   6.019   9.816
17764WAT     H253535   2.970   6.165   9.819
17765WAT      O53536   4.376   7.516   6.190
17765WAT     H153537   4.287   7.496   6.149
17765WAT     H253538   4.392   7.453   6.266
17766WAT      O53539   6.483   5.739   7.238
17766WAT     H153540   6.489   5.661   7.176
17766WAT     H253541   6.546   5.725   7.314
17767WAT      O53542   2.438   2.188   8.635
17767WAT     H153543   2.477   2.264   8.688
17767WAT     H253544   2.502   2.112   8.635
17768WAT      O53545   0.280   7.460   9.792
17768WAT     H153546   0.212   7.504   9.851
17768WAT     H253547   0.234   7.421   9.712
17769WAT      O53548   8.081   4.244   7.926
17769WAT     H153549   7.981   4.244   7.926
17769WAT     H253550   8.115   4.160   7.886
17770WAT      O53551   9.756   4.822   7.097
17770WAT     H153552   9.812   4.792   7.174
17770WAT     H253553   9.771   4.919   7.080
17771WAT      O53554   5.626   3.129   7.671
17771WAT     H153555   5.661   3.160   7.759
17771WAT     H253556   5.634   3.202   7.603
17772WAT      O53557   9.182   0.448   3.526
17772WAT     H153558   9.254   0.489   3.469
17772WAT     H253559   9.105   0.511   3.533
17773WAT      O53560   5.331   3.095   0.260
17773WAT     H153561   5.353   3.185   0.223
17773WAT     H253562   5.369   3.088   0.353
17774WAT      O53563   7.764   1.553   7.618
17774WAT     H153564   7.669   1.560   7.649
17774WAT     H253565   7.773   1.478   7.553
17775WAT      O53566   1.423   2.113   3.791
17775WAT     H153567   1.330   2.133   3.820
17775WAT     H253568   1.482   2.104   3.871
17776WAT      O53569   3.411   3.049   2.942
17776WAT     H153570   3.363   2.981   2.887
17776WAT     H253571   3.442   3.124   2.883
17777WAT      O53572   6.087   5.989   1.837
17777WAT     H153573   6.070   5.924   1.763
17777WAT     H253574   6.133   5.942   1.913
17778WAT      O53575   8.118   1.865   9.564
17778WAT     H153576   8.206   1.822   9.581
17778WAT     H253577   8.124   1.924   9.483
17779WAT      O53578   0.493   6.171   2.801
17779WAT     H153579   0.565   6.114   2.840
17779WAT     H253580   0.480   6.252   2.858
17780WAT      O53581   2.041   1.684   7.887
17780WAT     H153582   2.047   1.648   7.795
17780WAT     H253583   2.072   1.780   7.888
17781WAT      O53584   7.782   2.994   3.027
17781WAT     H153585   7.823   3.046   3.101
17781WAT     H253586   7.832   2.907   3.016
17782WAT      O53587   8.354   4.671   2.534
17782WAT     H153588   8.357   4.660   2.435
17782WAT     H253589   8.292   4.745   2.558
17783WAT      O53590   3.716   4.278   6.284
17783WAT     H153591   3.622   4.266   6.315
17783WAT     H253592   3.715   4.329   6.197
17784WAT      O53593   5.784   8.177   3.170
17784WAT     H153594   5.878   8.149   3.151
17784WAT     H253595   5.765   8.265   3.127
17785WAT      O53596   8.409   7.049   8.035
17785WAT     H153597   8.509   7.049   8.038
17785WAT     H253598   8.372   6.993   8.109
17786WAT      O53599   3.762   3.437   3.898
17786WAT     H153600   3.813   3.491   3.965
17786WAT     H253601   3.668   3.470   3.893
17787WAT      O53602   4.359   7.544   1.804
17787WAT     H153603   4.417   7.477   1.757
17787WAT     H253604   4.412   7.592   1.874
17788WAT      O53605   1.411   0.285   0.361
17788WAT     H153606   1.428   0.253   0.454
17788WAT     H253607   1.374   0.378   0.363
17789WAT      O53608   3.874   9.738   3.144
17789WAT     H153609   3.833   9.648   3.157
17789WAT     H253610   3.810   9.809   3.172
17790WAT      O53611   0.576   5.553   7.423
17790WAT     H153612   0.663   5.603   7.427
17790WAT     H253613   0.553   5.520   7.515
17791WAT      O53614   0.449   8.777   1.816
17791WAT     H153615   0.463   8.833   1.897
17791WAT     H253616   0.498   8.690   1.827
17792WAT      O53617   3.915   3.201   7.603
17792WAT     H153618   3.917   3.193   7.703
17792WAT     H253619   3.843   3.143   7.567
17793WAT      O53620   5.364   4.324   8.368
17793WAT     H153621   5.317   4.376   8.297
17793WAT     H253622   5.402   4.240   8.329
17794WAT      O53623   0.914   6.030   5.819
17794WAT     H153624   0.914   5.948   5.760
17794WAT     H253625   1.008   6.051   5.847
17795WAT      O53626   1.159   2.156   3.829
17795WAT     H153627   1.067   2.190   3.813
17795WAT     H253628   1.160   2.096   3.909
17796WAT      O53629   2.039   8.970   4.868
17796WAT     H153630   2.060   9.015   4.955
17796WAT     H253631   1.946   8.993   4.841
17797WAT      O53632   2.294   8.934   0.029
17797WAT     H153633   2.264   8.883   0.110
17797WAT     H253634   2.254   9.025   0.031
17798WAT      O53635   9.466   8.557   0.188
17798WAT     H153636   9.545   8.515   0.233
17798WAT     H253637   9.388   8.495   0.192
17799WAT      O53638   7.836   7.478   0.453
17799WAT     H153639   7.830   7.382   0.481
17799WAT     H253640   7.928   7.497   0.418
17800WAT      O53641   1.317   0.816   9.250
17800WAT     H153642   1.233   0.855   9.287
17800WAT     H253643   1.294   0.741   9.187
17801WAT      O53644   4.077   8.599   0.269
17801WAT     H153645   4.039   8.539   0.339
17801WAT     H253646   4.036   8.578   0.181
17802WAT      O53647   6.531   4.584   2.383
17802WAT     H153648   6.613   4.540   2.418
17802WAT     H253649   6.451   4.526   2.400
17803WAT      O53650   9.423   5.410   0.114
17803WAT     H153651   9.337   5.416   0.163
17803WAT     H253652   9.448   5.501   0.080
17804WAT      O53653   6.135   8.369   9.039
17804WAT     H153654   6.080   8.341   8.960
17804WAT     H253655   6.134   8.468   9.048
17805WAT      O53656   2.990   0.195   1.668
17805WAT     H153657   3.043   0.263   1.719
17805WAT     H253658   3.010   0.103   1.703
17806WAT      O53659   8.726   6.457   9.428
17806WAT     H153660   8.710   6.534   9.489
17806WAT     H253661   8.639   6.428   9.386
17807WAT      O53662   0.773   8.894   0.973
17807WAT     H153663   0.826   8.810   0.961
17807WAT     H253664   0.784   8.952   0.892
17808WAT      O53665   7.061   2.324   7.467
17808WAT     H153666   7.035   2.252   7.532
17808WAT     H253667   7.156   2.310   7.439
17809WAT      O53668   6.407   9.102   7.632
17809WAT     H153669   6.426   9.085   7.535
17809WAT     H253670   6.425   9.198   7.653
17810WAT      O53671   9.667   5.245   2.574
17810WAT     H153672   9.729   5.182   2.526
17810WAT     H253673   9.668   5.334   2.528
17811WAT      O53674   4.176   5.896   9.353
17811WAT     H153675   4.177   5.796   9.356
17811WAT     H253676   4.128   5.926   9.271
17812WAT      O53677   4.038   8.236   0.046
17812WAT     H153678   4.040   8.162  -0.021
17812WAT     H253679   4.091   8.209   0.126
17813WAT      O53680   8.221   9.563   7.404
17813WAT     H153681   8.318   9.552   7.429
17813WAT     H253682   8.171   9.479   7.425
17814WAT      O53683   0.891   4.381   9.078
17814WAT     H153684   0.818   4.344   9.022
17814WAT     H253685   0.923   4.312   9.142
17815WAT      O53686   3.885   9.135   5.999
17815WAT     H153687   3.901   9.117   6.096
17815WAT     H253688   3.804   9.194   5.988
17816WAT      O53689   8.746   9.604   1.727
17816WAT     H153690   8.764   9.623   1.823
17816WAT     H253691   8.706   9.513   1.718
17817WAT      O53692   9.024   2.581   9.874
17817WAT     H153693   8.937   2.590   9.827
17817WAT     H253694   9.053   2.485   9.875
17818WAT      O53695   9.814   5.276   3.378
17818WAT     H153696   9.783   5.271   3.473
17818WAT     H253697   9.740   5.248   3.317
17819WAT      O53698   0.282   9.283   2.247
17819WAT     H153699   0.251   9.288   2.152
17819WAT     H253700   0.243   9.359   2.298
17820WAT      O53701   1.264   2.634   7.449
17820WAT     H153702   1.215   2.555   7.411
17820WAT     H253703   1.358   2.635   7.414
17821WAT      O53704   3.479   0.894   3.391
17821WAT     H153705   3.519   0.878   3.301
17821WAT     H253706   3.383   0.868   3.390
17822WAT      O53707   1.670   4.856   8.486
17822WAT     H153708   1.698   4.790   8.416
17822WAT     H253709   1.691   4.819   8.577
17823WAT      O53710   7.246   1.817   7.175
17823WAT     H153711   7.188   1.793   7.097
17823WAT     H253712   7.337   1.843   7.143
17824WAT      O53713   8.190   9.534   4.878
17824WAT     H153714   8.262   9.465   4.884
17824WAT     H253715   8.231   9.625   4.887
17825WAT      O53716   9.438   1.348   9.864
17825WAT     H153717   9.446   1.250   9.842
17825WAT     H253718   9.523   1.379   9.907
17826WAT      O53719   9.238   7.027   4.559
17826WAT     H153720   9.197   6.938   4.538
17826WAT     H253721   9.198   7.063   4.644
17827WAT      O53722   2.110   1.105   9.682
17827WAT     H153723   2.119   1.184   9.622
17827WAT     H253724   2.201   1.068   9.703
17828WAT      O53725   1.949   8.614   6.959
17828WAT     H153726   1.963   8.604   6.861
17828WAT     H253727   2.027   8.663   6.999
17829WAT      O53728   8.867   8.203   9.815
17829WAT     H153729   8.797   8.191   9.745
17829WAT     H253730   8.946   8.144   9.794
17830WAT      O53731   9.168   9.705   3.603
17830WAT     H153732   9.110   9.704   3.684
17830WAT     H253733   9.264   9.707   3.630
17831WAT      O53734   2.729   7.496   6.630
17831WAT     H153735   2.698   7.402   6.617
17831WAT     H253736   2.655   7.560   6.607
17832WAT      O53737   6.307   2.729   4.374
17832WAT     H153738   6.402   2.758   4.358
17832WAT     H253739   6.247   2.809   4.369
17833WAT      O53740   3.840   4.484   0.428
17833WAT     H153741   3.914   4.420   0.409
17833WAT     H253742   3.878   4.574   0.450
17834WAT      O53743   1.824   8.983   4.014
17834WAT     H153744   1.837   9.003   4.111
17834WAT     H253745   1.775   9.059   3.970
17835WAT      O53746   5.982   7.361   4.808
17835WAT     H153747   5.939   7.441   4.765
17835WAT     H253748   6.053   7.325   4.747
17836WAT      O53749   9.386   2.811   4.391
17836WAT     H153750   9.398   2.910   4.400
17836WAT     H253751   9.417   2.782   4.300
17837WAT      O53752   1.046   2.107   7.298
17837WAT     H153753   0.956   2.115   7.256
17837WAT     H253754   1.040   2.045   7.376
17838WAT      O53755   5.811   5.962   6.544
17838WAT     H153756   5.771   5.884   6.593
17838WAT     H253757   5.869   5.927   6.470
17839WAT      O53758   3.996   1.485   3.863
17839WAT     H153759   3.924   1.478   3.794
17839WAT     H253760   4.081   1.515   3.820
17840WAT      O53761   1.012   0.473   5.551
17840WAT     H153762   1.098   0.460   5.600
17840WAT     H253763   0.995   0.570   5.538
17841WAT      O53764   6.495   3.675   7.860
17841WAT     H153765   6.568   3.610   7.841
17841WAT     H253766   6.467   3.666   7.956
17842WAT      O53767   6.702   4.180   2.758
17842WAT     H153768   6.794   4.166   2.720
17842WAT     H253769   6.688   4.120   2.837
17843WAT      O53770   5.984   9.719   9.261
17843WAT     H153771   6.036   9.634   9.250
17843WAT     H253772   5.943   9.745   9.173
17844WAT      O53773   1.580   7.728   3.751
17844WAT     H153774   1.667   7.776   3.766
17844WAT     H253775   1.590   7.666   3.673
17845WAT      O53776   9.487   0.753   4.897
17845WAT     H153777   9.487   0.663   4.854
17845WAT     H253778   9.561   0.759   4.964
17846WAT      O53779   7.298   0.585   0.384
17846WAT     H153780   7.306   0.544   0.294
17846WAT     H253781   7.258   0.677   0.375
17847WAT      O53782   6.722   3.419   0.473
17847WAT     H153783   6.714   3.479   0.554
17847WAT     H253784   6.807   3.439   0.426
17848WAT      O53785   6.662   0.042   5.554
17848WAT     H153786   6.601   0.056   5.632
17848WAT     H253787   6.745  -0.004   5.583
17849WAT      O53788   1.003   8.121   7.464
17849WAT     H153789   1.061   8.194   7.426
17849WAT     H253790   0.923   8.109   7.405
17850WAT      O53791   2.954   5.542   0.462
17850WAT     H153792   2.981   5.615   0.400
17850WAT     H253793   2.879   5.490   0.421
17851WAT      O53794   6.907   7.734   7.337
17851WAT     H153795   6.908   7.764   7.432
17851WAT     H253796   6.969   7.791   7.283
17852WAT      O53797   9.755   2.230   0.017
17852WAT     H153798   9.804   2.152  -0.024
17852WAT     H253799   9.726   2.205   0.109
17853WAT      O53800   5.104   5.625   0.711
17853WAT     H153801   5.086   5.666   0.621
17853WAT     H253802   5.138   5.695   0.773
17854WAT      O53803   3.008   6.908   3.019
17854WAT     H153804   2.955   6.949   3.093
17854WAT     H253805   3.103   6.938   3.025
17855WAT      O53806   4.982   3.145   8.748
17855WAT     H153807   5.016   3.052   8.735
17855WAT     H253808   4.988   3.196   8.662
17856WAT      O53809   0.674   8.248   6.943
17856WAT     H153810   0.622   8.175   6.988
17856WAT     H253811   0.647   8.253   6.847
17857WAT      O53812   3.251   3.916   5.094
17857WAT     H153813   3.338   3.950   5.059
17857WAT     H253814   3.194   3.993   5.121
17858WAT      O53815   4.764   8.722   2.236
17858WAT     H153816   4.790   8.647   2.176
17858WAT     H253817   4.780   8.696   2.331
17859WAT      O53818   0.724   4.918   9.092
17859WAT     H153819   0.748   4.888   9.185
17859WAT     H253820   0.743   5.016   9.083
17860WAT      O53821   1.211   0.905   2.353
17860WAT     H153822   1.196   0.878   2.448
17860WAT     H253823   1.123   0.914   2.307
17861WAT      O53824   5.269   1.886   0.904
17861WAT     H153825   5.269   1.985   0.919
17861WAT     H253826   5.175   1.854   0.894
17862WAT      O53827   0.669   5.109   4.941
17862WAT     H153828   0.760   5.150   4.933
17862WAT     H253829   0.620   5.150   5.018
17863WAT      O53830   7.435   0.469   4.803
17863WAT     H153831   7.506   0.519   4.753
17863WAT     H253832   7.355   0.528   4.814
17864WAT      O53833   6.250   0.678   5.841
17864WAT     H153834   6.278   0.654   5.934
17864WAT     H253835   6.167   0.627   5.817
17865WAT      O53836   6.266   8.248   5.523
17865WAT     H153837   6.192   8.213   5.467
17865WAT     H253838   6.299   8.176   5.585
17866WAT      O53839   0.572   6.199   0.589
17866WAT     H153840   0.487   6.155   0.561
17866WAT     H253841   0.615   6.242   0.509
17867WAT      O53842   7.507   5.818   3.525
17867WAT     H153843   7.598   5.843   3.558
17867WAT     H253844   7.439   5.879   3.565
17868WAT      O53845   5.940   1.763   3.215
17868WAT     H153846   5.938   1.768   3.115
17868WAT     H253847   5.983   1.845   3.252
17869WAT      O53848   9.730   1.036   7.655
17869WAT     H153849   9.637   1.028   7.621
17869WAT     H253850   9.731   1.022   7.754
17870WAT      O53851   6.639   9.197   5.681
17870WAT     H153852   6.681   9.160   5.764
17870WAT     H253853   6.603   9.123   5.625
17871WAT      O53854   0.416   0.541   8.901
17871WAT     H153855   0.351   0.499   8.838
17871WAT     H253856   0.365   0.589   8.973
17872WAT      O53857   7.186   8.730   2.408
17872WAT     H153858   7.146   8.804   2.354
17872WAT     H253859   7.284   8.745   2.418
17873WAT      O53860   0.778   0.817   1.436
17873WAT     H153861   0.819   0.749   1.497
17873WAT     H253862   0.837   0.827   1.355
17874WAT      O53863   3.971   9.363   2.024
17874WAT     H153864   4.053   9.379   1.968
17874WAT     H253865   3.970   9.268   2.056
17875WAT      O53866   1.421   4.129   3.715
17875WAT     H153867   1.451   4.224   3.707
17875WAT     H253868   1.492   4.068   3.678
17876WAT      O53869   7.122   2.824   3.757
17876WAT     H153870   7.124   2.728   3.785
17876WAT     H253871   7.212   2.865   3.775
17877WAT      O53872   9.539   9.158   4.331
17877WAT     H153873   9.600   9.234   4.354
17877WAT     H253874   9.453   9.193   4.295
17878WAT      O53875   2.274   3.933   6.428
17878WAT     H153876   2.209   3.887   6.367
17878WAT     H253877   2.230   4.011   6.471
17879WAT      O53878   4.856   6.689   9.387
17879WAT     H153879   4.814   6.736   9.310
17879WAT     H253880   4.921   6.620   9.354
17880WAT      O53881   5.105   8.079   0.526
17880WAT     H153882   5.185   8.024   0.553
17880WAT     H253883   5.057   8.032   0.451
17881WAT      O53884   2.290   6.667   4.718
17881WAT     H153885   2.330   6.590   4.668
17881WAT     H253886   2.246   6.635   4.801
17882WAT      O53887   9.422   4.898   4.476
17882WAT     H153888   9.340   4.930   4.523
17882WAT     H253889   9.499   4.956   4.501
17883WAT      O53890   4.958   5.217   2.472
17883WAT     H153891   5.046   5.194   2.431
17883WAT     H253892   4.925   5.304   2.434
17884WAT      O53893   8.726   0.811   6.383
17884WAT     H153894   8.809   0.866   6.375
17884WAT     H253895   8.681   0.830   6.470
17885WAT      O53896   3.813   0.827   0.528
17885WAT     H153897   3.728   0.774   0.520
17885WAT     H253898   3.870   0.810   0.447
17886WAT      O53899   6.657   8.875   6.805
17886WAT     H153900   6.730   8.901   6.869
17886WAT     H253901   6.602   8.955   6.782
17887WAT      O53902   6.855   4.238   8.312
17887WAT     H153903   6.910   4.285   8.243
17887WAT     H253904   6.875   4.277   8.402
17888WAT      O53905   6.644   4.599   3.428
17888WAT     H153906   6.583   4.574   3.504
17888WAT     H253907   6.688   4.516   3.392
17889WAT      O53908   6.248   4.778   9.871
17889WAT     H153909   6.347   4.770   9.858
17889WAT     H253910   6.219   4.870   9.846
17890WAT      O53911   1.672   5.439   8.091
17890WAT     H153912   1.695   5.343   8.074
17890WAT     H253913   1.617   5.475   8.016
17891WAT      O53914   6.490   0.585   9.148
17891WAT     H153915   6.514   0.488   9.145
17891WAT     H253916   6.390   0.594   9.150
17892WAT      O53917   4.914   1.660   7.384
17892WAT     H153918   4.894   1.654   7.286
17892WAT     H253919   4.918   1.568   7.423
17893WAT      O53920   7.949   3.557   1.446
17893WAT     H153921   7.959   3.458   1.451
17893WAT     H253922   7.852   3.580   1.436
17894WAT      O53923   6.080   3.934   4.645
17894WAT     H153924   6.089   3.836   4.628
17894WAT     H253925   6.159   3.982   4.607
17895WAT      O53926   7.510   1.923   7.493
17895WAT     H153927   7.553   1.875   7.417
17895WAT     H253928   7.579   1.950   7.560
17896WAT      O53929   7.861   3.200   7.051
17896WAT     H153930   7.819   3.194   6.960
17896WAT     H253931   7.789   3.210   7.120
17897WAT      O53932   0.108   8.167   5.264
17897WAT     H153933   0.055   8.243   5.226
17897WAT     H253934   0.067   8.138   5.350
17898WAT      O53935   0.787   2.507   9.483
17898WAT     H153936   0.831   2.438   9.425
17898WAT     H253937   0.775   2.471   9.575
17899WAT      O53938   8.189   5.881   8.229
17899WAT     H153939   8.247   5.893   8.310
17899WAT     H253940   8.147   5.969   8.206
17900WAT      O53941   3.929   7.214   5.324
17900WAT     H153942   4.026   7.209   5.350
17900WAT     H253943   3.921   7.267   5.240
17901WAT      O53944   6.478   5.517   6.202
17901WAT     H153945   6.531   5.505   6.286
17901WAT     H253946   6.384   5.484   6.217
17902WAT      O53947   1.955   0.281   8.845
17902WAT     H153948   1.918   0.353   8.904
17902WAT     H253949   1.883   0.215   8.824
17903WAT      O53950   1.366   1.320   3.729
17903WAT     H153951   1.268   1.307   3.714
17903WAT     H253952   1.403   1.242   3.779
17904WAT      O53953   4.594   7.408   8.933
17904WAT     H153954   4.553   7.492   8.969
17904WAT     H253955   4.639   7.428   8.846
17905WAT      O53956   7.925   2.458   3.185
17905WAT     H153957   8.017   2.426   3.205
17905WAT     H253958   7.860   2.383   3.200
17906WAT      O53959   2.452   3.387   6.009
17906WAT     H153960   2.525   3.399   6.076
17906WAT     H253961   2.364   3.376   6.056
17907WAT      O53962   3.029   5.080   8.809
17907WAT     H153963   3.114   5.028   8.795
17907WAT     H253964   2.955   5.036   8.759
17908WAT      O53965   8.942   4.134   8.551
17908WAT     H153966   8.857   4.103   8.594
17908WAT     H253967   8.933   4.131   8.452
17909WAT      O53968   4.783   6.169   6.795
17909WAT     H153969   4.754   6.132   6.883
17909WAT     H253970   4.819   6.261   6.808
17910WAT      O53971   9.440   0.419   4.996
17910WAT     H153972   9.482   0.430   4.906
17910WAT     H253973   9.506   0.376   5.058
17911WAT      O53974   9.331   6.980   6.743
17911WAT     H153975   9.356   7.059   6.688
17911WAT     H253976   9.234   6.986   6.769
17912WAT      O53977   1.543   5.376   7.818
17912WAT     H153978   1.602   5.353   7.740
17912WAT     H253979   1.558   5.309   7.891
17913WAT      O53980   3.210   6.278   4.506
17913WAT     H153981   3.167   6.297   4.594
17913WAT     H253982   3.150   6.220   4.451
17914WAT      O53983   0.657   1.625   1.036
17914WAT     H153984   0.754   1.602   1.025
17914WAT     H253985   0.602   1.567   0.975
17915WAT      O53986   7.158   3.795   3.380
17915WAT     H153987   7.211   3.813   3.463
17915WAT     H253988   7.188   3.708   3.340
17916WAT      O53989   1.340   4.880   1.501
17916WAT     H153990   1.253   4.907   1.460
17916WAT     H253991   1.323   4.839   1.591
17917WAT      O53992   5.728   2.937   8.052
17917WAT     H153993   5.636   2.971   8.073
17917WAT     H253994   5.772   2.905   8.136
17918WAT      O53995   3.644   7.710   2.930
17918WAT     H153996   3.626   7.619   2.893
17918WAT     H253997   3.734   7.711   2.973
17919WAT      O53998   6.641   3.727   6.134
17919WAT     H153999   6.695   3.676   6.067
17919WAT     H254000   6.546   3.731   6.103
17920WAT      O54001   5.682   0.454   7.549
17920WAT     H154002   5.592   0.416   7.525
17920WAT     H254003   5.700   0.439   7.646
17921WAT      O54004   8.419   1.478   3.591
17921WAT     H154005   8.322   1.456   3.583
17921WAT     H254006   8.464   1.413   3.652
17922WAT      O54007   6.616   3.752   2.839
17922WAT     H154008   6.520   3.782   2.842
17922WAT     H254009   6.619   3.654   2.822
17923WAT      O54010   1.168   0.571   2.987
17923WAT     H154011   1.199   0.568   3.082
17923WAT     H254012   1.159   0.477   2.952
17924WAT      O54013   6.482   8.879   3.744
17924WAT     H154014   6.556   8.872   3.810
17924WAT     H254015   6.394   8.870   3.790
17925WAT      O54016   1.654   1.461   4.467
17925WAT     H154017   1.598   1.465   4.550
17925WAT     H254018   1.747   1.491   4.487
17926WAT      O54019   3.892   9.830   7.311
17926WAT     H154020   3.920   9.882   7.392
17926WAT     H254021   3.849   9.890   7.245
17927WAT      O54022   8.682   0.444   3.033
17927WAT     H154023   8.645   0.525   3.078
17927WAT     H254024   8.782   0.450   3.029
17928WAT      O54025   7.646   2.533   2.978
17928WAT     H154026   7.711   2.460   2.961
17928WAT     H254027   7.695   2.619   2.992
17929WAT      O54028   1.122   8.602   9.527
17929WAT     H154029   1.220   8.596   9.543
17929WAT     H254030   1.073   8.556   9.602
17930WAT      O54031   9.269   8.771   7.808
17930WAT     H154032   9.313   8.731   7.728
17930WAT     H254033   9.310   8.861   7.827
17931WAT      O54034   9.467   6.169   0.487
17931WAT     H154035   9.447   6.143   0.393
17931WAT     H254036   9.526   6.100   0.529
17932WAT      O54037   5.714   4.101   6.350
17932WAT     H154038   5.753   4.016   6.384
17932WAT     H254039   5.615   4.100   6.362
17933WAT      O54040   7.933   6.440   8.835
17933WAT     H154041   7.965   6.372   8.901
17933WAT     H254042   7.986   6.431   8.750
17934WAT      O54043   6.286   8.541   6.476
17934WAT     H154044   6.241   8.515   6.391
17934WAT     H254045   6.309   8.458   6.528
17935WAT      O54046   6.532   7.900   8.659
17935WAT     H154047   6.437   7.902   8.627
17935WAT     H254048   6.544   7.966   8.733
17936WAT      O54049   6.581   4.150   9.712
17936WAT     H154050   6.501   4.166   9.770
17936WAT     H254051   6.644   4.087   9.759
17937WAT      O54052   7.592   2.082   5.335
17937WAT     H154053   7.675   2.137   5.320
17937WAT     H254054   7.616   2.000   5.387
17938WAT      O54055   0.235   6.232   1.273
17938WAT     H154056   0.168   6.202   1.341
17938WAT     H254057   0.214   6.325   1.244
17939WAT      O54058   4.359   7.553   6.511
17939WAT     H154059   4.272   7.589   6.545
17939WAT     H254060   4.434   7.593   6.564
17940WAT      O54061   2.830   4.715   5.787
17940WAT     H154062   2.860   4.656   5.862
17940WAT     H254063   2.782   4.795   5.824
17941WAT      O54064   9.149   6.672   1.617
17941WAT     H154065   9.088   6.712   1.685
17941WAT     H254066   9.136   6.718   1.529
17942WAT      O54067   0.985   5.516   4.141
17942WAT     H154068   0.963   5.441   4.078
17942WAT     H254069   1.079   5.504   4.175
17943WAT      O54070   2.161   3.156   6.586
17943WAT     H154071   2.211   3.083   6.539
17943WAT     H254072   2.073   3.171   6.539
17944WAT      O54073   8.602   0.674   6.199
17944WAT     H154074   8.625   0.734   6.276
17944WAT     H254075   8.512   0.700   6.162
17945WAT      O54076   8.517   0.138   4.896
17945WAT     H154077   8.581   0.097   4.832
17945WAT     H254078   8.433   0.163   4.848
17946WAT      O54079   3.907   3.629   6.085
17946WAT     H154080   3.979   3.572   6.123
17946WAT     H254081   3.817   3.594   6.113
17947WAT      O54082   1.697   4.594   4.688
17947WAT     H154083   1.720   4.549   4.601
17947WAT     H254084   1.598   4.611   4.691
17948WAT      O54085   2.866   9.651   6.753
17948WAT     H154086   2.935   9.582   6.777
17948WAT     H254087   2.859   9.658   6.654
17949WAT      O54088   1.961   8.495   2.273
17949WAT     H154089   1.907   8.481   2.357
17949WAT     H254090   1.902   8.484   2.193
17950WAT      O54091   1.375   0.550   1.665
17950WAT     H154092   1.293   0.542   1.608
17950WAT     H254093   1.353   0.519   1.758
17951WAT      O54094   1.902   2.648   4.758
17951WAT     H154095   1.944   2.729   4.718
17951WAT     H254096   1.887   2.580   4.686
17952WAT      O54097   6.967   9.040   8.988
17952WAT     H154098   6.956   9.137   8.964
17952WAT     H254099   6.881   8.992   8.971
17953WAT      O54100   5.361   8.244   9.362
17953WAT     H154101   5.339   8.218   9.268
17953WAT     H254102   5.452   8.287   9.364
17954WAT      O54103   5.784   9.679   5.885
17954WAT     H154104   5.829   9.595   5.915
17954WAT     H254105   5.686   9.664   5.876
17955WAT      O54106   4.730   4.352   7.016
17955WAT     H154107   4.701   4.257   7.032
17955WAT     H254108   4.792   4.354   6.937
17956WAT      O54109   9.481   0.433   4.500
17956WAT     H154110   9.400   0.481   4.467
17956WAT     H254111   9.503   0.359   4.436
17957WAT      O54112   4.825   9.791   9.446
17957WAT     H154113   4.919   9.777   9.477
17957WAT     H254114   4.800   9.887   9.460
17958WAT      O54115   4.300   9.005   1.354
17958WAT     H154116   4.263   8.941   1.421
17958WAT     H254117   4.226   9.042   1.299
17959WAT      O54118   3.157   4.326   6.067
17959WAT     H154119   3.187   4.421   6.076
17959WAT     H254120   3.062   4.318   6.099
17960WAT      O54121   9.578   5.913   2.825
17960WAT     H154122   9.669   5.893   2.789
17960WAT     H254123   9.541   5.830   2.868
17961WAT      O54124   0.209   5.586   4.447
17961WAT     H154125   0.145   5.624   4.381
17961WAT     H254126   0.280   5.534   4.399
17962WAT      O54127   4.674   2.010   3.948
17962WAT     H154128   4.643   2.066   4.025
17962WAT     H254129   4.739   1.940   3.981
17963WAT      O54130   6.643   6.616   5.138
17963WAT     H154131   6.680   6.685   5.201
17963WAT     H254132   6.698   6.533   5.145
17964WAT      O54133   8.507   1.166   2.885
17964WAT     H154134   8.463   1.245   2.842
17964WAT     H254135   8.436   1.103   2.919
17965WAT      O54136   1.012   9.156   0.987
17965WAT     H154137   1.049   9.229   0.929
17965WAT     H254138   1.053   9.069   0.961
17966WAT      O54139   1.428   0.614   2.033
17966WAT     H154140   1.446   0.515   2.030
17966WAT     H254141   1.483   0.660   1.964
17967WAT      O54142   9.774   0.691   4.739
17967WAT     H154143   9.771   0.767   4.674
17967WAT     H254144   9.863   0.645   4.733
17968WAT      O54145   8.289   3.613   0.252
17968WAT     H154146   8.225   3.545   0.218
17968WAT     H254147   8.294   3.607   0.352
17969WAT      O54148   9.692   4.749   6.335
17969WAT     H154149   9.727   4.843   6.336
17969WAT     H254150   9.596   4.748   6.364
17970WAT      O54151   0.329   6.351   9.474
17970WAT     H154152   0.377   6.383   9.392
17970WAT     H254153   0.270   6.424   9.509
17971WAT      O54154   2.371   6.089   8.387
17971WAT     H154155   2.330   6.076   8.477
17971WAT     H254156   2.440   6.162   8.392
17972WAT      O54157   5.983   5.957   5.158
17972WAT     H154158   6.019   6.036   5.208
17972WAT     H254159   6.059   5.905   5.119
17973WAT      O54160   2.418   1.918   9.332
17973WAT     H154161   2.510   1.887   9.355
17973WAT     H254162   2.419   1.962   9.242
17974WAT      O54163   0.864   2.923   9.034
17974WAT     H154164   0.841   2.969   9.120
17974WAT     H254165   0.888   2.991   8.965
17975WAT      O54166   1.279   3.174   9.661
17975WAT     H154167   1.306   3.265   9.630
17975WAT     H254168   1.206   3.182   9.729
17976WAT      O54169   4.179   9.273   6.237
17976WAT     H154170   4.177   9.369   6.265
17976WAT     H254171   4.274   9.247   6.218
17977WAT      O54172   6.775   4.298   1.701
17977WAT     H154173   6.694   4.346   1.736
17977WAT     H254174   6.858   4.343   1.735
17978WAT      O54175   4.595   0.195   3.893
17978WAT     H154176   4.536   0.115   3.904
17978WAT     H254177   4.688   0.171   3.920
17979WAT      O54178   8.506   2.216   5.720
17979WAT     H154179   8.455   2.237   5.803
17979WAT     H254180   8.494   2.119   5.697
17980WAT      O54181   2.797   0.330   7.974
17980WAT     H154182   2.756   0.239   7.983
17980WAT     H254183   2.858   0.347   8.051
17981WAT      O54184   4.130   0.155   2.649
17981WAT     H154185   4.187   0.236   2.662
17981WAT     H254186   4.081   0.163   2.562
17982WAT      O54187   5.188   0.482   6.091
17982WAT     H154188   5.119   0.438   6.149
17982WAT     H254189   5.154   0.571   6.060
17983WAT      O54190   7.223   5.460   7.093
17983WAT     H154191   7.310   5.427   7.131
17983WAT     H254192   7.240   5.506   7.006
17984WAT      O54193   3.484   5.702   7.430
17984WAT     H154194   3.409   5.758   7.465
17984WAT     H254195   3.454   5.655   7.347
17985WAT      O54196   0.928   4.151   6.102
17985WAT     H154197   0.980   4.120   6.023
17985WAT     H254198   0.985   4.144   6.184
17986WAT      O54199   2.290   6.909   8.162
17986WAT     H154200   2.374   6.879   8.117
17986WAT     H254201   2.227   6.948   8.095
17987WAT      O54202   3.334   2.487   4.820
17987WAT     H154203   3.400   2.413   4.808
17987WAT     H254204   3.366   2.548   4.893
17988WAT      O54205   4.653   6.964   9.670
17988WAT     H154206   4.672   7.046   9.615
17988WAT     H254207   4.556   6.941   9.663
17989WAT      O54208   7.969   9.472   4.715
17989WAT     H154209   7.899   9.421   4.765
17989WAT     H254210   8.047   9.488   4.775
17990WAT      O54211   1.584   7.993   2.524
17990WAT     H154212   1.664   8.022   2.576
17990WAT     H254213   1.516   8.067   2.524
17991WAT      O54214   8.564   8.965   2.743
17991WAT     H154215   8.660   8.973   2.768
17991WAT     H254216   8.546   8.876   2.702
17992WAT      O54217   7.931   5.280   5.175
17992WAT     H154218   7.865   5.304   5.104
17992WAT     H254219   7.984   5.362   5.200
17993WAT      O54220   8.048   3.630   2.116
17993WAT     H154221   8.068   3.686   2.036
17993WAT     H254222   8.093   3.670   2.197
17994WAT      O54223   5.726   0.785   2.518
17994WAT     H154224   5.714   0.771   2.419
17994WAT     H254225   5.648   0.748   2.567
17995WAT      O54226   6.672   7.676   8.659
17995WAT     H154227   6.730   7.684   8.578
17995WAT     H254228   6.626   7.764   8.675
17996WAT      O54229   9.853   3.066   2.592
17996WAT     H154230   9.842   3.086   2.494
17996WAT     H254231   9.833   2.969   2.609
17997WAT      O54232   6.491   6.147   3.374
17997WAT     H154233   6.483   6.088   3.455
17997WAT     H254234   6.497   6.242   3.402
17998WAT      O54235   2.076   2.165   1.204
17998WAT     H154236   2.132   2.199   1.128
17998WAT     H254237   1.985   2.141   1.170
17999WAT      O54238   5.489   5.357   4.539
17999WAT     H154239   5.450   5.270   4.569
17999WAT     H254240   5.427   5.401   4.475
18000WAT      O54241   7.552   2.429   4.186
18000WAT     H154242   7.549   2.405   4.089
18000WAT     H254243   7.647   2.448   4.213
18001WAT      O54244   2.798   2.573   3.292
18001WAT     H154245   2.871   2.624   3.336
18001WAT     H254246   2.711   2.592   3.338
18002WAT      O54247   5.906   1.751   2.934
18002WAT     H154248   5.963   1.678   2.899
18002WAT     H254249   5.935   1.839   2.895
18003WAT      O54250   5.287   1.914   2.279
18003WAT     H154251   5.301   1.861   2.195
18003WAT     H254252   5.253   1.854   2.351
18004WAT      O54253   5.049   7.223   1.925
18004WAT     H154254   5.039   7.232   1.826
18004WAT     H254255   5.105   7.298   1.960
18005WAT      O54256   8.387   7.921   2.977
18005WAT     H154257   8.463   7.865   3.009
18005WAT     H254258   8.346   7.878   2.897
18006WAT      O54259   0.402   8.110   0.341
18006WAT     H154260   0.320   8.166   0.334
18006WAT     H254261   0.389   8.025   0.290
18007WAT      O54262   2.242   3.920   3.442
18007WAT     H154263   2.202   3.972   3.366
18007WAT     H254264   2.253   3.979   3.521
18008WAT      O54265   2.558   5.360   7.192
18008WAT     H154266   2.523   5.440   7.143
18008WAT     H254267   2.531   5.365   7.288
18009WAT      O54268   0.893   3.850   1.318
18009WAT     H154269   0.858   3.813   1.232
18009WAT     H254270   0.988   3.821   1.330
18010WAT      O54271   8.156   3.883   3.770
18010WAT     H154272   8.204   3.961   3.809
18010WAT     H254273   8.222   3.812   3.744
18011WAT      O54274   4.895   2.706   8.123
18011WAT     H154275   4.857   2.724   8.213
18011WAT     H254276   4.828   2.653   8.069
18012WAT      O54277   1.280   9.038   8.872
18012WAT     H154278   1.298   9.104   8.799
18012WAT     H254279   1.231   9.082   8.946
18013WAT      O54280   8.304   5.098   0.753
18013WAT     H154281   8.346   5.134   0.837
18013WAT     H254282   8.374   5.087   0.683
18014WAT      O54283   4.365   5.780   7.844
18014WAT     H154284   4.346   5.707   7.909
18014WAT     H254285   4.350   5.869   7.888
18015WAT      O54286   4.597   8.953   4.176
18015WAT     H154287   4.652   8.964   4.259
18015WAT     H254288   4.654   8.912   4.104
18016WAT      O54289   3.700   7.163   7.851
18016WAT     H154290   3.632   7.139   7.920
18016WAT     H254291   3.653   7.191   7.767
18017WAT      O54292   7.710   3.765   7.279
18017WAT     H154293   7.765   3.745   7.198
18017WAT     H254294   7.762   3.742   7.361
18018WAT      O54295   9.878   3.191   5.968
18018WAT     H154296   9.913   3.105   5.932
18018WAT     H254297   9.921   3.267   5.921
18019WAT      O54298   8.538   5.170   1.812
18019WAT     H154299   8.596   5.089   1.821
18019WAT     H254300   8.594   5.253   1.816
18020WAT      O54301   8.502   1.570   6.745
18020WAT     H154302   8.451   1.654   6.726
18020WAT     H254303   8.441   1.492   6.736
18021WAT      O54304   9.810   8.488   3.201
18021WAT     H154305   9.827   8.529   3.112
18021WAT     H254306   9.886   8.508   3.263
18022WAT      O54307   0.428   4.562   5.192
18022WAT     H154308   0.408   4.659   5.208
18022WAT     H254309   0.355   4.506   5.229
18023WAT      O54310   9.691   7.230   0.828
18023WAT     H154311   9.606   7.269   0.793
18023WAT     H254312   9.734   7.175   0.757
18024WAT      O54313   7.662   2.585   5.958
18024WAT     H154314   7.563   2.574   5.951
18024WAT     H254315   7.690   2.581   6.053
18025WAT      O54316   4.227   2.872   7.617
18025WAT     H154317   4.274   2.821   7.545
18025WAT     H254318   4.185   2.807   7.682
18026WAT      O54319   8.844   9.244   5.966
18026WAT     H154320   8.861   9.282   6.057
18026WAT     H254321   8.848   9.317   5.898
18027WAT      O54322   2.540   7.418   8.131
18027WAT     H154323   2.453   7.432   8.084
18027WAT     H254324   2.553   7.320   8.149
18028WAT      O54325   8.182   3.801   7.343
18028WAT     H154326   8.157   3.720   7.289
18028WAT     H254327   8.274   3.830   7.318
18029WAT      O54328   8.882   0.923   7.169
18029WAT     H154329   8.948   0.851   7.190
18029WAT     H254330   8.800   0.882   7.129
18030WAT      O54331   7.501   1.032   9.154
18030WAT     H154332   7.516   1.077   9.065
18030WAT     H254333   7.420   1.072   9.197
18031WAT      O54334   7.229   0.850   9.183
18031WAT     H154335   7.175   0.934   9.189
18031WAT     H254336   7.247   0.828   9.087
18032WAT      O54337   5.441   0.751   4.510
18032WAT     H154338   5.385   0.770   4.590
18032WAT     H254339   5.439   0.830   4.448
18033WAT      O54340   7.769   3.250   0.918
18033WAT     H154341   7.818   3.301   0.989
18033WAT     H254342   7.802   3.279   0.828
18034WAT      O54343   3.878   0.506   3.216
18034WAT     H154344   3.882   0.434   3.285
18034WAT     H254345   3.791   0.501   3.167
18035WAT      O54346   3.240   1.979   1.134
18035WAT     H154347   3.223   2.048   1.204
18035WAT     H254348   3.301   2.017   1.064
18036WAT      O54349   9.327   1.496   9.693
18036WAT     H154350   9.351   1.589   9.720
18036WAT     H254351   9.372   1.431   9.755
18037WAT      O54352   0.284   3.652   3.524
18037WAT     H154353   0.301   3.561   3.487
18037WAT     H254354   0.205   3.692   3.478
18038WAT      O54355   7.738   3.600   2.609
18038WAT     H154356   7.689   3.623   2.693
18038WAT     H254357   7.674   3.598   2.533
18039WAT      O54358   5.363   9.207   1.165
18039WAT     H154359   5.439   9.267   1.187
18039WAT     H254360   5.396   9.125   1.119
18040WAT      O54361   9.345   5.764   1.733
18040WAT     H154362   9.291   5.680   1.724
18040WAT     H254363   9.442   5.741   1.741
18041WAT      O54364   8.156   7.845   5.804
18041WAT     H154365   8.135   7.935   5.767
18041WAT     H254366   8.075   7.808   5.851
18042WAT      O54367   2.296   0.543   7.746
18042WAT     H154368   2.393   0.567   7.752
18042WAT     H254369   2.241   0.627   7.742
18043WAT      O54370   1.654   1.845   5.487
18043WAT     H154371   1.748   1.842   5.454
18043WAT     H254372   1.593   1.806   5.417
18044WAT      O54373   4.230   7.918   5.981
18044WAT     H154374   4.284   7.879   6.056
18044WAT     H254375   4.136   7.886   5.987
18045WAT      O54376   8.738   0.169   0.874
18045WAT     H154377   8.718   0.255   0.922
18045WAT     H254378   8.718   0.180   0.777
18046WAT      O54379   8.162   6.567   5.921
18046WAT     H154380   8.226   6.561   5.845
18046WAT     H254381   8.186   6.499   5.990
18047WAT      O54382   3.755   7.285   2.246
18047WAT     H154383   3.803   7.211   2.198
18047WAT     H254384   3.714   7.250   2.330
18048WAT      O54385   8.964   4.111   8.281
18048WAT     H154386   9.055   4.086   8.249
18048WAT     H254387   8.896   4.094   8.210
18049WAT      O54388   3.756   2.153   2.083
18049WAT     H154389   3.714   2.244   2.088
18049WAT     H254390   3.844   2.160   2.035
18050WAT      O54391   7.495   5.324   0.180
18050WAT     H154392   7.433   5.272   0.239
18050WAT     H254393   7.502   5.280   0.091
18051WAT      O54394   9.577   8.961   6.029
18051WAT     H154395   9.597   9.034   5.964
18051WAT     H254396   9.500   8.907   5.996
18052WAT      O54397   6.287   3.777   3.869
18052WAT     H154398   6.285   3.808   3.964
18052WAT     H254399   6.290   3.677   3.866
18053WAT      O54400   3.730   6.718   2.304
18053WAT     H154401   3.731   6.772   2.220
18053WAT     H254402   3.644   6.666   2.310
18054WAT      O54403   1.458   4.168   2.151
18054WAT     H154404   1.490   4.246   2.098
18054WAT     H254405   1.524   4.145   2.222
18055WAT      O54406   9.189   7.110   1.084
18055WAT     H154407   9.278   7.137   1.121
18055WAT     H254408   9.202   7.046   1.008
18056WAT      O54409   3.892   9.716   9.435
18056WAT     H154410   3.929   9.646   9.496
18056WAT     H254411   3.792   9.719   9.445
18057WAT      O54412   8.802   2.424   0.244
18057WAT     H154413   8.773   2.517   0.219
18057WAT     H254414   8.867   2.428   0.319
18058WAT      O54415   2.336   9.050   4.340
18058WAT     H154416   2.352   8.981   4.411
18058WAT     H254417   2.253   9.026   4.289
18059WAT      O54418   0.302   3.601   5.538
18059WAT     H154419   0.285   3.646   5.450
18059WAT     H254420   0.263   3.509   5.536
18060WAT      O54421   2.082   8.881   1.799
18060WAT     H154422   2.034   8.926   1.724
18060WAT     H254423   2.044   8.913   1.886
18061WAT      O54424   6.065   3.024   2.087
18061WAT     H154425   6.144   3.018   2.147
18061WAT     H254426   5.994   3.080   2.129
18062WAT      O54427   8.847   2.187   2.174
18062WAT     H154428   8.886   2.266   2.223
18062WAT     H254429   8.921   2.129   2.140
18063WAT      O54430   8.828   2.804   4.875
18063WAT     H154431   8.775   2.746   4.814
18063WAT     H254432   8.893   2.748   4.927
18064WAT      O54433   5.972   8.282   8.836
18064WAT     H154434   5.947   8.186   8.822
18064WAT     H254435   5.934   8.337   8.762
18065WAT      O54436   4.872   6.177   4.477
18065WAT     H154437   4.879   6.165   4.576
18065WAT     H254438   4.893   6.090   4.432
18066WAT      O54439   0.531   9.340   2.278
18066WAT     H154440   0.576   9.269   2.332
18066WAT     H254441   0.441   9.307   2.248
18067WAT      O54442   5.761   9.345   9.565
18067WAT     H154443   5.758   9.245   9.563
18067WAT     H254444   5.694   9.379   9.630
18068WAT      O54445   1.616   4.178   3.397
18068WAT     H154446   1.548   4.219   3.458
18068WAT     H254447   1.618   4.227   3.311
18069WAT      O54448   5.276   6.267   6.527
18069WAT     H154449   5.373   6.270   6.502
18069WAT     H254450   5.267   6.237   6.622
18070WAT      O54451   9.785   7.797   3.835
18070WAT     H154452   9.845   7.728   3.795
18070WAT     H254453   9.827   7.887   3.824
18071WAT      O54454   9.248   4.577   0.122
18071WAT     H154455   9.269   4.541   0.213
18071WAT     H254456   9.188   4.514   0.073
18072WAT      O54457   8.960   9.288   4.832
18072WAT     H154458   9.059   9.282   4.845
18072WAT     H254459   8.915   9.288   4.922
18073WAT      O54460   7.699   8.713   8.109
18073WAT     H154461   7.638   8.651   8.159
18073WAT     H254462   7.770   8.747   8.170
18074WAT      O54463   5.572   3.227   0.592
18074WAT     H154464   5.583   3.224   0.691
18074WAT     H254465   5.505   3.297   0.568
18075WAT      O54466   0.545   7.772   0.234
18075WAT     H154467   0.624   7.737   0.182
18075WAT     H254468   0.492   7.696   0.269
18076WAT      O54469   0.163   4.335   2.562
18076WAT     H154470   0.209   4.269   2.622
18076WAT     H254471   0.179   4.309   2.467
18077WAT      O54472   2.703   4.930   1.683
18077WAT     H154473   2.641   5.001   1.649
18077WAT     H254474   2.655   4.873   1.750
18078WAT      O54475   0.758   9.364   8.982
18078WAT     H154476   0.800   9.333   9.067
18078WAT     H254477   0.829   9.398   8.920
18079WAT      O54478   5.198   9.815   0.181
18079WAT     H154479   5.145   9.852   0.257
18079WAT     H254480   5.171   9.721   0.163
18080WAT      O54481   7.891   2.332   7.402
18080WAT     H154482   7.904   2.276   7.484
18080WAT     H254483   7.841   2.415   7.427
18081WAT      O54484   5.915   6.749   5.136
18081WAT     H154485   5.881   6.735   5.043
18081WAT     H254486   5.838   6.769   5.196
18082WAT      O54487   0.028   1.043   2.735
18082WAT     H154488   0.058   1.009   2.824
18082WAT     H254489  -0.057   1.094   2.746
18083WAT      O54490   6.223   1.707   1.611
18083WAT     H154491   6.160   1.659   1.671
18083WAT     H254492   6.172   1.773   1.556
18084WAT      O54493   1.546   5.981   8.432
18084WAT     H154494   1.573   6.064   8.383
18084WAT     H254495   1.495   5.921   8.371
18085WAT      O54496   8.148   6.300   8.683
18085WAT     H154497   8.228   6.332   8.735
18085WAT     H254498   8.146   6.346   8.594
18086WAT      O54499   5.361   5.341   6.982
18086WAT     H154500   5.345   5.243   6.995
18086WAT     H254501   5.309   5.373   6.902
18087WAT      O54502   0.580   6.169   4.088
18087WAT     H154503   0.576   6.250   4.028
18087WAT     H254504   0.656   6.179   4.153
18088WAT      O54505   0.186   3.249   8.414
18088WAT     H154506   0.261   3.279   8.473
18088WAT     H254507   0.213   3.165   8.366
18089WAT      O54508   8.483   9.058   0.398
18089WAT     H154509   8.548   8.982   0.393
18089WAT     H254510   8.424   9.055   0.317
18090WAT      O54511   7.343   2.373   9.517
18090WAT     H154512   7.313   2.279   9.527
18090WAT     H254513   7.370   2.410   9.606
18091WAT      O54514   6.521   6.487   1.302
18091WAT     H154515   6.485   6.463   1.212
18091WAT     H254516   6.501   6.583   1.322
18092WAT      O54517   2.110   2.603   0.107
18092WAT     H154518   2.128   2.622   0.010
18092WAT     H254519   2.067   2.683   0.149
18093WAT      O54520   8.979   3.752   7.268
18093WAT     H154521   8.956   3.758   7.171
18093WAT     H254522   9.053   3.816   7.290
18094WAT      O54523   7.084   0.159   3.387
18094WAT     H154524   7.034   0.073   3.384
18094WAT     H254525   7.024   0.233   3.355
18095WAT      O54526   9.567   0.734   2.149
18095WAT     H154527   9.489   0.768   2.202
18095WAT     H254528   9.552   0.752   2.052
18096WAT      O54529   4.406   7.988   1.611
18096WAT     H154530   4.422   8.065   1.672
18096WAT     H254531   4.351   7.918   1.657
18097WAT      O54532   8.824   2.617   7.110
18097WAT     H154533   8.893   2.546   7.094
18097WAT     H254534   8.742   2.596   7.056
18098WAT      O54535   3.754   5.780   0.932
18098WAT     H154536   3.739   5.681   0.943
18098WAT     H254537   3.671   5.822   0.896
18099WAT      O54538   8.293   2.758   8.998
18099WAT     H154539   8.283   2.852   9.030
18099WAT     H254540   8.203   2.714   8.994
18100WAT      O54541   0.201   9.014   6.919
18100WAT     H154542   0.120   9.032   6.975
18100WAT     H254543   0.180   9.035   6.823
18101WAT      O54544   9.617   8.982   8.783
18101WAT     H154545   9.591   9.059   8.724
18101WAT     H254546   9.574   8.992   8.872
18102WAT      O54547   1.898   0.980   7.261
18102WAT     H154548   1.995   0.975   7.285
18102WAT     H254549   1.852   1.047   7.319
18103WAT      O54550   9.681   8.661   1.017
18103WAT     H154551   9.681   8.569   0.978
18103WAT     H254552   9.658   8.728   0.946
18104WAT      O54553   7.757   5.793   1.430
18104WAT     H154554   7.801   5.869   1.477
18104WAT     H254555   7.692   5.829   1.363
18105WAT      O54556   4.372   3.310   9.651
18105WAT     H154557   4.429   3.322   9.570
18105WAT     H254558   4.402   3.228   9.700
18106WAT      O54559   2.113   4.795   4.198
18106WAT     H154560   2.192   4.806   4.137
18106WAT     H254561   2.038   4.753   4.148
18107WAT      O54562   4.462   5.589   2.038
18107WAT     H154563   4.559   5.608   2.033
18107WAT     H254564   4.419   5.650   2.104
18108WAT      O54565   4.050   5.567   5.231
18108WAT     H154566   3.979   5.516   5.280
18108WAT     H254567   4.089   5.636   5.292
18109WAT      O54568   8.615   6.683   6.646
18109WAT     H154569   8.567   6.685   6.558
18109WAT     H254570   8.650   6.591   6.663
18110WAT      O54571   9.498   6.779   3.562
18110WAT     H154572   9.425   6.821   3.616
18110WAT     H254573   9.461   6.703   3.509
18111WAT      O54574   7.819   0.004   8.039
18111WAT     H154575   7.910  -0.036   8.042
18111WAT     H254576   7.824   0.096   8.001
18112WAT      O54577   9.804   9.280   8.103
18112WAT     H154578   9.807   9.194   8.155
18112WAT     H254579   9.864   9.347   8.146
18113WAT      O54580   0.947   5.915   8.206
18113WAT     H154581   1.040   5.891   8.181
18113WAT     H254582   0.887   5.835   8.193
18114WAT      O54583   3.325   5.717   0.010
18114WAT     H154584   3.264   5.745  -0.064
18114WAT     H254585   3.419   5.713  -0.024
18115WAT      O54586   0.280   1.857   0.860
18115WAT     H154587   0.285   1.915   0.941
18115WAT     H254588   0.301   1.763   0.884
18116WAT      O54589   7.169   1.752   5.427
18116WAT     H154590   7.265   1.769   5.404
18116WAT     H254591   7.114   1.754   5.344
18117WAT      O54592   1.776   9.808   2.410
18117WAT     H154593   1.759   9.843   2.502
18117WAT     H254594   1.711   9.734   2.390
18118WAT      O54595   7.132   2.652   2.993
18118WAT     H154596   7.162   2.557   2.998
18118WAT     H254597   7.065   2.670   3.065
18119WAT      O54598   1.317   5.641   4.799
18119WAT     H154599   1.259   5.634   4.880
18119WAT     H254600   1.283   5.579   4.729
18120WAT      O54601   5.028   2.462   7.217
18120WAT     H154602   5.087   2.451   7.297
18120WAT     H254603   4.947   2.404   7.227
18121WAT      O54604   6.867   6.468   7.750
18121WAT     H154605   6.907   6.377   7.744
18121WAT     H254606   6.826   6.480   7.841
18122WAT      O54607   1.582   0.991   1.636
18122WAT     H154608   1.526   0.941   1.570
18122WAT     H254609   1.678   0.975   1.617
18123WAT      O54610   5.979   5.559   6.021
18123WAT     H154611   5.971   5.537   5.924
18123WAT     H254612   5.942   5.650   6.038
18124WAT      O54613   8.216   2.521   2.020
18124WAT     H154614   8.244   2.425   2.012
18124WAT     H254615   8.164   2.548   1.940
18125WAT      O54616   7.430   8.881   7.251
18125WAT     H154617   7.503   8.875   7.320
18125WAT     H254618   7.470   8.867   7.160
18126WAT      O54619   3.340   5.574   3.564
18126WAT     H154620   3.341   5.476   3.579
18126WAT     H254621   3.314   5.621   3.649
18127WAT      O54622   0.229   8.967   8.629
18127WAT     H154623   0.310   8.915   8.656
18127WAT     H254624   0.163   8.966   8.704
18128WAT      O54625   3.793   2.084   7.149
18128WAT     H154626   3.876   2.088   7.095
18128WAT     H254627   3.725   2.026   7.104
18129WAT      O54628   8.039   0.871   4.756
18129WAT     H154629   8.063   0.847   4.662
18129WAT     H254630   7.946   0.838   4.777
18130WAT      O54631   3.655   2.561   2.621
18130WAT     H154632   3.641   2.546   2.523
18130WAT     H254633   3.725   2.499   2.655
18131WAT      O54634   1.336   6.365   4.222
18131WAT     H154635   1.271   6.430   4.185
18131WAT     H254636   1.313   6.273   4.192
18132WAT      O54637   4.475   6.443   6.660
18132WAT     H154638   4.460   6.503   6.581
18132WAT     H254639   4.428   6.480   6.740
18133WAT      O54640   1.789   8.785   1.246
18133WAT     H154641   1.763   8.745   1.334
18133WAT     H254642   1.753   8.728   1.172
18134WAT      O54643   3.545   6.922   0.461
18134WAT     H154644   3.566   6.826   0.483
18134WAT     H254645   3.626   6.978   0.480
18135WAT      O54646   3.192   9.507   7.947
18135WAT     H154647   3.247   9.509   7.864
18135WAT     H254648   3.237   9.452   8.017
18136WAT      O54649   7.428   3.267   6.134
18136WAT     H154650   7.334   3.301   6.130
18136WAT     H254651   7.454   3.254   6.230
18137WAT      O54652   4.525   3.843   0.770
18137WAT     H154653   4.587   3.893   0.709
18137WAT     H254654   4.579   3.780   0.826
18138WAT      O54655   0.640   6.705   7.063
18138WAT     H154656   0.572   6.635   7.040
18138WAT     H254657   0.681   6.740   6.979
18139WAT      O54658   6.079   4.467   1.357
18139WAT     H154659   6.083   4.367   1.368
18139WAT     H254660   6.119   4.492   1.269
18140WAT      O54661   3.781   1.778   0.557
18140WAT     H154662   3.794   1.819   0.467
18140WAT     H254663   3.861   1.795   0.613
18141WAT      O54664   4.762   3.215   2.687
18141WAT     H154665   4.836   3.248   2.745
18141WAT     H254666   4.795   3.140   2.629
18142WAT      O54667   9.362   3.843   1.062
18142WAT     H154668   9.389   3.794   0.979
18142WAT     H254669   9.339   3.938   1.038
18143WAT      O54670   8.515   0.814   4.963
18143WAT     H154671   8.444   0.880   4.989
18143WAT     H254672   8.552   0.837   4.874
18144WAT      O54673   9.263   4.265   3.879
18144WAT     H154674   9.327   4.301   3.946
18144WAT     H254675   9.301   4.181   3.839
18145WAT      O54676   6.403   6.414   1.558
18145WAT     H154677   6.345   6.336   1.533
18145WAT     H254678   6.470   6.430   1.486
18146WAT      O54679   8.813   5.319   8.529
18146WAT     H154680   8.794   5.250   8.598
18146WAT     H254681   8.910   5.346   8.535
18147WAT      O54682   7.734   4.037   9.528
18147WAT     H154683   7.701   3.993   9.444
18147WAT     H254684   7.658   4.081   9.575
18148WAT      O54685   0.775   8.253   6.446
18148WAT     H154686   0.724   8.333   6.415
18148WAT     H254687   0.712   8.190   6.493
18149WAT      O54688   9.186   2.509   3.151
18149WAT     H154689   9.258   2.544   3.092
18149WAT     H254690   9.100   2.554   3.129
18150WAT      O54691   1.759   2.174   0.820
18150WAT     H154692   1.827   2.126   0.764
18150WAT     H254693   1.685   2.207   0.761
18151WAT      O54694   8.412   9.582   6.768
18151WAT     H154695   8.507   9.550   6.761
18151WAT     H254696   8.408   9.657   6.835
18152WAT      O54697   0.705   3.633   3.768
18152WAT     H154698   0.658   3.718   3.792
18152WAT     H254699   0.692   3.566   3.841
18153WAT      O54700   4.098   8.347   2.227
18153WAT     H154701   4.191   8.343   2.263
18153WAT     H254702   4.101   8.356   2.128
18154WAT      O54703   5.150   5.789   8.945
18154WAT     H154704   5.221   5.847   8.985
18154WAT     H254705   5.060   5.820   8.977
18155WAT      O54706   3.932   6.591   7.552
18155WAT     H154707   3.982   6.676   7.538
18155WAT     H254708   3.922   6.543   7.465
18156WAT      O54709   5.885   5.230   3.276
18156WAT     H154710   5.813   5.229   3.206
18156WAT     H254711   5.950   5.156   3.257
18157WAT      O54712   7.092   5.309   3.063
18157WAT     H154713   7.099   5.229   3.124
18157WAT     H254714   7.004   5.353   3.077
18158WAT      O54715   1.217   6.704   1.248
18158WAT     H154716   1.182   6.639   1.315
18158WAT     H254717   1.155   6.708   1.170
18159WAT      O54718   9.419   0.906   1.165
18159WAT     H154719   9.501   0.883   1.111
18159WAT     H254720   9.366   0.976   1.117
18160WAT      O54721   7.389   2.704   4.539
18160WAT     H154722   7.358   2.678   4.447
18160WAT     H254723   7.411   2.801   4.540
18161WAT      O54724   9.635   4.927   1.462
18161WAT     H154725   9.669   5.020   1.449
18161WAT     H254726   9.610   4.913   1.558
18162WAT      O54727   6.837   2.713   9.554
18162WAT     H154728   6.884   2.781   9.499
18162WAT     H254729   6.747   2.693   9.514
18163WAT      O54730   2.367   9.761   3.555
18163WAT     H154731   2.431   9.838   3.553
18163WAT     H254732   2.284   9.786   3.506
18164WAT      O54733   2.891   9.413   0.590
18164WAT     H154734   2.960   9.447   0.526
18164WAT     H254735   2.806   9.394   0.541
18165WAT      O54736   8.801   8.053   2.895
18165WAT     H154737   8.873   8.055   2.825
18165WAT     H254738   8.726   8.112   2.867
18166WAT      O54739   2.880   0.790   5.391
18166WAT     H154740   2.804   0.852   5.412
18166WAT     H254741   2.848   0.718   5.329
18167WAT      O54742   9.105   7.476   3.309
18167WAT     H154743   9.172   7.403   3.316
18167WAT     H254744   9.041   7.456   3.234
18168WAT      O54745   7.438   0.273   3.632
18168WAT     H154746   7.432   0.180   3.668
18168WAT     H254747   7.346   0.304   3.604
18169WAT      O54748   7.829   7.551   4.914
18169WAT     H154749   7.908   7.569   4.973
18169WAT     H254750   7.800   7.456   4.926
18170WAT      O54751   7.827   9.310   8.072
18170WAT     H154752   7.893   9.236   8.059
18170WAT     H254753   7.738   9.282   8.037
18171WAT      O54754   0.632   2.914   9.307
18171WAT     H154755   0.699   2.972   9.261
18171WAT     H254756   0.593   2.963   9.385
18172WAT      O54757   9.738   7.543   4.000
18172WAT     H154758   9.715   7.627   3.952
18172WAT     H254759   9.700   7.464   3.950
18173WAT      O54760   9.076   4.613   7.788
18173WAT     H154761   8.994   4.562   7.817
18173WAT     H254762   9.049   4.704   7.759
18174WAT      O54763   3.811   2.763   1.624
18174WAT     H154764   3.801   2.762   1.723
18174WAT     H254765   3.797   2.670   1.588
18175WAT      O54766   0.159   7.800   8.741
18175WAT     H154767   0.244   7.755   8.712
18175WAT     H254768   0.126   7.758   8.825
18176WAT      O54769   7.015   1.684   1.901
18176WAT     H154770   6.999   1.586   1.889
18176WAT     H254771   7.019   1.728   1.812
18177WAT      O54772   9.224   5.767   6.877
18177WAT     H154773   9.288   5.691   6.888
18177WAT     H254774   9.130   5.732   6.881
18178WAT      O54775   2.961   8.181   4.595
18178WAT     H154776   2.929   8.185   4.500
18178WAT     H254777   2.971   8.273   4.631
18179WAT      O54778   7.287   2.042   7.974
18179WAT     H154779   7.263   2.114   8.038
18179WAT     H254780   7.275   2.075   7.881
18180WAT      O54781   8.446   5.138   8.950
18180WAT     H154782   8.461   5.103   9.042
18180WAT     H254783   8.350   5.130   8.926
18181WAT      O54784   3.154   5.687   5.748
18181WAT     H154785   3.219   5.759   5.773
18181WAT     H254786   3.068   5.702   5.796
18182WAT      O54787   5.696   2.058   0.926
18182WAT     H154788   5.638   2.121   0.873
18182WAT     H254789   5.778   2.106   0.955
18183WAT      O54790   4.650   1.613   5.637
18183WAT     H154791   4.681   1.663   5.717
18183WAT     H254792   4.589   1.539   5.666
18184WAT      O54793   5.835   5.057   3.007
18184WAT     H154794   5.822   4.993   2.931
18184WAT     H254795   5.891   5.014   3.077
18185WAT      O54796   6.804   2.224   3.911
18185WAT     H154797   6.790   2.138   3.961
18185WAT     H254798   6.902   2.245   3.909
18186WAT      O54799   9.729   2.960   3.617
18186WAT     H154800   9.645   3.009   3.593
18186WAT     H254801   9.726   2.868   3.577
18187WAT      O54802   2.607   6.172   9.270
18187WAT     H154803   2.570   6.082   9.293
18187WAT     H254804   2.699   6.182   9.310
18188WAT      O54805   5.643   4.043   1.390
18188WAT     H154806   5.639   3.983   1.471
18188WAT     H254807   5.672   4.134   1.418
18189WAT      O54808   1.804   5.788   4.302
18189WAT     H154809   1.873   5.856   4.329
18189WAT     H254810   1.820   5.703   4.352
18190WAT      O54811   5.290   9.354   7.928
18190WAT     H154812   5.307   9.413   8.007
18190WAT     H254813   5.308   9.259   7.953
18191WAT      O54814   4.264   2.845   2.740
18191WAT     H154815   4.213   2.759   2.743
18191WAT     H254816   4.339   2.837   2.675
18192WAT      O54817   4.918   7.560   6.385
18192WAT     H154818   4.873   7.583   6.471
18192WAT     H254819   4.850   7.559   6.311
18193WAT      O54820   8.496   7.589   7.965
18193WAT     H154821   8.548   7.541   8.035
18193WAT     H254822   8.490   7.687   7.988
18194WAT      O54823   0.083   3.125   1.439
18194WAT     H154824   0.150   3.104   1.368
18194WAT     H254825   0.124   3.111   1.529
18195WAT      O54826   5.167   3.995   7.743
18195WAT     H154827   5.247   4.050   7.767
18195WAT     H254828   5.196   3.904   7.714
18196WAT      O54829   4.681   4.922   0.988
18196WAT     H154830   4.773   4.884   0.982
18196WAT     H254831   4.616   4.857   0.950
18197WAT      O54832   2.518   6.556   6.887
18197WAT     H154833   2.587   6.596   6.827
18197WAT     H254834   2.556   6.475   6.932
18198WAT      O54835   6.279   2.170   5.254
18198WAT     H154836   6.331   2.219   5.184
18198WAT     H254837   6.291   2.216   5.342
18199WAT      O54838   2.002   0.989   4.810
18199WAT     H154839   1.991   0.912   4.747
18199WAT     H254840   2.099   1.014   4.815
18200WAT      O54841   7.087   3.978   8.672
18200WAT     H154842   7.141   3.944   8.749
18200WAT     H254843   7.089   3.911   8.598
18201WAT      O54844   1.737   3.921   5.688
18201WAT     H154845   1.802   3.849   5.715
18201WAT     H254846   1.664   3.881   5.633
18202WAT      O54847   4.168   5.128   2.431
18202WAT     H154848   4.242   5.146   2.496
18202WAT     H254849   4.124   5.042   2.455
18203WAT      O54850   3.567   0.914   8.036
18203WAT     H154851   3.632   0.842   8.060
18203WAT     H254852   3.568   0.929   7.937
18204WAT      O54853   8.354   5.459   8.155
18204WAT     H154854   8.256   5.455   8.173
18204WAT     H254855   8.402   5.491   8.237
18205WAT      O54856   5.643   2.554   3.872
18205WAT     H154857   5.558   2.598   3.902
18205WAT     H254858   5.634   2.455   3.881
18206WAT      O54859   8.356   5.533   6.622
18206WAT     H154860   8.370   5.610   6.560
18206WAT     H254861   8.262   5.536   6.658
18207WAT      O54862   2.387   8.127   4.799
18207WAT     H154863   2.470   8.072   4.784
18207WAT     H254864   2.329   8.081   4.867
18208WAT      O54865   5.114   8.454   2.922
18208WAT     H154866   5.037   8.391   2.911
18208WAT     H254867   5.100   8.533   2.861
18209WAT      O54868   5.333   4.483   8.769
18209WAT     H154869   5.256   4.459   8.709
18209WAT     H254870   5.300   4.539   8.845
18210WAT      O54871   4.610   4.417   9.019
18210WAT     H154872   4.647   4.337   9.066
18210WAT     H254873   4.672   4.495   9.031
18211WAT      O54874   8.460   3.819   0.899
18211WAT     H154875   8.407   3.904   0.889
18211WAT     H254876   8.536   3.834   0.961
18212WAT      O54877   8.868   8.595   3.223
18212WAT     H154878   8.878   8.497   3.241
18212WAT     H254879   8.815   8.637   3.297
18213WAT      O54880   9.512   7.909   5.287
18213WAT     H154881   9.557   7.855   5.357
18213WAT     H254882   9.487   7.851   5.210
18214WAT      O54883   8.801   4.176   1.895
18214WAT     H154884   8.742   4.219   1.827
18214WAT     H254885   8.748   4.113   1.951
18215WAT      O54886   2.391   1.518   8.835
18215WAT     H154887   2.414   1.498   8.740
18215WAT     H254888   2.294   1.539   8.842
18216WAT      O54889   1.727   2.754   9.201
18216WAT     H154890   1.666   2.685   9.162
18216WAT     H254891   1.801   2.775   9.136
18217WAT      O54892   3.791   9.738   8.530
18217WAT     H154893   3.802   9.652   8.580
18217WAT     H254894   3.708   9.733   8.474
18218WAT      O54895   6.788   2.631   7.035
18218WAT     H154896   6.813   2.694   6.962
18218WAT     H254897   6.806   2.537   7.005
18219WAT      O54898   4.074   0.716   4.295
18219WAT     H154899   4.156   0.675   4.334
18219WAT     H254900   4.008   0.644   4.272
18220WAT      O54901   3.294   2.041   2.071
18220WAT     H154902   3.289   1.954   2.120
18220WAT     H254903   3.210   2.055   2.018
18221WAT      O54904   0.425   8.141   4.448
18221WAT     H154905   0.514   8.140   4.495
18221WAT     H254906   0.438   8.165   4.352
18222WAT      O54907   6.808   2.292   0.783
18222WAT     H154908   6.868   2.334   0.851
18222WAT     H254909   6.858   2.280   0.698
18223WAT      O54910   0.136   7.335   9.099
18223WAT     H154911   0.167   7.266   9.165
18223WAT     H254912   0.125   7.292   9.009
18224WAT      O54913   4.522   0.115   4.406
18224WAT     H154914   4.589   0.045   4.379
18224WAT     H254915   4.563   0.205   4.393
18225WAT      O54916   9.279   2.683   0.680
18225WAT     H154917   9.325   2.599   0.655
18225WAT     H254918   9.346   2.753   0.703
18226WAT      O54919   4.118   7.242   8.753
18226WAT     H154920   4.212   7.247   8.787
18226WAT     H254921   4.062   7.190   8.817
18227WAT      O54922   2.191   0.040   5.348
18227WAT     H154923   2.262   0.109   5.364
18227WAT     H254924   2.163   0.042   5.252
18228WAT      O54925   2.081   0.777   2.024
18228WAT     H154926   2.100   0.806   2.118
18228WAT     H254927   1.996   0.725   2.022
18229WAT      O54928   4.877   4.563   0.337
18229WAT     H154929   4.882   4.628   0.262
18229WAT     H254930   4.854   4.472   0.301
18230WAT      O54931   7.266   4.901   3.681
18230WAT     H154932   7.178   4.878   3.721
18230WAT     H254933   7.262   4.993   3.642
18231WAT      O54934   9.230   6.518   5.904
18231WAT     H154935   9.220   6.422   5.875
18231WAT     H254936   9.163   6.574   5.855
18232WAT      O54937   2.145   8.554   3.957
18232WAT     H154938   2.240   8.585   3.961
18232WAT     H254939   2.143   8.457   3.932
18233WAT      O54940   4.468   7.496   3.435
18233WAT     H154941   4.442   7.402   3.413
18233WAT     H254942   4.490   7.502   3.532
18234WAT      O54943   6.935   7.602   6.664
18234WAT     H154944   6.937   7.676   6.731
18234WAT     H254945   6.888   7.633   6.581
18235WAT      O54946   0.993   1.380   8.003
18235WAT     H154947   1.092   1.366   7.995
18235WAT     H254948   0.970   1.473   7.974
18236WAT      O54949   5.615   0.552   9.422
18236WAT     H154950   5.673   0.474   9.396
18236WAT     H254951   5.646   0.589   9.510
18237WAT      O54952   8.891   1.273   5.001
18237WAT     H154953   8.978   1.310   4.968
18237WAT     H254954   8.815   1.316   4.950
18238WAT      O54955   9.134   0.023   4.200
18238WAT     H154956   9.144   0.025   4.299
18238WAT     H254957   9.046   0.062   4.174
18239WAT      O54958   1.088   2.021   2.600
18239WAT     H154959   1.120   1.977   2.684
18239WAT     H254960   1.167   2.049   2.546
18240WAT      O54961   6.449   2.994   1.548
18240WAT     H154962   6.395   3.023   1.627
18240WAT     H254963   6.477   2.898   1.560
18241WAT      O54964   4.131   7.404   1.911
18241WAT     H154965   4.160   7.358   1.995
18241WAT     H254966   4.212   7.434   1.860
18242WAT      O54967   7.004   6.019   9.059
18242WAT     H154968   6.928   5.966   9.020
18242WAT     H254969   7.081   5.958   9.076
18243WAT      O54970   1.505   1.876   9.258
18243WAT     H154971   1.591   1.826   9.264
18243WAT     H254972   1.435   1.818   9.216
18244WAT      O54973   8.365   2.886   0.832
18244WAT     H154974   8.275   2.923   0.855
18244WAT     H254975   8.391   2.816   0.899
18245WAT      O54976   6.810   1.971   5.826
18245WAT     H154977   6.757   2.004   5.904
18245WAT     H254978   6.810   1.871   5.826
18246WAT      O54979   0.487   6.448   0.677
18246WAT     H154980   0.511   6.518   0.610
18246WAT     H254981   0.535   6.363   0.654
18247WAT      O54982   5.261   9.748   4.121
18247WAT     H154983   5.340   9.770   4.178
18247WAT     H254984   5.268   9.796   4.034
18248WAT      O54985   7.068   2.071   4.130
18248WAT     H154986   7.068   2.088   4.228
18248WAT     H254987   7.107   1.981   4.111
18249WAT      O54988   8.136   6.804   1.866
18249WAT     H154989   8.201   6.734   1.896
18249WAT     H254990   8.186   6.882   1.829
18250WAT      O54991   7.583   1.776   0.977
18250WAT     H154992   7.561   1.756   1.072
18250WAT     H254993   7.667   1.829   0.972
18251WAT      O54994   3.269   9.104   3.172
18251WAT     H154995   3.180   9.149   3.168
18251WAT     H254996   3.259   9.016   3.218
18252WAT      O54997   4.887   1.562   3.148
18252WAT     H154998   4.806   1.609   3.113
18252WAT     H254999   4.961   1.571   3.081
18253WAT      O55000   3.609   7.571   8.750
18253WAT     H155001   3.576   7.584   8.656
18253WAT     H255002   3.594   7.477   8.778
18254WAT      O55003   2.313   2.697   7.263
18254WAT     H155004   2.319   2.783   7.213
18254WAT     H255005   2.283   2.624   7.201
18255WAT      O55006   1.155   5.089   5.033
18255WAT     H155007   1.147   5.096   5.133
18255WAT     H255008   1.080   5.140   4.990
18256WAT      O55009   7.199   8.533   2.209
18256WAT     H155010   7.167   8.584   2.289
18256WAT     H255011   7.299   8.529   2.208
18257WAT      O55012   6.360   3.933   7.486
18257WAT     H155013   6.366   3.845   7.535
18257WAT     H255014   6.429   3.996   7.523
18258WAT      O55015   8.610   3.915   1.086
18258WAT     H155016   8.627   3.855   1.165
18258WAT     H255017   8.589   4.007   1.119
18259WAT      O55018   7.329   1.542   7.263
18259WAT     H155019   7.421   1.561   7.229
18259WAT     H255020   7.274   1.625   7.259
18260WAT      O55021   6.076   6.229   4.142
18260WAT     H155022   6.167   6.215   4.102
18260WAT     H255023   6.012   6.164   4.103
18261WAT      O55024   7.215   7.332   2.870
18261WAT     H155025   7.185   7.304   2.779
18261WAT     H255026   7.251   7.425   2.867
18262WAT      O55027   8.446   5.437   2.577
18262WAT     H155028   8.482   5.400   2.491
18262WAT     H255029   8.376   5.506   2.557
18263WAT      O55030   9.361   7.793   6.781
18263WAT     H155031   9.321   7.740   6.707
18263WAT     H255032   9.446   7.749   6.812
18264WAT      O55033   0.354   2.884   0.309
18264WAT     H155034   0.436   2.941   0.302
18264WAT     H255035   0.338   2.837   0.222
18265WAT      O55036   6.583   0.810   6.827
18265WAT     H155037   6.670   0.813   6.778
18265WAT     H255038   6.599   0.828   6.924
18266WAT      O55039   9.865   6.035   5.281
18266WAT     H155040   9.940   6.088   5.243
18266WAT     H255041   9.778   6.075   5.251
18267WAT      O55042   3.003   4.604   9.477
18267WAT     H155043   3.077   4.651   9.429
18267WAT     H255044   2.948   4.552   9.411
18268WAT      O55045   8.902   9.714   8.787
18268WAT     H155046   8.854   9.627   8.777
18268WAT     H255047   8.885   9.751   8.879
18269WAT      O55048   2.476   1.543   8.254
18269WAT     H155049   2.471   1.487   8.172
18269WAT     H255050   2.390   1.538   8.304
18270WAT      O55051   2.955   0.906   2.432
18270WAT     H155052   2.902   0.974   2.483
18270WAT     H255053   2.893   0.843   2.385
18271WAT      O55054   1.570   5.278   3.477
18271WAT     H155055   1.490   5.237   3.433
18271WAT     H255056   1.590   5.229   3.562
18272WAT      O55057   2.124   6.622   1.433
18272WAT     H155058   2.084   6.541   1.478
18272WAT     H255059   2.102   6.703   1.487
18273WAT      O55060   3.701   9.696   7.087
18273WAT     H155061   3.681   9.606   7.047
18273WAT     H255062   3.773   9.740   7.034
18274WAT      O55063   6.631   5.341   0.621
18274WAT     H155064   6.569   5.281   0.570
18274WAT     H255065   6.597   5.435   0.616
18275WAT      O55066   9.787   6.234   4.055
18275WAT     H155067   9.745   6.314   4.013
18275WAT     H255068   9.883   6.254   4.075
18276WAT      O55069   8.943   7.347   3.633
18276WAT     H155070   8.905   7.440   3.632
18276WAT     H255071   8.894   7.291   3.566
18277WAT      O55072   1.770   4.265   4.679
18277WAT     H155073   1.847   4.287   4.620
18277WAT     H255074   1.801   4.260   4.774
18278WAT      O55075   5.879   8.370   5.106
18278WAT     H155076   5.874   8.469   5.100
18278WAT     H255077   5.968   8.343   5.144
18279WAT      O55078   1.247   1.197   4.954
18279WAT     H155079   1.315   1.128   4.977
18279WAT     H255080   1.156   1.156   4.954
18280WAT      O55081   4.895   0.751   1.558
18280WAT     H155082   4.990   0.749   1.525
18280WAT     H255083   4.894   0.739   1.657
18281WAT      O55084   3.124   1.205   1.619
18281WAT     H155085   3.026   1.225   1.623
18281WAT     H255086   3.158   1.189   1.712
18282WAT      O55087   0.249   8.107   3.600
18282WAT     H155088   0.173   8.164   3.569
18282WAT     H255089   0.300   8.073   3.520
18283WAT      O55090   2.586   7.946   9.435
18283WAT     H155091   2.492   7.975   9.420
18283WAT     H255092   2.644   7.981   9.362
18284WAT      O55093   7.595   9.778   8.463
18284WAT     H155094   7.687   9.758   8.497
18284WAT     H255095   7.552   9.694   8.431
18285WAT      O55096   6.969   0.735   4.720
18285WAT     H155097   6.998   0.656   4.775
18285WAT     H255098   6.935   0.807   4.781
18286WAT      O55099   0.093   6.368   7.417
18286WAT     H155100   0.075   6.344   7.322
18286WAT     H255101   0.136   6.291   7.464
18287WAT      O55102   9.649   6.332   2.571
18287WAT     H155103   9.738   6.354   2.611
18287WAT     H255104   9.598   6.272   2.633
18288WAT      O55105   7.251   6.227   2.824
18288WAT     H155106   7.169   6.207   2.878
18288WAT     H255107   7.260   6.159   2.751
18289WAT      O55108   2.185   4.446   8.020
18289WAT     H155109   2.268   4.396   7.998
18289WAT     H255110   2.146   4.485   7.937
18290WAT      O55111   5.073   4.247   0.636
18290WAT     H155112   5.056   4.343   0.615
18290WAT     H255113   4.993   4.208   0.680
18291WAT      O55114   1.107   8.034   5.813
18291WAT     H155115   1.093   8.120   5.862
18291WAT     H255116   1.173   8.048   5.739
18292WAT      O55117   2.444   2.629   7.900
18292WAT     H155118   2.517   2.608   7.963
18292WAT     H255119   2.363   2.574   7.922
18293WAT      O55120   3.633   0.224   0.190
18293WAT     H155121   3.631   0.307   0.135
18293WAT     H255122   3.601   0.243   0.282
18294WAT      O55123   2.736   2.038   1.124
18294WAT     H155124   2.719   1.978   1.202
18294WAT     H255125   2.802   1.995   1.063
18295WAT      O55126   1.223   3.487   5.862
18295WAT     H155127   1.153   3.497   5.791
18295WAT     H255128   1.180   3.494   5.952
18296WAT      O55129   9.845   1.475   1.153
18296WAT     H155130   9.914   1.547   1.163
18296WAT     H255131   9.766   1.512   1.105
18297WAT      O55132   0.167   0.282   6.535
18297WAT     H155133   0.134   0.249   6.447
18297WAT     H255134   0.091   0.319   6.588
18298WAT      O55135   8.605   2.949   8.340
18298WAT     H155136   8.697   2.954   8.378
18298WAT     H255137   8.583   2.853   8.318
18299WAT      O55138   2.896   3.278   6.995
18299WAT     H155139   2.943   3.354   7.041
18299WAT     H255140   2.962   3.227   6.939
18300WAT      O55141   4.607   0.529   4.522
18300WAT     H155142   4.622   0.618   4.566
18300WAT     H255143   4.574   0.543   4.429
18301WAT      O55144   4.219   6.847   9.256
18301WAT     H155145   4.247   6.780   9.325
18301WAT     H255146   4.270   6.832   9.172
18302WAT      O55147   1.714   6.840   3.194
18302WAT     H155148   1.727   6.905   3.119
18302WAT     H255149   1.797   6.785   3.204
18303WAT      O55150   4.747   7.229   3.354
18303WAT     H155151   4.768   7.302   3.419
18303WAT     H255152   4.772   7.259   3.262
18304WAT      O55153   8.941   6.494   0.652
18304WAT     H155154   9.037   6.508   0.628
18304WAT     H255155   8.893   6.582   0.652
18305WAT      O55156   7.019   4.202   7.631
18305WAT     H155157   6.994   4.213   7.535
18305WAT     H255158   7.010   4.290   7.678
18306WAT      O55159   8.523   5.512   9.588
18306WAT     H155160   8.595   5.442   9.579
18306WAT     H255161   8.483   5.530   9.498
18307WAT      O55162   9.657   7.393   7.647
18307WAT     H155163   9.692   7.313   7.696
18307WAT     H255164   9.716   7.472   7.665
18308WAT      O55165   6.726   7.387   8.763
18308WAT     H155166   6.684   7.466   8.719
18308WAT     H255167   6.721   7.397   8.863
18309WAT      O55168   7.351   2.147   1.620
18309WAT     H155169   7.400   2.181   1.699
18309WAT     H255170   7.386   2.191   1.537
18310WAT      O55171   3.672   6.142   9.871
18310WAT     H155172   3.687   6.073   9.941
18310WAT     H255173   3.653   6.230   9.914
18311WAT      O55174   9.854   3.539   3.808
18311WAT     H155175   9.772   3.595   3.803
18311WAT     H255176   9.935   3.598   3.809
18312WAT      O55177   3.828   3.970   2.295
18312WAT     H155178   3.818   3.883   2.246
18312WAT     H255179   3.740   4.017   2.300
18313WAT      O55180   1.372   5.756   4.004
18313WAT     H155181   1.393   5.714   4.092
18313WAT     H255182   1.400   5.695   3.930
18314WAT      O55183   3.079   3.384   4.085
18314WAT     H155184   3.050   3.430   4.000
18314WAT     H255185   3.053   3.441   4.163
18315WAT      O55186   3.934   2.115   7.567
18315WAT     H155187   3.846   2.082   7.534
18315WAT     H255188   4.008   2.066   7.521
18316WAT      O55189   8.689   7.679   0.460
18316WAT     H155190   8.616   7.626   0.501
18316WAT     H255191   8.669   7.693   0.363
18317WAT      O55192   4.116   1.779   8.832
18317WAT     H155193   4.169   1.760   8.750
18317WAT     H255194   4.116   1.699   8.891
18318WAT      O55195   3.202   1.302   1.373
18318WAT     H155196   3.285   1.250   1.350
18318WAT     H255197   3.175   1.283   1.467
18319WAT      O55198   1.837   8.400   8.783
18319WAT     H155199   1.840   8.391   8.882
18319WAT     H255200   1.910   8.463   8.753
18320WAT      O55201   5.263   4.171   9.374
18320WAT     H155202   5.341   4.201   9.319
18320WAT     H255203   5.193   4.132   9.315
18321WAT      O55204   3.767   7.066   0.495
18321WAT     H155205   3.863   7.041   0.483
18321WAT     H255206   3.761   7.156   0.538
18322WAT      O55207   7.912   1.863   2.080
18322WAT     H155208   7.834   1.820   2.033
18322WAT     H255209   7.906   1.962   2.071
18323WAT      O55210   1.041   9.540   8.346
18323WAT     H155211   1.119   9.489   8.311
18323WAT     H255212   1.072   9.608   8.413
18324WAT      O55213   4.017   8.328   1.401
18324WAT     H155214   4.087   8.390   1.365
18324WAT     H255215   4.033   8.236   1.366
18325WAT      O55216   7.341   4.030   6.717
18325WAT     H155217   7.351   4.125   6.688
18325WAT     H255218   7.283   4.026   6.798
18326WAT      O55219   3.893   1.629   1.559
18326WAT     H155220   3.929   1.690   1.629
18326WAT     H255221   3.795   1.648   1.546
18327WAT      O55222   9.358   4.235   2.833
18327WAT     H155223   9.432   4.301   2.844
18327WAT     H255224   9.344   4.186   2.919
18328WAT      O55225   0.874   1.152   2.826
18328WAT     H155226   0.805   1.108   2.769
18328WAT     H255227   0.844   1.243   2.851
18329WAT      O55228   9.735   3.731   2.167
18329WAT     H155229   9.733   3.814   2.111
18329WAT     H255230   9.748   3.756   2.263
18330WAT      O55231   2.428   4.043   9.085
18330WAT     H155232   2.436   4.050   9.184
18330WAT     H255233   2.360   4.108   9.053
18331WAT      O55234   1.241   2.123   0.139
18331WAT     H155235   1.296   2.142   0.221
18331WAT     H255236   1.251   2.027   0.114
18332WAT      O55237   5.632   0.979   1.669
18332WAT     H155238   5.629   1.005   1.572
18332WAT     H255239   5.699   0.906   1.681
18333WAT      O55240   0.908   0.968   2.309
18333WAT     H155241   0.850   0.891   2.331
18333WAT     H255242   0.864   1.053   2.337
18334WAT      O55243   0.530   6.033   1.528
18334WAT     H155244   0.621   6.038   1.486
18334WAT     H255245   0.480   5.955   1.489
18335WAT      O55246   3.133   6.776   9.401
18335WAT     H155247   3.184   6.817   9.476
18335WAT     H255248   3.062   6.716   9.437
18336WAT      O55249   4.890   7.339   6.067
18336WAT     H155250   4.860   7.251   6.104
18336WAT     H255251   4.927   7.326   5.975
18337WAT      O55252   7.854   6.963   5.339
18337WAT     H155253   7.856   6.870   5.304
18337WAT     H255254   7.875   7.027   5.265
18338WAT      O55255   6.897   1.909   7.711
18338WAT     H155256   6.845   1.905   7.796
18338WAT     H255257   6.970   1.840   7.713
18339WAT      O55258   2.275   0.832   6.219
18339WAT     H155259   2.178   0.818   6.240
18339WAT     H255260   2.330   0.768   6.273
18340WAT      O55261   6.996   5.513   4.819
18340WAT     H155262   6.967   5.570   4.743
18340WAT     H255263   6.921   5.505   4.885
18341WAT      O55264   2.233   8.405   7.179
18341WAT     H155265   2.290   8.386   7.099
18341WAT     H255266   2.158   8.466   7.152
18342WAT      O55267   0.227   4.573   1.208
18342WAT     H155268   0.270   4.560   1.119
18342WAT     H255269   0.221   4.670   1.228
18343WAT      O55270   0.352   7.604   0.339
18343WAT     H155271   0.271   7.659   0.323
18343WAT     H255272   0.328   7.507   0.339
18344WAT      O55273   0.950   2.856   4.553
18344WAT     H155274   0.960   2.804   4.468
18344WAT     H255275   0.976   2.798   4.631
18345WAT      O55276   8.926   2.055   9.235
18345WAT     H155277   8.918   2.130   9.302
18345WAT     H255278   8.896   1.970   9.278
18346WAT      O55279   0.922   2.916   5.039
18346WAT     H155280   0.871   2.906   5.125
18346WAT     H255281   0.858   2.925   4.963
18347WAT      O55282   5.755   5.864   4.075
18347WAT     H155283   5.823   5.937   4.065
18347WAT     H255284   5.676   5.886   4.018
18348WAT      O55285   2.487   4.584   4.464
18348WAT     H155286   2.494   4.509   4.530
18348WAT     H255287   2.529   4.666   4.502
18349WAT      O55288   2.732   0.393   5.035
18349WAT     H155289   2.813   0.449   5.018
18349WAT     H255290   2.761   0.299   5.056
18350WAT      O55291   5.986   7.148   3.498
18350WAT     H155292   5.932   7.125   3.417
18350WAT     H255293   6.082   7.158   3.473
18351WAT      O55294   5.858   3.417   8.292
18351WAT     H155295   5.937   3.375   8.336
18351WAT     H255296   5.774   3.385   8.335
18352WAT      O55297   2.837   9.090   6.732
18352WAT     H155298   2.914   9.053   6.679
18352WAT     H255299   2.844   9.057   6.827
18353WAT      O55300   1.366   2.951   5.161
18353WAT     H155301   1.312   2.891   5.220
18353WAT     H255302   1.410   2.896   5.090
18354WAT      O55303   1.546   6.767   5.971
18354WAT     H155304   1.469   6.719   5.928
18354WAT     H255305   1.618   6.783   5.904
18355WAT      O55306   2.671   1.765   1.703
18355WAT     H155307   2.642   1.729   1.792
18355WAT     H255308   2.759   1.724   1.678
18356WAT      O55309   6.039   5.673   8.100
18356WAT     H155310   6.109   5.659   8.029
18356WAT     H255311   6.026   5.587   8.150
18357WAT      O55312   9.391   4.616   4.666
18357WAT     H155313   9.440   4.652   4.587
18357WAT     H255314   9.298   4.592   4.640
18358WAT      O55315   2.692   2.287   1.388
18358WAT     H155316   2.705   2.215   1.456
18358WAT     H255317   2.771   2.290   1.327
18359WAT      O55318   9.071   0.484   7.471
18359WAT     H155319   8.998   0.533   7.424
18359WAT     H255320   9.031   0.414   7.531
18360WAT      O55321   3.938   0.091   1.762
18360WAT     H155322   4.013   0.151   1.791
18360WAT     H255323   3.900   0.124   1.676
18361WAT      O55324   7.638   2.642   8.255
18361WAT     H155325   7.677   2.550   8.265
18361WAT     H255326   7.703   2.710   8.288
18362WAT      O55327   9.522   1.685   7.043
18362WAT     H155328   9.538   1.609   6.980
18362WAT     H255329   9.441   1.736   7.013
18363WAT      O55330   1.326   2.730   7.017
18363WAT     H155331   1.242   2.701   7.064
18363WAT     H255332   1.314   2.720   6.918
18364WAT      O55333   6.781   5.951   6.488
18364WAT     H155334   6.683   5.947   6.466
18364WAT     H255335   6.833   5.975   6.406
18365WAT      O55336   9.755   5.871   9.383
18365WAT     H155337   9.719   5.881   9.476
18365WAT     H255338   9.778   5.962   9.347
18366WAT      O55339   2.505   6.225   4.228
18366WAT     H155340   2.450   6.158   4.279
18366WAT     H255341   2.594   6.235   4.272
18367WAT      O55342   2.508   0.629   0.990
18367WAT     H155343   2.597   0.600   1.026
18367WAT     H255344   2.521   0.706   0.928
18368WAT      O55345   1.908   5.724   8.729
18368WAT     H155346   1.847   5.787   8.777
18368WAT     H255347   1.960   5.671   8.795
18369WAT      O55348   3.374   4.034   3.754
18369WAT     H155349   3.310   3.979   3.700
18369WAT     H255350   3.360   4.016   3.852
18370WAT      O55351   4.774   4.692   0.617
18370WAT     H155352   4.748   4.619   0.554
18370WAT     H255353   4.786   4.655   0.709
18371WAT      O55354   9.014   2.800   7.221
18371WAT     H155355   8.973   2.864   7.286
18371WAT     H255356   8.951   2.725   7.204
18372WAT      O55357   4.988   2.243   3.451
18372WAT     H155358   4.950   2.259   3.542
18372WAT     H255359   4.941   2.165   3.409
18373WAT      O55360   4.572   8.028   2.606
18373WAT     H155361   4.633   8.040   2.527
18373WAT     H255362   4.618   7.971   2.674
18374WAT      O55363   1.894   0.036   7.568
18374WAT     H155364   1.841  -0.011   7.497
18374WAT     H255365   1.872   0.134   7.567
18375WAT      O55366   5.827   5.489   7.831
18375WAT     H155367   5.851   5.392   7.827
18375WAT     H255368   5.911   5.544   7.829
18376WAT      O55369   2.575   8.936   4.578
18376WAT     H155370   2.638   8.885   4.519
18376WAT     H255371   2.544   8.877   4.652
18377WAT      O55372   1.853   6.358   2.356
18377WAT     H155373   1.887   6.301   2.431
18377WAT     H255374   1.844   6.452   2.388
18378WAT      O55375   1.092   0.839   6.403
18378WAT     H155376   1.162   0.787   6.452
18378WAT     H255377   1.134   0.918   6.359
18379WAT      O55378   2.588   2.047   3.577
18379WAT     H155379   2.509   2.076   3.524
18379WAT     H255380   2.672   2.069   3.526
18380WAT      O55381   8.108   5.228   3.462
18380WAT     H155382   8.189   5.193   3.511
18380WAT     H255383   8.060   5.152   3.420
18381WAT      O55384   5.669   6.916   3.082
18381WAT     H155385   5.641   7.008   3.057
18381WAT     H255386   5.603   6.849   3.047
18382WAT      O55387   7.080   1.365   1.245
18382WAT     H155388   7.020   1.307   1.190
18382WAT     H255389   7.171   1.322   1.251
18383WAT      O55390   6.604   4.439   2.840
18383WAT     H155391   6.636   4.347   2.818
18383WAT     H255392   6.663   4.480   2.909
18384WAT      O55393   1.665   1.782   2.686
18384WAT     H155394   1.584   1.827   2.722
18384WAT     H255395   1.694   1.709   2.748
18385WAT      O55396   1.507   4.428   9.287
18385WAT     H155397   1.444   4.395   9.216
18385WAT     H255398   1.586   4.473   9.244
18386WAT      O55399   9.236   8.680   2.790
18386WAT     H155400   9.156   8.739   2.801
18386WAT     H255401   9.249   8.658   2.693
18387WAT      O55402   7.522   0.714   3.753
18387WAT     H155403   7.610   0.682   3.788
18387WAT     H255404   7.453   0.642   3.763
18388WAT      O55405   9.664   3.658   6.122
18388WAT     H155406   9.679   3.698   6.212
18388WAT     H255407   9.689   3.725   6.052
18389WAT      O55408   0.541   0.531   7.975
18389WAT     H155409   0.506   0.481   7.896
18389WAT     H255410   0.588   0.614   7.943
18390WAT      O55411   1.142   5.342   6.358
18390WAT     H155412   1.203   5.308   6.286
18390WAT     H255413   1.084   5.267   6.391
18391WAT      O55414   3.363   7.752   2.470
18391WAT     H155415   3.394   7.726   2.378
18391WAT     H255416   3.327   7.672   2.517
18392WAT      O55417   6.151   9.423   4.512
18392WAT     H155418   6.239   9.387   4.483
18392WAT     H255419   6.082   9.407   4.441
18393WAT      O55420   3.158   4.170   2.443
18393WAT     H155421   3.106   4.178   2.529
18393WAT     H255422   3.117   4.099   2.386
18394WAT      O55423   3.000   0.083   0.020
18394WAT     H155424   3.059   0.004   0.008
18394WAT     H255425   3.049   0.155   0.070
18395WAT      O55426   9.590   4.473   6.208
18395WAT     H155427   9.523   4.541   6.236
18395WAT     H255428   9.682   4.509   6.221
18396WAT      O55429   7.858   9.652   9.009
18396WAT     H155430   7.779   9.673   9.067
18396WAT     H255431   7.920   9.592   9.058
18397WAT      O55432   3.307   4.045   3.205
18397WAT     H155433   3.404   4.023   3.201
18397WAT     H255434   3.295   4.144   3.208
18398WAT      O55435   5.655   4.246   3.694
18398WAT     H155436   5.711   4.167   3.720
18398WAT     H255437   5.694   4.328   3.734
18399WAT      O55438   7.053   5.576   5.646
18399WAT     H155439   7.125   5.554   5.580
18399WAT     H255440   6.963   5.562   5.604
18400WAT      O55441   8.908   1.774   0.278
18400WAT     H155442   8.900   1.744   0.374
18400WAT     H255443   8.976   1.717   0.232
18401WAT      O55444   9.596   1.375   3.313
18401WAT     H155445   9.502   1.410   3.324
18401WAT     H255446   9.628   1.340   3.401
18402WAT      O55447   2.389   3.399   7.790
18402WAT     H155448   2.332   3.416   7.871
18402WAT     H255449   2.415   3.487   7.749
18403WAT      O55450   3.374   0.199   2.533
18403WAT     H155451   3.442   0.261   2.494
18403WAT     H255452   3.390   0.190   2.631
18404WAT      O55453   6.119   5.979   8.024
18404WAT     H155454   6.116   6.030   8.109
18404WAT     H255455   6.103   5.882   8.042
18405WAT      O55456   4.606   7.716   7.414
18405WAT     H155457   4.680   7.760   7.363
18405WAT     H255458   4.632   7.621   7.433
18406WAT      O55459   2.550   1.831   4.501
18406WAT     H155460   2.451   1.821   4.512
18406WAT     H255461   2.570   1.917   4.454
18407WAT      O55462   2.793   7.339   3.182
18407WAT     H155463   2.819   7.425   3.226
18407WAT     H255464   2.756   7.359   3.091
18408WAT      O55465   3.474   5.051   6.118
18408WAT     H155466   3.459   5.011   6.027
18408WAT     H255467   3.399   5.025   6.178
18409WAT      O55468   3.579   4.099   2.008
18409WAT     H155469   3.584   4.117   1.910
18409WAT     H255470   3.491   4.130   2.043
18410WAT      O55471   3.313   5.495   2.068
18410WAT     H155472   3.276   5.570   2.013
18410WAT     H255473   3.358   5.429   2.007
18411WAT      O55474   3.900   9.254   4.751
18411WAT     H155475   3.873   9.261   4.655
18411WAT     H255476   3.862   9.170   4.790
18412WAT      O55477   4.921   4.258   9.044
18412WAT     H155478   4.972   4.331   9.089
18412WAT     H255479   4.884   4.292   8.958
18413WAT      O55480   9.875   6.926   8.301
18413WAT     H155481   9.907   6.986   8.227
18413WAT     H255482   9.883   6.831   8.272
18414WAT      O55483   4.780   8.422   6.696
18414WAT     H155484   4.699   8.472   6.726
18414WAT     H255485   4.848   8.421   6.770
18415WAT      O55486   9.596   0.334   1.073
18415WAT     H155487   9.591   0.235   1.059
18415WAT     H255488   9.634   0.354   1.163
18416WAT      O55489   3.147   8.919   9.190
18416WAT     H155490   3.110   9.008   9.164
18416WAT     H255491   3.081   8.870   9.246
18417WAT      O55492   9.530   7.279   9.385
18417WAT     H155493   9.451   7.237   9.430
18417WAT     H255494   9.590   7.321   9.453
18418WAT      O55495   2.022   0.361   6.414
18418WAT     H155496   2.086   0.353   6.337
18418WAT     H255497   1.985   0.271   6.437
18419WAT      O55498   5.013   6.722   6.498
18419WAT     H155499   4.985   6.750   6.406
18419WAT     H255500   5.093   6.663   6.491
18420WAT      O55501   5.524   1.458   7.748
18420WAT     H155502   5.470   1.388   7.701
18420WAT     H255503   5.503   1.548   7.709
18421WAT      O55504   5.826   2.171   0.200
18421WAT     H155505   5.874   2.205   0.119
18421WAT     H255506   5.799   2.249   0.257
18422WAT      O55507   3.892   7.396   2.724
18422WAT     H155508   3.805   7.423   2.683
18422WAT     H255509   3.903   7.297   2.717
18423WAT      O55510   8.782   2.650   0.652
18423WAT     H155511   8.775   2.731   0.593
18423WAT     H255512   8.696   2.599   0.650
18424WAT      O55513   4.420   3.108   9.817
18424WAT     H155514   4.355   3.050   9.866
18424WAT     H255515   4.504   3.118   9.870
18425WAT      O55516   6.388   0.145   9.823
18425WAT     H155517   6.358   0.051   9.832
18425WAT     H255518   6.312   0.202   9.794
18426WAT      O55519   1.167   6.831   7.256
18426WAT     H155520   1.222   6.914   7.250
18426WAT     H255521   1.167   6.784   7.168
18427WAT      O55522   7.291   2.060   6.461
18427WAT     H155523   7.372   2.026   6.414
18427WAT     H255524   7.263   2.146   6.419
18428WAT      O55525   3.518   7.980   7.198
18428WAT     H155526   3.460   8.059   7.179
18428WAT     H255527   3.570   7.957   7.116
18429WAT      O55528   3.816   8.738   4.063
18429WAT     H155529   3.743   8.679   4.029
18429WAT     H255530   3.901   8.685   4.070
18430WAT      O55531   2.581   3.027   7.293
18430WAT     H155532   2.603   3.018   7.390
18430WAT     H255533   2.627   3.108   7.256
18431WAT      O55534   5.268   2.580   2.700
18431WAT     H155535   5.256   2.564   2.602
18431WAT     H255536   5.365   2.593   2.720
18432WAT      O55537   0.399   0.838   3.345
18432WAT     H155538   0.332   0.892   3.295
18432WAT     H255539   0.491   0.870   3.324
18433WAT      O55540   1.975   2.320   0.411
18433WAT     H155541   2.018   2.242   0.457
18433WAT     H255542   2.015   2.330   0.319
18434WAT      O55543   7.531   5.192   9.850
18434WAT     H155544   7.590   5.230   9.778
18434WAT     H255545   7.442   5.170   9.811
18435WAT      O55546   2.200   9.787   8.775
18435WAT     H155547   2.162   9.867   8.823
18435WAT     H255548   2.253   9.818   8.696
18436WAT      O55549   9.441   9.012   6.272
18436WAT     H155550   9.498   8.979   6.197
18436WAT     H255551   9.346   8.984   6.256
18437WAT      O55552   7.496   8.954   4.091
18437WAT     H155553   7.481   8.977   3.995
18437WAT     H255554   7.422   8.993   4.146
18438WAT      O55555   5.860   7.632   0.776
18438WAT     H155556   5.944   7.624   0.722
18438WAT     H255557   5.829   7.540   0.802
18439WAT      O55558   3.218   5.189   9.317
18439WAT     H155559   3.251   5.282   9.301
18439WAT     H255560   3.179   5.152   9.233
18440WAT      O55561   8.688   6.080   2.647
18440WAT     H155562   8.770   6.093   2.592
18440WAT     H255563   8.709   6.097   2.743
18441WAT      O55564   6.437   4.533   7.751
18441WAT     H155565   6.369   4.491   7.691
18441WAT     H255566   6.406   4.527   7.845
18442WAT      O55567   8.345   1.186   2.494
18442WAT     H155568   8.388   1.225   2.576
18442WAT     H255569   8.337   1.256   2.424
18443WAT      O55570   7.053   0.513   5.471
18443WAT     H155571   7.040   0.613   5.474
18443WAT     H255572   6.966   0.470   5.447
18444WAT      O55573   3.173   4.898   5.383
18444WAT     H155574   3.108   4.846   5.438
18444WAT     H255575   3.124   4.962   5.324
18445WAT      O55576   6.952   3.237   3.689
18445WAT     H155577   6.895   3.238   3.606
18445WAT     H255578   6.899   3.274   3.765
18446WAT      O55579   3.037   2.734   1.587
18446WAT     H155580   2.978   2.775   1.656
18446WAT     H255581   3.054   2.638   1.609
18447WAT      O55582   4.205   8.523   1.312
18447WAT     H155583   4.264   8.535   1.392
18447WAT     H255584   4.247   8.567   1.232
18448WAT      O55585   7.143   6.363   1.641
18448WAT     H155586   7.081   6.299   1.595
18448WAT     H255587   7.201   6.408   1.572
18449WAT      O55588   4.899   5.159   8.835
18449WAT     H155589   4.834   5.085   8.818
18449WAT     H255590   4.857   5.228   8.894
18450WAT      O55591   2.892   1.689   2.395
18450WAT     H155592   2.947   1.726   2.321
18450WAT     H255593   2.937   1.706   2.483
18451WAT      O55594   1.564   5.926   1.316
18451WAT     H155595   1.501   5.853   1.290
18451WAT     H255596   1.647   5.886   1.355
18452WAT      O55597   0.323   2.461   2.624
18452WAT     H155598   0.343   2.373   2.582
18452WAT     H255599   0.307   2.529   2.552
18453WAT      O55600   7.550   3.146   7.745
18453WAT     H155601   7.614   3.154   7.669
18453WAT     H255602   7.521   3.237   7.774
18454WAT      O55603   5.598   3.443   4.335
18454WAT     H155604   5.568   3.429   4.430
18454WAT     H255605   5.519   3.454   4.276
18455WAT      O55606   5.519   7.831   3.844
18455WAT     H155607   5.571   7.779   3.776
18455WAT     H255608   5.422   7.814   3.832
18456WAT      O55609   2.339   2.178   0.359
18456WAT     H155610   2.329   2.079   0.345
18456WAT     H255611   2.274   2.226   0.300
18457WAT      O55612   8.851   1.414   1.490
18457WAT     H155613   8.893   1.504   1.479
18457WAT     H255614   8.821   1.380   1.401
18458WAT      O55615   1.841   7.308   3.855
18458WAT     H155616   1.875   7.229   3.906
18458WAT     H255617   1.741   7.304   3.850
18459WAT      O55618   8.872   5.420   1.151
18459WAT     H155619   8.896   5.385   1.060
18459WAT     H255620   8.922   5.504   1.168
18460WAT      O55621   8.878   4.852   3.498
18460WAT     H155622   8.821   4.844   3.580
18460WAT     H255623   8.847   4.930   3.444
18461WAT      O55624   7.012   2.268   2.382
18461WAT     H155625   7.084   2.201   2.397
18461WAT     H255626   6.923   2.222   2.376
18462WAT      O55627   2.848   0.341   5.455
18462WAT     H155628   2.930   0.376   5.410
18462WAT     H255629   2.790   0.295   5.387
18463WAT      O55630   2.397   7.601   5.920
18463WAT     H155631   2.339   7.651   5.983
18463WAT     H255632   2.345   7.579   5.837
18464WAT      O55633   7.594   2.378   0.969
18464WAT     H155634   7.528   2.310   0.998
18464WAT     H255635   7.616   2.439   1.046
18465WAT      O55636   8.911   2.222   3.793
18465WAT     H155637   8.834   2.163   3.816
18465WAT     H255638   8.931   2.215   3.695
18466WAT      O55639   2.210   3.297   6.267
18466WAT     H155640   2.126   3.274   6.317
18466WAT     H255641   2.189   3.309   6.170
18467WAT      O55642   4.312   1.879   7.696
18467WAT     H155643   4.315   1.953   7.629
18467WAT     H255644   4.311   1.917   7.788
18468WAT      O55645   7.205   7.632   9.857
18468WAT     H155646   7.299   7.652   9.882
18468WAT     H255647   7.153   7.604   9.938
18469WAT      O55648   0.683   3.118   1.528
18469WAT     H155649   0.636   3.117   1.615
18469WAT     H255650   0.775   3.080   1.539
18470WAT      O55651   2.805   7.130   4.741
18470WAT     H155652   2.873   7.199   4.766
18470WAT     H255653   2.804   7.118   4.642
18471WAT      O55654   9.689   5.263   5.050
18471WAT     H155655   9.688   5.164   5.060
18471WAT     H255656   9.736   5.304   5.129
18472WAT      O55657   3.871   3.767   6.723
18472WAT     H155658   3.872   3.828   6.802
18472WAT     H255659   3.954   3.712   6.723
18473WAT      O55660   2.141   8.381   8.138
18473WAT     H155661   2.085   8.462   8.119
18473WAT     H255662   2.178   8.346   8.052
18474WAT      O55663   5.392   3.173   0.925
18474WAT     H155664   5.354   3.108   0.859
18474WAT     H255665   5.410   3.127   1.012
18475WAT      O55666   5.379   8.974   0.158
18475WAT     H155667   5.370   9.035   0.236
18475WAT     H255668   5.302   8.988   0.096
18476WAT      O55669   2.949   0.863   3.961
18476WAT     H155670   2.928   0.889   3.867
18476WAT     H255671   2.866   0.870   4.017
18477WAT      O55672   2.244   3.689   5.363
18477WAT     H155673   2.147   3.713   5.356
18477WAT     H255674   2.297   3.745   5.300
18478WAT      O55675   0.322   4.324   7.323
18478WAT     H155676   0.328   4.247   7.387
18478WAT     H255677   0.226   4.340   7.299
18479WAT      O55678   4.975   2.246   2.569
18479WAT     H155679   5.075   2.243   2.564
18479WAT     H255680   4.947   2.329   2.617
18480WAT      O55681   9.066   6.608   3.749
18480WAT     H155682   9.108   6.556   3.675
18480WAT     H255683   9.037   6.546   3.821
18481WAT      O55684   4.793   5.321   7.198
18481WAT     H155685   4.747   5.233   7.186
18481WAT     H255686   4.874   5.324   7.139
18482WAT      O55687   4.866   4.018   9.442
18482WAT     H155688   4.875   4.115   9.466
18482WAT     H255689   4.951   3.970   9.462
18483WAT      O55690   3.995   1.196   1.724
18483WAT     H155691   4.090   1.228   1.729
18483WAT     H255692   3.971   1.148   1.808
18484WAT      O55693   0.058   0.013   0.891
18484WAT     H155694  -0.022   0.018   0.831
18484WAT     H255695   0.084   0.105   0.920
18485WAT      O55696   8.094   3.494   2.366
18485WAT     H155697   8.117   3.491   2.268
18485WAT     H255698   7.999   3.468   2.379
18486WAT      O55699   2.604   3.408   9.218
18486WAT     H155700   2.682   3.382   9.274
18486WAT     H255701   2.571   3.498   9.246
18487WAT      O55702   5.429   3.068   3.695
18487WAT     H155703   5.472   3.034   3.612
18487WAT     H255704   5.429   3.168   3.695
18488WAT      O55705   3.303   9.009   5.417
18488WAT     H155706   3.240   8.936   5.443
18488WAT     H255707   3.251   9.090   5.389
18489WAT      O55708   4.648   3.854   1.819
18489WAT     H155709   4.597   3.890   1.897
18489WAT     H255710   4.683   3.763   1.841
18490WAT      O55711   9.680   8.562   2.588
18490WAT     H155712   9.706   8.658   2.583
18490WAT     H255713   9.660   8.537   2.683
18491WAT      O55714   0.762   8.153   2.375
18491WAT     H155715   0.858   8.157   2.348
18491WAT     H255716   0.706   8.193   2.302
18492WAT      O55717   0.477   6.335   7.490
18492WAT     H155718   0.492   6.295   7.400
18492WAT     H255719   0.553   6.312   7.550
18493WAT      O55720   0.243   0.214   7.380
18493WAT     H155721   0.207   0.301   7.346
18493WAT     H255722   0.218   0.141   7.317
18494WAT      O55723   3.489   6.229   1.164
18494WAT     H155724   3.547   6.303   1.198
18494WAT     H255725   3.534   6.141   1.180
18495WAT      O55726   0.905   1.391   6.171
18495WAT     H155727   0.872   1.336   6.094
18495WAT     H255728   0.996   1.426   6.151
18496WAT      O55729   4.072   3.989   4.112
18496WAT     H155730   4.021   3.928   4.051
18496WAT     H255731   4.023   3.998   4.199
18497WAT      O55732   0.730   1.600   5.927
18497WAT     H155733   0.811   1.650   5.897
18497WAT     H255734   0.757   1.517   5.976
18498WAT      O55735   0.069   7.379   4.375
18498WAT     H155736   0.092   7.306   4.311
18498WAT     H255737  -0.022   7.415   4.353
18499WAT      O55738   3.414   2.233   5.162
18499WAT     H155739   3.443   2.324   5.133
18499WAT     H255740   3.322   2.214   5.128
18500WAT      O55741   7.648   1.800   4.914
18500WAT     H155742   7.591   1.882   4.913
18500WAT     H255743   7.739   1.823   4.882
18501WAT      O55744   5.155   4.160   1.961
18501WAT     H155745   5.149   4.103   2.043
18501WAT     H255746   5.239   4.215   1.965
18502WAT      O55747   6.107   5.651   0.771
18502WAT     H155748   6.015   5.617   0.750
18502WAT     H255749   6.170   5.624   0.698
18503WAT      O55750   0.799   8.628   1.964
18503WAT     H155751   0.816   8.583   2.052
18503WAT     H255752   0.715   8.591   1.924
18504WAT      O55753   3.095   1.063   7.072
18504WAT     H155754   3.013   1.121   7.070
18504WAT     H255755   3.068   0.967   7.068
18505WAT      O55756   8.578   1.457   6.052
18505WAT     H155757   8.608   1.428   6.143
18505WAT     H255758   8.657   1.481   5.996
18506WAT      O55759   9.206   7.770   5.226
18506WAT     H155760   9.238   7.804   5.315
18506WAT     H255761   9.280   7.778   5.160
18507WAT      O55762   7.815   4.201   1.645
18507WAT     H155763   7.874   4.167   1.718
18507WAT     H255764   7.749   4.266   1.684
18508WAT      O55765   2.666   8.754   3.542
18508WAT     H155766   2.671   8.816   3.464
18508WAT     H255767   2.662   8.807   3.627
18509WAT      O55768   1.617   0.461   5.719
18509WAT     H155769   1.592   0.428   5.628
18509WAT     H255770   1.536   0.499   5.764
18510WAT      O55771   3.727   8.745   9.555
18510WAT     H155772   3.781   8.716   9.476
18510WAT     H255773   3.716   8.668   9.618
18511WAT      O55774   4.375   8.770   4.227
18511WAT     H155775   4.475   8.777   4.225
18511WAT     H255776   4.337   8.808   4.144
18512WAT      O55777   9.870   2.804   3.806
18512WAT     H155778   9.915   2.850   3.883
18512WAT     H255779   9.829   2.873   3.746
18513WAT      O55780   7.766   2.307   9.306
18513WAT     H155781   7.708   2.249   9.250
18513WAT     H255782   7.789   2.391   9.256
18514WAT      O55783   5.308   7.697   5.809
18514WAT     H155784   5.349   7.619   5.763
18514WAT     H255785   5.210   7.700   5.788
18515WAT      O55786   3.856   3.379   6.923
18515WAT     H155787   3.951   3.406   6.939
18515WAT     H255788   3.796   3.432   6.983
18516WAT      O55789   4.746   5.275   3.642
18516WAT     H155790   4.679   5.349   3.639
18516WAT     H255791   4.838   5.313   3.652
18517WAT      O55792   9.796   1.460   9.594
18517WAT     H155793   9.865   1.485   9.526
18517WAT     H255794   9.733   1.394   9.555
18518WAT      O55795   4.356   0.864   0.826
18518WAT     H155796   4.385   0.954   0.791
18518WAT     H255797   4.437   0.813   0.856
18519WAT      O55798   4.932   2.336   5.327
18519WAT     H155799   5.001   2.279   5.283
18519WAT     H255800   4.962   2.358   5.420
18520WAT      O55801   5.697   5.133   5.814
18520WAT     H155802   5.651   5.167   5.895
18520WAT     H255803   5.727   5.211   5.758
18521WAT      O55804   8.426   7.527   0.847
18521WAT     H155805   8.472   7.541   0.759
18521WAT     H255806   8.340   7.578   0.849
18522WAT      O55807   4.041   7.903   8.005
18522WAT     H155808   3.959   7.903   7.947
18522WAT     H255809   4.088   7.815   7.995
18523WAT      O55810   8.385   7.194   3.322
18523WAT     H155811   8.352   7.163   3.411
18523WAT     H255812   8.363   7.127   3.252
18524WAT      O55813   7.505   8.455   0.390
18524WAT     H155814   7.570   8.492   0.325
18524WAT     H255815   7.490   8.522   0.463
18525WAT      O55816   5.577   0.280   8.898
18525WAT     H155817   5.520   0.306   8.820
18525WAT     H255818   5.669   0.256   8.865
18526WAT      O55819   8.374   5.587   7.884
18526WAT     H155820   8.358   5.520   7.812
18526WAT     H255821   8.366   5.543   7.973
18527WAT      O55822   5.767   2.301   9.424
18527WAT     H155823   5.729   2.210   9.405
18527WAT     H255824   5.781   2.350   9.338
18528WAT      O55825   1.494   6.838   3.383
18528WAT     H155826   1.521   6.806   3.473
18528WAT     H255827   1.564   6.814   3.316
18529WAT      O55828   1.567   1.941   7.601
18529WAT     H155829   1.631   1.945   7.524
18529WAT     H255830   1.619   1.946   7.687
18530WAT      O55831   2.961   7.834   9.355
18530WAT     H155832   2.918   7.920   9.386
18530WAT     H255833   2.891   7.776   9.312
18531WAT      O55834   5.670   0.492   9.077
18531WAT     H155835   5.656   0.421   9.008
18531WAT     H255836   5.599   0.562   9.067
18532WAT      O55837   7.320   8.763   9.060
18532WAT     H155838   7.321   8.722   8.968
18532WAT     H255839   7.397   8.727   9.112
18533WAT      O55840   8.778   2.898   5.507
18533WAT     H155841   8.684   2.928   5.487
18533WAT     H255842   8.800   2.921   5.602
18534WAT      O55843   5.596   4.800   0.107
18534WAT     H155844   5.606   4.886   0.157
18534WAT     H255845   5.593   4.818   0.009
18535WAT      O55846   5.484   7.220   4.665
18535WAT     H155847   5.488   7.212   4.565
18535WAT     H255848   5.576   7.210   4.703
18536WAT      O55849   2.015   0.248   4.989
18536WAT     H155850   1.987   0.339   4.958
18536WAT     H255851   1.934   0.192   5.004
18537WAT      O55852   3.859   5.893   5.324
18537WAT     H155853   3.850   5.906   5.225
18537WAT     H255854   3.935   5.830   5.342
18538WAT      O55855   1.937   1.139   5.563
18538WAT     H155856   1.936   1.192   5.648
18538WAT     H255857   1.989   1.055   5.576
18539WAT      O55858   6.637   3.749   8.801
18539WAT     H155859   6.586   3.835   8.814
18539WAT     H255860   6.699   3.735   8.878
18540WAT      O55861   1.685   6.255   7.756
18540WAT     H155862   1.585   6.254   7.756
18540WAT     H255863   1.719   6.164   7.781
18541WAT      O55864   3.989   1.917   9.136
18541WAT     H155865   4.018   1.963   9.052
18541WAT     H255866   3.897   1.948   9.161
18542WAT      O55867   7.139   4.651   2.915
18542WAT     H155868   7.056   4.707   2.912
18542WAT     H255869   7.165   4.625   2.823
18543WAT      O55870   6.383   0.404   8.229
18543WAT     H155871   6.441   0.322   8.224
18543WAT     H255872   6.408   0.458   8.309
18544WAT      O55873   1.994   1.336   0.605
18544WAT     H155874   1.951   1.267   0.546
18544WAT     H255875   2.093   1.329   0.598
18545WAT      O55876   0.518   9.588   1.023
18545WAT     H155877   0.580   9.562   0.949
18545WAT     H255878   0.426   9.602   0.986
18546WAT      O55879   1.077   8.396   8.073
18546WAT     H155880   1.061   8.416   8.170
18546WAT     H255881   1.062   8.299   8.056
18547WAT      O55882   7.198   8.730   6.330
18547WAT     H155883   7.243   8.807   6.377
18547WAT     H255884   7.268   8.662   6.304
18548WAT      O55885   1.388   6.554   1.937
18548WAT     H155886   1.362   6.642   1.975
18548WAT     H255887   1.306   6.506   1.905
18549WAT      O55888   1.449   2.249   9.592
18549WAT     H155889   1.471   2.347   9.585
18549WAT     H255890   1.515   2.204   9.651
18550WAT      O55891   9.823   6.703   0.709
18550WAT     H155892   9.778   6.614   0.710
18550WAT     H255893   9.921   6.691   0.695
18551WAT      O55894   4.048   3.311   3.491
18551WAT     H155895   4.041   3.287   3.588
18551WAT     H255896   4.051   3.411   3.482
18552WAT      O55897   2.845   0.060   8.109
18552WAT     H155898   2.920   0.080   8.046
18552WAT     H255899   2.820  -0.036   8.101
18553WAT      O55900   9.457   1.467   5.102
18553WAT     H155901   9.425   1.393   5.043
18553WAT     H255902   9.542   1.505   5.065
18554WAT      O55903   0.287   3.074   1.284
18554WAT     H155904   0.371   3.115   1.318
18554WAT     H255905   0.254   3.124   1.204
18555WAT      O55906   7.259   9.021   9.073
18555WAT     H155907   7.298   8.931   9.053
18555WAT     H255908   7.168   9.028   9.034
18556WAT      O55909   0.049   7.157   3.892
18556WAT     H155910  -0.006   7.074   3.880
18556WAT     H255911   0.053   7.180   3.989
18557WAT      O55912   5.537   6.273   9.232
18557WAT     H155913   5.541   6.173   9.235
18557WAT     H255914   5.477   6.302   9.158
18558WAT      O55915   6.949   4.422   7.767
18558WAT     H155916   7.043   4.440   7.795
18558WAT     H255917   6.899   4.382   7.844
18559WAT      O55918   5.545   6.999   3.703
18559WAT     H155919   5.515   6.970   3.612
18559WAT     H255920   5.629   6.950   3.726
18560WAT      O55921   8.904   4.217   2.798
18560WAT     H155922   8.835   4.229   2.727
18560WAT     H255923   8.954   4.132   2.782
18561WAT      O55924   9.800   7.988   4.874
18561WAT     H155925   9.769   8.020   4.963
18561WAT     H255926   9.894   7.954   4.881
18562WAT      O55927   7.781   5.749   7.706
18562WAT     H155928   7.697   5.755   7.652
18562WAT     H255929   7.827   5.838   7.706
18563WAT      O55930   3.752   2.585   4.236
18563WAT     H155931   3.842   2.624   4.217
18563WAT     H255932   3.688   2.658   4.260
18564WAT      O55933   5.032   0.679   3.045
18564WAT     H155934   5.046   0.767   3.091
18564WAT     H255935   5.026   0.606   3.113
18565WAT      O55936   0.403   6.940   4.825
18565WAT     H155937   0.479   6.901   4.877
18565WAT     H255938   0.384   7.033   4.859
18566WAT      O55939   4.756   7.358   5.610
18566WAT     H155940   4.829   7.371   5.543
18566WAT     H255941   4.667   7.358   5.564
18567WAT      O55942   4.385   0.640   4.106
18567WAT     H155943   4.344   0.635   4.015
18567WAT     H255944   4.352   0.721   4.154
18568WAT      O55945   7.169   4.638   8.812
18568WAT     H155946   7.144   4.715   8.753
18568WAT     H255947   7.244   4.588   8.770
18569WAT      O55948   9.520   6.985   2.428
18569WAT     H155949   9.579   6.920   2.476
18569WAT     H255950   9.552   6.997   2.334
18570WAT      O55951   8.878   5.298   5.377
18570WAT     H155952   8.825   5.249   5.307
18570WAT     H255953   8.926   5.233   5.435
18571WAT      O55954   0.003   6.080   0.221
18571WAT     H155955   0.079   6.141   0.245
18571WAT     H255956  -0.064   6.079   0.295
18572WAT      O55957   9.229   7.993   9.459
18572WAT     H155958   9.193   7.949   9.376
18572WAT     H255959   9.280   7.926   9.513
18573WAT      O55960   4.341   5.895   8.703
18573WAT     H155961   4.263   5.941   8.660
18573WAT     H255962   4.318   5.872   8.798
18574WAT      O55963   4.531   7.360   2.070
18574WAT     H155964   4.454   7.421   2.086
18574WAT     H255965   4.508   7.268   2.101
18575WAT      O55966   4.529   6.087   0.279
18575WAT     H155967   4.459   6.118   0.215
18575WAT     H255968   4.560   5.996   0.253
18576WAT      O55969   4.175   3.235   8.797
18576WAT     H155970   4.148   3.281   8.881
18576WAT     H255971   4.215   3.301   8.734
18577WAT      O55972   1.525   9.529   3.439
18577WAT     H155973   1.518   9.526   3.538
18577WAT     H255974   1.433   9.521   3.399
18578WAT      O55975   8.312   9.094   2.788
18578WAT     H155976   8.228   9.040   2.787
18578WAT     H255977   8.391   9.033   2.795
18579WAT      O55978   6.405   8.643   6.754
18579WAT     H155979   6.381   8.699   6.834
18579WAT     H255980   6.427   8.702   6.677
18580WAT      O55981   9.785   7.633   5.534
18580WAT     H155982   9.858   7.588   5.483
18580WAT     H255983   9.804   7.626   5.632
18581WAT      O55984   6.060   8.476   2.212
18581WAT     H155985   5.976   8.529   2.204
18581WAT     H255986   6.049   8.389   2.164
18582WAT      O55987   6.267   5.612   0.221
18582WAT     H155988   6.357   5.652   0.238
18582WAT     H255989   6.239   5.632   0.127
18583WAT      O55990   8.935   3.028   3.754
18583WAT     H155991   8.916   2.932   3.771
18583WAT     H255992   8.886   3.084   3.821
18584WAT      O55993   9.018   6.855   3.656
18584WAT     H155994   8.931   6.856   3.608
18584WAT     H255995   9.047   6.760   3.670
18585WAT      O55996   3.643   0.979   3.998
18585WAT     H155997   3.672   1.073   4.016
18585WAT     H255998   3.660   0.923   4.079
18586WAT      O55999   9.746   0.274   8.112
18586WAT     H156000   9.768   0.273   8.014
18586WAT     H256001   9.662   0.327   8.127
18587WAT      O56002   0.359   8.305   9.186
18587WAT     H156003   0.415   8.223   9.179
18587WAT     H256004   0.276   8.284   9.238
18588WAT      O56005   8.670   7.350   4.661
18588WAT     H156006   8.627   7.289   4.727
18588WAT     H256007   8.617   7.435   4.655
18589WAT      O56008   0.225   7.496   6.293
18589WAT     H156009   0.235   7.436   6.214
18589WAT     H256010   0.217   7.441   6.376
18590WAT      O56011   5.519   9.495   2.211
18590WAT     H156012   5.531   9.585   2.170
18590WAT     H256013   5.608   9.456   2.234
18591WAT      O56014   4.543   2.820   1.404
18591WAT     H156015   4.580   2.755   1.337
18591WAT     H256016   4.448   2.796   1.423
18592WAT      O56017   3.156   8.746   7.534
18592WAT     H156018   3.169   8.718   7.629
18592WAT     H256019   3.238   8.723   7.481
18593WAT      O56020   4.356   6.575   6.893
18593WAT     H156021   4.408   6.643   6.944
18593WAT     H256022   4.271   6.615   6.861
18594WAT      O56023   9.480   6.131   2.664
18594WAT     H156024   9.402   6.120   2.602
18594WAT     H256025   9.517   6.041   2.687
18595WAT      O56026   8.566   5.042   5.454
18595WAT     H156027   8.553   5.140   5.468
18595WAT     H256028   8.581   5.023   5.357
18596WAT      O56029   2.423   1.367   9.044
18596WAT     H156030   2.376   1.397   9.127
18596WAT     H256031   2.408   1.434   8.971
18597WAT      O56032   3.614   3.012   8.229
18597WAT     H156033   3.576   2.957   8.303
18597WAT     H256034   3.577   3.105   8.234
18598WAT      O56035   6.301   6.599   8.710
18598WAT     H156036   6.258   6.600   8.620
18598WAT     H256037   6.368   6.674   8.716
18599WAT      O56038   8.200   0.052   0.191
18599WAT     H156039   8.180  -0.035   0.237
18599WAT     H256040   8.297   0.056   0.168
18600WAT      O56041   9.556   0.074   1.009
18600WAT     H156042   9.614   0.026   1.075
18600WAT     H256043   9.530   0.011   0.935
18601WAT      O56044   3.172   4.549   4.434
18601WAT     H156045   3.082   4.528   4.396
18601WAT     H256046   3.197   4.643   4.410
18602WAT      O56047   8.154   7.466   6.290
18602WAT     H156048   8.230   7.505   6.343
18602WAT     H256049   8.068   7.508   6.319
18603WAT      O56050   5.606   1.688   4.686
18603WAT     H156051   5.570   1.657   4.598
18603WAT     H256052   5.624   1.608   4.744
18604WAT      O56053   3.290   0.002   6.801
18604WAT     H156054   3.294   0.101   6.806
18604WAT     H256055   3.236  -0.034   6.878
18605WAT      O56056   8.022   8.707   6.823
18605WAT     H156057   7.965   8.786   6.845
18605WAT     H256058   8.087   8.732   6.752
18606WAT      O56059   5.760   3.437   8.832
18606WAT     H156060   5.699   3.500   8.879
18606WAT     H256061   5.852   3.477   8.826
18607WAT      O56062   1.299   6.245   8.179
18607WAT     H156063   1.371   6.273   8.115
18607WAT     H256064   1.216   6.222   8.128
18608WAT      O56065   7.285   5.153   0.261
18608WAT     H156066   7.231   5.171   0.343
18608WAT     H256067   7.229   5.171   0.180
18609WAT      O56068   4.336   8.319   9.674
18609WAT     H156069   4.399   8.379   9.723
18609WAT     H256070   4.245   8.359   9.673
18610WAT      O56071   2.621   4.796   2.721
18610WAT     H156072   2.655   4.834   2.635
18610WAT     H256073   2.641   4.859   2.796
18611WAT      O56074   7.594   1.056   5.707
18611WAT     H156075   7.539   0.974   5.692
18611WAT     H256076   7.691   1.032   5.706
18612WAT      O56077   7.303   3.847   3.610
18612WAT     H156078   7.403   3.850   3.613
18612WAT     H256079   7.269   3.806   3.695
18613WAT      O56080   6.704   6.350   3.551
18613WAT     H156081   6.693   6.349   3.650
18613WAT     H256082   6.640   6.415   3.510
18614WAT      O56083   6.896   7.805   7.593
18614WAT     H156084   6.859   7.745   7.664
18614WAT     H256085   6.867   7.899   7.610
18615WAT      O56086   4.304   3.780   0.551
18615WAT     H156087   4.256   3.863   0.580
18615WAT     H256088   4.392   3.804   0.510
18616WAT      O56089   1.323   2.926   9.197
18616WAT     H156090   1.289   2.952   9.288
18616WAT     H256091   1.421   2.907   9.203
18617WAT      O56092   3.856   4.193   3.155
18617WAT     H156093   3.873   4.252   3.076
18617WAT     H256094   3.776   4.136   3.138
18618WAT      O56095   1.153   2.046   0.483
18618WAT     H156096   1.233   2.090   0.522
18618WAT     H256097   1.155   1.948   0.504
18619WAT      O56098   7.878   7.177   5.727
18619WAT     H156099   7.921   7.107   5.670
18619WAT     H256100   7.779   7.173   5.717
18620WAT      O56101   7.918   5.102   5.592
18620WAT     H156102   7.963   5.191   5.589
18620WAT     H256103   7.849   5.097   5.519
18621WAT      O56104   2.713   0.251   4.008
18621WAT     H156105   2.748   0.215   4.094
18621WAT     H256106   2.656   0.182   3.963
18622WAT      O56107   0.950   3.808   6.972
18622WAT     H156108   0.924   3.898   7.007
18622WAT     H256109   1.040   3.783   7.009
18623WAT      O56110   3.019   9.403   3.402
18623WAT     H156111   3.119   9.411   3.399
18623WAT     H256112   2.983   9.459   3.476
18624WAT      O56113   9.784   9.784   9.261
18624WAT     H156114   9.718   9.751   9.193
18624WAT     H256115   9.760   9.747   9.350
18625WAT      O56116   9.739   2.459   9.339
18625WAT     H156117   9.775   2.366   9.327
18625WAT     H256118   9.725   2.501   9.249
18626WAT      O56119   9.195   0.448   7.826
18626WAT     H156120   9.163   0.435   7.732
18626WAT     H256121   9.127   0.412   7.890
18627WAT      O56122   5.816   4.939   4.389
18627WAT     H156123   5.909   4.975   4.385
18627WAT     H256124   5.769   4.955   4.302
18628WAT      O56125   8.403   7.794   9.799
18628WAT     H156126   8.339   7.717   9.805
18628WAT     H256127   8.472   7.775   9.729
18629WAT      O56128   7.012   1.815   4.547
18629WAT     H156129   6.968   1.738   4.593
18629WAT     H256130   7.034   1.886   4.614
18630WAT      O56131   8.438   4.023   9.122
18630WAT     H156132   8.465   3.946   9.064
18630WAT     H256133   8.495   4.025   9.204
18631WAT      O56134   4.650   1.950   1.028
18631WAT     H156135   4.662   2.010   1.107
18631WAT     H256136   4.586   1.992   0.964
18632WAT      O56137   7.921   1.866   4.536
18632WAT     H156138   8.011   1.827   4.512
18632WAT     H256139   7.921   1.964   4.517
18633WAT      O56140   7.265   9.766   3.565
18633WAT     H156141   7.311   9.745   3.479
18633WAT     H256142   7.175   9.804   3.545
18634WAT      O56143   7.060   0.210   6.514
18634WAT     H156144   7.122   0.136   6.490
18634WAT     H256145   7.102   0.298   6.490
18635WAT      O56146   1.779   6.381   4.932
18635WAT     H156147   1.688   6.423   4.933
18635WAT     H256148   1.801   6.348   5.024
18636WAT      O56149   6.215   6.307   5.809
18636WAT     H156150   6.201   6.226   5.752
18636WAT     H256151   6.137   6.318   5.871
18637WAT      O56152   5.501   4.968   3.144
18637WAT     H156153   5.520   4.940   3.050
18637WAT     H256154   5.552   4.909   3.208
18638WAT      O56155   7.410   2.721   5.600
18638WAT     H156156   7.507   2.703   5.613
18638WAT     H256157   7.387   2.812   5.634
18639WAT      O56158   2.295   6.704   4.379
18639WAT     H156159   2.314   6.800   4.401
18639WAT     H256160   2.330   6.684   4.288
18640WAT      O56161   6.976   9.039   6.504
18640WAT     H156162   6.993   8.945   6.532
18640WAT     H256163   6.953   9.042   6.407
18641WAT      O56164   4.902   1.583   3.404
18641WAT     H156165   4.963   1.511   3.438
18641WAT     H256166   4.877   1.565   3.309
18642WAT      O56167   2.844   2.055   6.530
18642WAT     H156168   2.794   2.025   6.611
18642WAT     H256169   2.898   2.136   6.553
18643WAT      O56170   9.503   4.730   1.308
18643WAT     H156171   9.528   4.823   1.334
18643WAT     H256172   9.471   4.680   1.389
18644WAT      O56173   8.348   7.377   7.020
18644WAT     H156174   8.417   7.444   6.993
18644WAT     H256175   8.369   7.289   6.978
18645WAT      O56176   9.756   9.211   9.547
18645WAT     H156177   9.688   9.240   9.480
18645WAT     H256178   9.710   9.172   9.626
18646WAT      O56179   4.279   2.269   8.496
18646WAT     H156180   4.276   2.339   8.424
18646WAT     H256181   4.241   2.184   8.460
18647WAT      O56182   4.910   7.392   9.567
18647WAT     H156183   5.009   7.383   9.551
18647WAT     H256184   4.883   7.487   9.554
18648WAT      O56185   2.651   1.506   3.779
18648WAT     H156186   2.634   1.464   3.868
18648WAT     H256187   2.749   1.512   3.763
18649WAT      O56188   5.499   8.143   6.320
18649WAT     H156189   5.517   8.119   6.225
18649WAT     H256190   5.432   8.217   6.324
18650WAT      O56191   5.561   9.528   2.935
18650WAT     H156192   5.528   9.459   3.000
18650WAT     H256193   5.512   9.519   2.849
18651WAT      O56194   0.064   6.988   4.921
18651WAT     H156195   0.073   7.046   5.002
18651WAT     H256196   0.004   6.911   4.942
18652WAT      O56197   3.675   3.121   9.167
18652WAT     H156198   3.737   3.095   9.093
18652WAT     H256199   3.602   3.179   9.130
18653WAT      O56200   7.349   9.731   4.391
18653WAT     H156201   7.385   9.824   4.383
18653WAT     H256202   7.263   9.732   4.441
18654WAT      O56203   6.383   1.992   6.883
18654WAT     H156204   6.336   1.906   6.903
18654WAT     H256205   6.351   2.063   6.946
18655WAT      O56206   2.798   5.052   5.429
18655WAT     H156207   2.879   5.068   5.372
18655WAT     H256208   2.815   4.975   5.491
18656WAT      O56209   5.700   3.753   5.279
18656WAT     H156210   5.669   3.687   5.348
18656WAT     H256211   5.757   3.706   5.211
18657WAT      O56212   4.525   3.479   4.383
18657WAT     H156213   4.556   3.468   4.478
18657WAT     H256214   4.537   3.574   4.356
18658WAT      O56215   9.854   4.434   2.719
18658WAT     H156216   9.800   4.368   2.770
18658WAT     H256217   9.909   4.385   2.650
18659WAT      O56218   5.594   4.589   6.111
18659WAT     H156219   5.530   4.539   6.169
18659WAT     H256220   5.590   4.553   6.018
18660WAT      O56221   2.048   7.683   7.965
18660WAT     H156222   2.083   7.737   8.042
18660WAT     H256223   1.962   7.722   7.933
18661WAT      O56224   5.711   3.757   2.860
18661WAT     H156225   5.626   3.795   2.822
18661WAT     H256226   5.745   3.685   2.799
18662WAT      O56227   8.192   4.800   6.515
18662WAT     H156228   8.237   4.711   6.505
18662WAT     H256229   8.101   4.796   6.476
18663WAT      O56230   0.647   2.591   8.183
18663WAT     H156231   0.677   2.627   8.096
18663WAT     H256232   0.684   2.646   8.258
18664WAT      O56233   4.600   7.880   3.542
18664WAT     H156234   4.680   7.823   3.523
18664WAT     H256235   4.608   7.920   3.633
18665WAT      O56236   9.185   3.125   0.034
18665WAT     H156237   9.222   3.034   0.020
18665WAT     H256238   9.259   3.193   0.027
18666WAT      O56239   8.617   3.952   6.556
18666WAT     H156240   8.625   4.037   6.504
18666WAT     H256241   8.614   3.874   6.494
18667WAT      O56242   1.858   5.226   1.443
18667WAT     H156243   1.771   5.268   1.418
18667WAT     H256244   1.918   5.296   1.482
18668WAT      O56245   6.115   1.581   1.233
18668WAT     H156246   6.157   1.669   1.252
18668WAT     H256247   6.134   1.554   1.138
18669WAT      O56248   5.961   4.698   1.443
18669WAT     H156249   6.016   4.758   1.385
18669WAT     H256250   5.987   4.603   1.426
18670WAT      O56251   5.694   2.849   1.139
18670WAT     H156252   5.755   2.927   1.149
18670WAT     H256253   5.698   2.816   1.045
18671WAT      O56254   3.055   2.025   8.888
18671WAT     H156255   3.128   2.071   8.838
18671WAT     H256256   3.009   2.090   8.948
18672WAT      O56257   1.144   6.522   1.439
18672WAT     H156258   1.053   6.485   1.422
18672WAT     H256259   1.213   6.465   1.394
18673WAT      O56260   7.166   1.820   4.064
18673WAT     H156261   7.158   1.721   4.070
18673WAT     H256262   7.262   1.847   4.077
18674WAT      O56263   1.765   6.741   8.454
18674WAT     H156264   1.793   6.658   8.501
18674WAT     H256265   1.666   6.755   8.466
18675WAT      O56266   0.386   5.970   3.846
18675WAT     H156267   0.382   5.969   3.747
18675WAT     H256268   0.476   5.937   3.877
18676WAT      O56269   5.239   5.235   5.607
18676WAT     H156270   5.331   5.272   5.590
18676WAT     H256271   5.241   5.136   5.594
18677WAT      O56272   0.271   2.841   7.846
18677WAT     H156273   0.181   2.883   7.864
18677WAT     H256274   0.263   2.742   7.853
18678WAT      O56275   9.372   6.455   3.353
18678WAT     H156276   9.364   6.402   3.269
18678WAT     H256277   9.358   6.552   3.333
18679WAT      O56278   5.853   7.656   9.221
18679WAT     H156279   5.950   7.652   9.195
18679WAT     H256280   5.846   7.669   9.320
18680WAT      O56281   8.095   4.866   1.494
18680WAT     H156282   8.013   4.809   1.497
18680WAT     H256283   8.114   4.892   1.400
18681WAT      O56284   3.560   9.410   3.641
18681WAT     H156285   3.486   9.342   3.638
18681WAT     H256286   3.525   9.495   3.681
18682WAT      O56287   4.307   4.542   1.774
18682WAT     H156288   4.298   4.638   1.799
18682WAT     H256289   4.308   4.534   1.674
18683WAT      O56290   6.664   0.676   3.160
18683WAT     H156291   6.637   0.730   3.080
18683WAT     H256292   6.587   0.620   3.189
18684WAT      O56293   0.568   6.151   5.220
18684WAT     H156294   0.528   6.092   5.150
18684WAT     H256295   0.571   6.103   5.308
18685WAT      O56296   7.613   3.977   2.736
18685WAT     H156297   7.679   4.046   2.767
18685WAT     H256298   7.641   3.942   2.647
18686WAT      O56299   1.625   9.589   2.299
18686WAT     H156300   1.528   9.587   2.276
18686WAT     H256301   1.661   9.496   2.299
18687WAT      O56302   9.071   7.356   6.573
18687WAT     H156303   9.063   7.416   6.493
18687WAT     H256304   8.999   7.379   6.639
18688WAT      O56305   0.848   2.142   1.758
18688WAT     H156306   0.810   2.203   1.689
18688WAT     H256307   0.911   2.078   1.713
18689WAT      O56308   0.517   5.138   9.758
18689WAT     H156309   0.509   5.201   9.681
18689WAT     H256310   0.505   5.044   9.726
18690WAT      O56311   6.941   7.492   2.163
18690WAT     H156312   7.013   7.533   2.107
18690WAT     H256313   6.860   7.478   2.107
18691WAT      O56314   6.696   3.182   4.537
18691WAT     H156315   6.733   3.096   4.572
18691WAT     H256316   6.612   3.164   4.486
18692WAT      O56317   1.449   0.868   0.415
18692WAT     H156318   1.438   0.874   0.514
18692WAT     H256319   1.545   0.849   0.393
18693WAT      O56320   2.210   4.403   2.092
18693WAT     H156321   2.167   4.466   2.027
18693WAT     H256322   2.303   4.434   2.111
18694WAT      O56323   0.456   6.893   5.454
18694WAT     H156324   0.551   6.887   5.422
18694WAT     H256325   0.401   6.825   5.405
18695WAT      O56326   8.915   4.448  -0.001
18695WAT     H156327   9.006   4.445  -0.043
18695WAT     H256328   8.925   4.452   0.098
18696WAT      O56329   4.249   1.158   7.013
18696WAT     H156330   4.172   1.214   6.981
18696WAT     H256331   4.293   1.204   7.091
18697WAT      O56332   0.856   1.701   2.187
18697WAT     H156333   0.782   1.749   2.140
18697WAT     H256334   0.834   1.604   2.193
18698WAT      O56335   3.869   8.654   8.723
18698WAT     H156336   3.937   8.588   8.755
18698WAT     H256337   3.804   8.674   8.797
18699WAT      O56338   2.580   0.037   2.342
18699WAT     H156339   2.650  -0.014   2.392
18699WAT     H256340   2.506  -0.025   2.316
18700WAT      O56341   7.671   5.867   3.124
18700WAT     H156342   7.718   5.931   3.185
18700WAT     H256343   7.729   5.848   3.045
18701WAT      O56344   1.492   2.258   8.943
18701WAT     H156345   1.396   2.271   8.965
18701WAT     H256346   1.513   2.300   8.855
18702WAT      O56347   0.542   3.677   4.803
18702WAT     H156348   0.616   3.615   4.775
18702WAT     H256349   0.461   3.623   4.827
18703WAT      O56350   1.386   5.257   1.165
18703WAT     H156351   1.392   5.317   1.085
18703WAT     H256352   1.391   5.161   1.135
18704WAT      O56353   8.850   5.935   0.059
18704WAT     H156354   8.771   5.997   0.064
18704WAT     H256355   8.821   5.848   0.019
18705WAT      O56356   1.112   2.015   4.326
18705WAT     H156357   1.045   1.941   4.320
18705WAT     H256358   1.203   1.978   4.343
18706WAT      O56359   4.564   0.573   2.343
18706WAT     H156360   4.610   0.525   2.418
18706WAT     H256361   4.553   0.670   2.367
18707WAT      O56362   0.058   5.345   4.072
18707WAT     H156363   0.141   5.331   4.126
18707WAT     H256364   0.052   5.275   4.001
18708WAT      O56365   9.557   0.472   1.345
18708WAT     H156366   9.584   0.521   1.262
18708WAT     H256367   9.491   0.526   1.396
18709WAT      O56368   4.877   8.788   5.597
18709WAT     H156369   4.909   8.786   5.692
18709WAT     H256370   4.906   8.705   5.550
18710WAT      O56371   5.715   1.330   2.629
18710WAT     H156372   5.716   1.415   2.682
18710WAT     H256373   5.664   1.345   2.544
18711WAT      O56374   7.909   5.756   7.151
18711WAT     H156375   7.908   5.837   7.210
18711WAT     H256376   7.972   5.772   7.075
18712WAT      O56377   1.964   2.493   2.918
18712WAT     H156378   2.012   2.464   3.001
18712WAT     H256379   2.030   2.509   2.845
18713WAT      O56380   0.561   6.008   5.459
18713WAT     H156381   0.593   6.052   5.543
18713WAT     H256382   0.596   5.914   5.456
18714WAT      O56383   0.710   2.206   0.595
18714WAT     H156384   0.807   2.187   0.611
18714WAT     H256385   0.658   2.188   0.679
18715WAT      O56386   7.038   1.375   7.535
18715WAT     H156387   6.943   1.385   7.504
18715WAT     H256388   7.086   1.312   7.474
18716WAT      O56389   1.859   1.183   7.932
18716WAT     H156390   1.841   1.247   7.858
18716WAT     H256391   1.918   1.226   8.000
18717WAT      O56392   9.464   5.819   3.157
18717WAT     H156393   9.512   5.780   3.079
18717WAT     H256394   9.369   5.788   3.157
18718WAT      O56395   6.593   0.784   8.743
18718WAT     H156396   6.514   0.726   8.722
18718WAT     H256397   6.664   0.771   8.673
18719WAT      O56398   5.787   6.560   3.408
18719WAT     H156399   5.875   6.606   3.424
18719WAT     H256400   5.783   6.528   3.314
18720WAT      O56401   5.401   3.093   4.626
18720WAT     H156402   5.443   3.084   4.717
18720WAT     H256403   5.429   3.016   4.569
18721WAT      O56404   4.648   2.342   3.650
18721WAT     H156405   4.587   2.384   3.718
18721WAT     H256406   4.676   2.251   3.682
18722WAT      O56407   6.194   6.773   6.263
18722WAT     H156408   6.105   6.740   6.295
18722WAT     H256409   6.247   6.696   6.227
18723WAT      O56410   1.645   4.719   3.142
18723WAT     H156411   1.652   4.688   3.047
18723WAT     H256412   1.732   4.761   3.170
18724WAT      O56413   4.744   1.230   2.670
18724WAT     H156414   4.795   1.152   2.631
18724WAT     H256415   4.781   1.252   2.760
18725WAT      O56416   9.890   1.319   1.513
18725WAT     H156417   9.912   1.303   1.417
18725WAT     H256418   9.823   1.251   1.544
18726WAT      O56419   3.277   9.661   4.715
18726WAT     H156420   3.244   9.568   4.734
18726WAT     H256421   3.376   9.658   4.700
18727WAT      O56422   6.209   2.720   0.106
18727WAT     H156423   6.190   2.811   0.145
18727WAT     H256424   6.128   2.688   0.057
18728WAT      O56425   9.248   9.413   1.248
18728WAT     H156426   9.246   9.496   1.193
18728WAT     H256427   9.183   9.421   1.324
18729WAT      O56428   2.754   2.586   2.484
18729WAT     H156429   2.697   2.555   2.560
18729WAT     H256430   2.729   2.679   2.459
18730WAT      O56431   0.813   4.663   7.285
18730WAT     H156432   0.836   4.647   7.380
18730WAT     H256433   0.740   4.600   7.257
18731WAT      O56434   3.195   5.459   4.420
18731WAT     H156435   3.125   5.477   4.351
18731WAT     H256436   3.259   5.536   4.423
18732WAT      O56437   5.899   6.145   5.426
18732WAT     H156438   5.973   6.197   5.384
18732WAT     H256439   5.927   6.115   5.517
18733WAT      O56440   0.551   8.009   9.840
18733WAT     H156441   0.651   8.001   9.845
18733WAT     H256442   0.521   8.004   9.745
18734WAT      O56443   4.922   2.991   5.178
18734WAT     H156444   4.965   3.070   5.221
18734WAT     H256445   4.852   3.022   5.114
18735WAT      O56446   2.778   3.174   0.121
18735WAT     H156447   2.842   3.228   0.176
18735WAT     H256448   2.772   3.082   0.159
18736WAT      O56449   5.443   6.240   0.955
18736WAT     H156450   5.361   6.187   0.932
18736WAT     H256451   5.522   6.178   0.960
18737WAT      O56452   7.107   8.843   7.993
18737WAT     H156453   7.124   8.940   7.978
18737WAT     H256454   7.033   8.832   8.060
18738WAT      O56455   7.543   2.778   2.660
18738WAT     H156456   7.570   2.686   2.633
18738WAT     H256457   7.462   2.806   2.609
18739WAT      O56458   9.219   2.232   4.889
18739WAT     H156459   9.192   2.198   4.799
18739WAT     H256460   9.269   2.318   4.878
18740WAT      O56461   5.212   5.649   5.731
18740WAT     H156462   5.141   5.605   5.786
18740WAT     H256463   5.179   5.662   5.638
18741WAT      O56464   1.959   9.382   2.190
18741WAT     H156465   2.056   9.358   2.195
18741WAT     H256466   1.939   9.423   2.101
18742WAT      O56467   0.326   2.535   4.755
18742WAT     H156468   0.424   2.530   4.733
18742WAT     H256469   0.281   2.595   4.689
18743WAT      O56470   5.327   5.774   2.272
18743WAT     H156471   5.239   5.770   2.319
18743WAT     H256472   5.351   5.683   2.238
18744WAT      O56473   0.078   6.881   0.117
18744WAT     H156474  -0.020   6.904   0.120
18744WAT     H256475   0.090   6.791   0.075
18745WAT      O56476   9.033   7.670   2.876
18745WAT     H156477   9.003   7.729   2.951
18745WAT     H256478   8.967   7.675   2.801
18746WAT      O56479   6.130   4.695   4.722
18746WAT     H156480   6.090   4.737   4.804
18746WAT     H256481   6.114   4.755   4.644
18747WAT      O56482   9.350   9.412   9.543
18747WAT     H156483   9.266   9.449   9.503
18747WAT     H256484   9.428   9.437   9.485
18748WAT      O56485   6.106   8.810   6.721
18748WAT     H156486   6.199   8.823   6.688
18748WAT     H256487   6.045   8.876   6.678
18749WAT      O56488   6.469   9.845   0.848
18749WAT     H156489   6.553   9.794   0.864
18749WAT     H256490   6.416   9.849   0.933
18750WAT      O56491   1.422   9.617   9.826
18750WAT     H156492   1.382   9.632   9.735
18750WAT     H256493   1.375   9.676   9.893
18751WAT      O56494   1.204   8.143   4.632
18751WAT     H156495   1.207   8.224   4.691
18751WAT     H256496   1.298   8.112   4.613
18752WAT      O56497   5.662   8.598   0.886
18752WAT     H156498   5.691   8.562   0.974
18752WAT     H256499   5.683   8.696   0.882
18753WAT      O56500   0.332   2.764   5.614
18753WAT     H156501   0.423   2.724   5.602
18753WAT     H256502   0.264   2.709   5.565
18754WAT      O56503   4.369   8.822   7.118
18754WAT     H156504   4.426   8.900   7.143
18754WAT     H256505   4.380   8.750   7.186
18755WAT      O56506   6.217   9.149   1.398
18755WAT     H156507   6.239   9.065   1.349
18755WAT     H256508   6.164   9.127   1.480
18756WAT      O56509   1.374   1.389   0.286
18756WAT     H156510   1.354   1.307   0.339
18756WAT     H256511   1.288   1.427   0.250
18757WAT      O56512   3.831   2.024   3.958
18757WAT     H156513   3.783   2.050   3.874
18757WAT     H256514   3.899   1.953   3.936
18758WAT      O56515   5.767   4.869   2.846
18758WAT     H156516   5.794   4.784   2.891
18758WAT     H256517   5.675   4.895   2.877
18759WAT      O56518   7.319   8.574   8.541
18759WAT     H156519   7.290   8.644   8.476
18759WAT     H256520   7.275   8.487   8.519
18760WAT      O56521   2.917   4.912   7.590
18760WAT     H156522   2.887   4.998   7.630
18760WAT     H256523   2.935   4.924   7.492
18761WAT      O56524   8.632   9.088   7.077
18761WAT     H156525   8.603   9.184   7.074
18761WAT     H256526   8.575   9.034   7.016
18762WAT      O56527   3.470   7.569   7.273
18762WAT     H156528   3.460   7.666   7.295
18762WAT     H256529   3.557   7.535   7.309
18763WAT      O56530   6.835   4.152   0.373
18763WAT     H156531   6.845   4.058   0.403
18763WAT     H256532   6.925   4.191   0.352
18764WAT      O56533   1.227   9.261   4.751
18764WAT     H156534   1.262   9.234   4.840
18764WAT     H256535   1.141   9.215   4.733
18765WAT      O56536   7.144   7.476   5.638
18765WAT     H156537   7.152   7.440   5.545
18765WAT     H256538   7.165   7.404   5.704
18766WAT      O56539   7.121   6.215   2.566
18766WAT     H156540   7.197   6.270   2.530
18766WAT     H256541   7.156   6.128   2.601
18767WAT      O56542   9.039   6.043   5.956
18767WAT     H156543   8.992   5.959   5.983
18767WAT     H256544   9.111   6.064   6.022
18768WAT      O56545   1.596   4.996   0.329
18768WAT     H156546   1.499   5.008   0.347
18768WAT     H256547   1.642   5.085   0.331
18769WAT      O56548   1.054   2.666   3.488
18769WAT     H156549   1.035   2.764   3.484
18769WAT     H256550   1.125   2.649   3.556
18770WAT      O56551   9.310   1.394   2.608
18770WAT     H156552   9.394   1.386   2.554
18770WAT     H256553   9.233   1.410   2.547
18771WAT      O56554   8.434   2.135   1.068
18771WAT     H156555   8.531   2.128   1.089
18771WAT     H256556   8.396   2.215   1.114
18772WAT      O56557   9.831   2.493   5.851
18772WAT     H156558   9.795   2.539   5.932
18772WAT     H256559   9.775   2.517   5.772
18773WAT      O56560   6.765   7.419   0.860
18773WAT     H156561   6.766   7.453   0.766
18773WAT     H256562   6.757   7.496   0.923
18774WAT      O56563   9.854   6.073   4.620
18774WAT     H156564   9.904   6.065   4.534
18774WAT     H256565   9.914   6.112   4.690
18775WAT      O56566   6.011   2.547   5.630
18775WAT     H156567   5.981   2.642   5.627
18775WAT     H256568   6.090   2.539   5.691
18776WAT      O56569   6.637   4.082   6.924
18776WAT     H156570   6.668   3.992   6.894
18776WAT     H256571   6.603   4.133   6.845
18777WAT      O56572   8.424   2.211   3.663
18777WAT     H156573   8.354   2.275   3.631
18777WAT     H256574   8.409   2.122   3.621
18778WAT      O56575   8.903   1.497   8.074
18778WAT     H156576   8.913   1.497   7.974
18778WAT     H256577   8.816   1.539   8.099
18779WAT      O56578   4.792   4.883   1.458
18779WAT     H156579   4.820   4.836   1.542
18779WAT     H256580   4.714   4.942   1.478
18780WAT      O56581   0.456   1.716   1.214
18780WAT     H156582   0.533   1.677   1.164
18780WAT     H256583   0.370   1.684   1.173
18781WAT      O56584   9.073   8.985   3.561
18781WAT     H156585   8.982   8.969   3.523
18781WAT     H256586   9.142   8.954   3.495
18782WAT      O56587   8.757   8.475   5.696
18782WAT     H156588   8.780   8.402   5.633
18782WAT     H256589   8.728   8.436   5.783
18783WAT      O56590   6.587   4.122   4.415
18783WAT     H156591   6.498   4.086   4.386
18783WAT     H256592   6.636   4.158   4.336
18784WAT      O56593   4.945   4.806   5.858
18784WAT     H156594   5.011   4.740   5.822
18784WAT     H256595   4.854   4.786   5.823
18785WAT      O56596   2.477   2.841   2.158
18785WAT     H156597   2.504   2.929   2.117
18785WAT     H256598   2.537   2.769   2.123
18786WAT      O56599   6.710   5.632   5.333
18786WAT     H156600   6.679   5.726   5.347
18786WAT     H256601   6.804   5.632   5.300
18787WAT      O56602   0.248   6.988   8.491
18787WAT     H156603   0.209   6.953   8.576
18787WAT     H256604   0.210   7.078   8.471
18788WAT      O56605   2.081   6.370   4.540
18788WAT     H156606   2.059   6.324   4.626
18788WAT     H256607   2.083   6.304   4.465
18789WAT      O56608   5.016   5.927   6.848
18789WAT     H156609   4.916   5.928   6.848
18789WAT     H256610   5.049   5.938   6.942
18790WAT      O56611   4.467   5.429   1.299
18790WAT     H156612   4.565   5.419   1.316
18790WAT     H256613   4.416   5.366   1.357
18791WAT      O56614   3.186   2.669   3.837
18791WAT     H156615   3.205   2.767   3.845
18791WAT     H256616   3.268   2.617   3.861
18792WAT      O56617   3.497   9.839   0.373
18792WAT     H156618   3.590   9.812   0.398
18792WAT     H256619   3.444   9.757   0.350
18793WAT      O56620   6.460   9.086   0.888
18793WAT     H156621   6.406   9.157   0.934
18793WAT     H256622   6.403   9.005   0.874
18794WAT      O56623   4.931   8.701   6.815
18794WAT     H156624   4.909   8.608   6.843
18794WAT     H256625   4.952   8.756   6.896
18795WAT      O56626   3.691   0.776   9.534
18795WAT     H156627   3.599   0.789   9.499
18795WAT     H256628   3.716   0.854   9.592
18796WAT      O56629   1.140   0.784   5.033
18796WAT     H156630   1.158   0.778   5.131
18796WAT     H256631   1.213   0.837   4.989
18797WAT      O56632   4.517   1.902   7.985
18797WAT     H156633   4.502   1.822   8.045
18797WAT     H256634   4.552   1.978   8.039
18798WAT      O56635   0.058   5.601   8.113
18798WAT     H156636   0.022   5.680   8.064
18798WAT     H256637   0.131   5.559   8.060
18799WAT      O56638   5.274   9.009   3.455
18799WAT     H156639   5.303   9.103   3.440
18799WAT     H256640   5.190   9.007   3.508
18800WAT      O56641   3.491   8.866   3.033
18800WAT     H156642   3.491   8.961   3.003
18800WAT     H256643   3.573   8.819   2.998
18801WAT      O56644   3.355   5.542   7.130
18801WAT     H156645   3.380   5.491   7.213
18801WAT     H256646   3.303   5.482   7.069
18802WAT      O56647   6.631   3.723   8.542
18802WAT     H156648   6.640   3.742   8.640
18802WAT     H256649   6.714   3.678   8.509
18803WAT      O56650   8.216   9.188   5.411
18803WAT     H156651   8.213   9.133   5.328
18803WAT     H256652   8.310   9.220   5.427
18804WAT      O56653   2.152   6.758   2.697
18804WAT     H156654   2.127   6.706   2.615
18804WAT     H256655   2.152   6.696   2.776
18805WAT      O56656   0.085   5.838   0.531
18805WAT     H156657   0.148   5.904   0.491
18805WAT     H256658   0.066   5.766   0.464
18806WAT      O56659   5.013   2.240   6.302
18806WAT     H156660   4.982   2.201   6.214
18806WAT     H256661   4.991   2.337   6.305
18807WAT      O56662   8.092   4.269   3.086
18807WAT     H156663   8.016   4.214   3.120
18807WAT     H256664   8.157   4.210   3.038
18808WAT      O56665   7.517   9.234   6.432
18808WAT     H156666   7.523   9.319   6.379
18808WAT     H256667   7.428   9.192   6.417
18809WAT      O56668   4.102   0.126   9.537
18809WAT     H156669   4.129   0.042   9.583
18809WAT     H256670   4.055   0.104   9.451
18810WAT      O56671   3.244   4.776   3.972
18810WAT     H156672   3.246   4.750   3.875
18810WAT     H256673   3.334   4.761   4.013
18811WAT      O56674   4.458   1.321   3.060
18811WAT     H156675   4.408   1.408   3.058
18811WAT     H256676   4.438   1.269   2.977
18812WAT      O56677   4.991   4.967   6.051
18812WAT     H156678   4.975   4.908   5.972
18812WAT     H256679   5.075   5.019   6.038
18813WAT      O56680   7.196   8.271   2.136
18813WAT     H156681   7.206   8.271   2.037
18813WAT     H256682   7.183   8.364   2.169
18814WAT      O56683   4.607   5.117   6.422
18814WAT     H156684   4.688   5.123   6.363
18814WAT     H256685   4.636   5.091   6.514
18815WAT      O56686   4.082   4.725   4.492
18815WAT     H156687   3.985   4.718   4.516
18815WAT     H256688   4.122   4.805   4.539
18816WAT      O56689   9.366   7.429   1.030
18816WAT     H156690   9.269   7.424   1.006
18816WAT     H256691   9.393   7.346   1.079
18817WAT      O56692   0.473   4.102   2.066
18817WAT     H156693   0.406   4.167   2.029
18817WAT     H256694   0.513   4.139   2.150
18818WAT      O56695   4.316   8.430   0.576
18818WAT     H156696   4.347   8.412   0.669
18818WAT     H256697   4.394   8.452   0.518
18819WAT      O56698   3.714   2.919   5.659
18819WAT     H156699   3.718   2.940   5.561
18819WAT     H256700   3.807   2.914   5.695
18820WAT      O56701   6.205   5.318   0.032
18820WAT     H156702   6.202   5.342   0.129
18820WAT     H256703   6.188   5.220   0.022
18821WAT      O56704   5.972   2.632   3.598
18821WAT     H156705   5.982   2.655   3.502
18821WAT     H256706   5.982   2.533   3.610
18822WAT      O56707   2.652   1.398   3.047
18822WAT     H156708   2.601   1.379   3.131
18822WAT     H256709   2.668   1.312   2.998
18823WAT      O56710   5.833   2.517   1.381
18823WAT     H156711   5.896   2.577   1.333
18823WAT     H256712   5.885   2.445   1.427
18824WAT      O56713   2.726   5.567   5.802
18824WAT     H156714   2.757   5.660   5.782
18824WAT     H256715   2.802   5.514   5.839
18825WAT      O56716   9.187   9.085   9.172
18825WAT     H156717   9.124   9.033   9.113
18825WAT     H256718   9.249   9.139   9.114
18826WAT      O56719   6.375   4.864   4.006
18826WAT     H156720   6.431   4.874   4.088
18826WAT     H256721   6.434   4.850   3.927
18827WAT      O56722   2.901   8.282   1.721
18827WAT     H156723   2.907   8.270   1.820
18827WAT     H256724   2.887   8.378   1.699
18828WAT      O56725   8.394   0.891   7.214
18828WAT     H156726   8.352   0.800   7.206
18828WAT     H256727   8.322   0.960   7.223
18829WAT      O56728   9.877   6.180   6.501
18829WAT     H156729   9.945   6.109   6.486
18829WAT     H256730   9.816   6.186   6.422
18830WAT      O56731   8.536   3.047   6.410
18830WAT     H156732   8.457   2.988   6.425
18830WAT     H256733   8.617   2.991   6.391
18831WAT      O56734   3.800   5.320   3.879
18831WAT     H156735   3.857   5.253   3.833
18831WAT     H256736   3.735   5.273   3.939
18832WAT      O56737   2.344   9.185   3.200
18832WAT     H156738   2.279   9.116   3.231
18832WAT     H256739   2.434   9.167   3.239
18833WAT      O56740   5.960   2.021   2.738
18833WAT     H156741   5.948   2.076   2.821
18833WAT     H256742   5.953   2.079   2.657
18834WAT      O56743   5.016   8.753   8.929
18834WAT     H156744   5.030   8.774   8.832
18834WAT     H256745   5.060   8.665   8.950
18835WAT      O56746   4.583   4.568   8.056
18835WAT     H156747   4.653   4.499   8.039
18835WAT     H256748   4.521   4.574   7.978
18836WAT      O56749   5.038   1.803   6.560
18836WAT     H156750   4.980   1.843   6.631
18836WAT     H256751   4.989   1.805   6.473
18837WAT      O56752   0.710   1.686   2.998
18837WAT     H156753   0.725   1.744   2.918
18837WAT     H256754   0.614   1.661   3.003
18838WAT      O56755   5.100   0.580   6.588
18838WAT     H156756   5.159   0.587   6.507
18838WAT     H256757   5.043   0.499   6.582
18839WAT      O56758   5.297   6.231   4.094
18839WAT     H156759   5.319   6.222   4.191
18839WAT     H256760   5.381   6.225   4.040
18840WAT      O56761   3.784   8.708   5.283
18840WAT     H156762   3.843   8.788   5.274
18840WAT     H256763   3.735   8.692   5.197
18841WAT      O56764   7.197   1.683   8.622
18841WAT     H156765   7.248   1.769   8.618
18841WAT     H256766   7.111   1.693   8.571
18842WAT      O56767   9.649   4.504   1.218
18842WAT     H156768   9.629   4.417   1.264
18842WAT     H256769   9.622   4.580   1.278
18843WAT      O56770   2.163   1.230   9.171
18843WAT     H156771   2.072   1.227   9.131
18843WAT     H256772   2.180   1.320   9.211
18844WAT      O56773   8.265   2.703   2.526
18844WAT     H156774   8.254   2.618   2.474
18844WAT     H256775   8.216   2.777   2.479
18845WAT      O56776   0.652   5.900   7.239
18845WAT     H156777   0.672   5.909   7.141
18845WAT     H256778   0.715   5.836   7.281
18846WAT      O56779   2.998   3.215   9.799
18846WAT     H156780   2.927   3.274   9.760
18846WAT     H256781   2.958   3.155   9.868
18847WAT      O56782   2.543   2.502   9.041
18847WAT     H156783   2.516   2.575   9.102
18847WAT     H256784   2.523   2.413   9.084
18848WAT      O56785   4.141   3.731   1.835
18848WAT     H156786   4.158   3.700   1.929
18848WAT     H256787   4.056   3.784   1.832
18849WAT      O56788   1.640   8.168   2.037
18849WAT     H156789   1.729   8.122   2.032
18849WAT     H256790   1.641   8.249   1.979
18850WAT      O56791   4.827   5.976   6.559
18850WAT     H156792   4.770   5.897   6.581
18850WAT     H256793   4.838   6.033   6.641
18851WAT      O56794   3.526   4.855   9.141
18851WAT     H156795   3.492   4.883   9.230
18851WAT     H256796   3.470   4.898   9.069
18852WAT      O56797   8.283   7.287   7.669
18852WAT     H156798   8.204   7.292   7.607
18852WAT     H256799   8.327   7.376   7.674
18853WAT      O56800   8.446   0.953   8.157
18853WAT     H156801   8.400   0.881   8.210
18853WAT     H256802   8.545   0.943   8.166
18854WAT      O56803   3.577   3.191   5.275
18854WAT     H156804   3.631   3.262   5.319
18854WAT     H256805   3.576   3.206   5.176
18855WAT      O56806   9.552   6.014   6.268
18855WAT     H156807   9.524   5.961   6.188
18855WAT     H256808   9.483   6.084   6.287
18856WAT      O56809   7.750   3.866   8.401
18856WAT     H156810   7.703   3.933   8.458
18856WAT     H256811   7.848   3.886   8.400
18857WAT      O56812   5.429   5.554   4.754
18857WAT     H156813   5.476   5.477   4.711
18857WAT     H256814   5.484   5.637   4.742
18858WAT      O56815   0.608   2.387   9.692
18858WAT     H156816   0.589   2.338   9.777
18858WAT     H256817   0.608   2.485   9.710
18859WAT      O56818   1.310   3.063   2.383
18859WAT     H156819   1.335   3.139   2.324
18859WAT     H256820   1.325   3.088   2.479
18860WAT      O56821   4.983   8.552   5.495
18860WAT     H156822   4.925   8.474   5.521
18860WAT     H256823   5.079   8.525   5.502
18861WAT      O56824   8.232   1.015   5.946
18861WAT     H156825   8.317   0.973   5.917
18861WAT     H256826   8.202   0.974   6.032
18862WAT      O56827   3.142   4.694   2.544
18862WAT     H156828   3.218   4.658   2.491
18862WAT     H256829   3.107   4.622   2.605
18863WAT      O56830   3.734   6.725   5.184
18863WAT     H156831   3.640   6.723   5.218
18863WAT     H256832   3.779   6.808   5.216
18864WAT      O56833   1.652   3.424   3.957
18864WAT     H156834   1.639   3.512   3.912
18864WAT     H256835   1.707   3.364   3.898
18865WAT      O56836   8.775   6.718   0.644
18865WAT     H156837   8.747   6.742   0.551
18865WAT     H256838   8.694   6.697   0.699
18866WAT      O56839   5.864   6.705   2.152
18866WAT     H156840   5.781   6.648   2.155
18866WAT     H256841   5.840   6.797   2.123
18867WAT      O56842   3.548   3.692   0.992
18867WAT     H156843   3.599   3.754   0.932
18867WAT     H256844   3.450   3.713   0.986
18868WAT      O56845   9.723   0.788   5.474
18868WAT     H156846   9.763   0.787   5.565
18868WAT     H256847   9.649   0.855   5.470
18869WAT      O56848   0.117   6.120   3.658
18869WAT     H156849   0.044   6.100   3.724
18869WAT     H256850   0.125   6.044   3.593
18870WAT      O56851   4.613   3.769   8.512
18870WAT     H156852   4.710   3.784   8.533
18870WAT     H256853   4.576   3.852   8.469
18871WAT      O56854   4.317   7.220   0.504
18871WAT     H156855   4.415   7.231   0.488
18871WAT     H256856   4.303   7.168   0.589
18872WAT      O56857   8.580   1.444   5.405
18872WAT     H156858   8.544   1.474   5.317
18872WAT     H256859   8.579   1.344   5.409
18873WAT      O56860   6.319   7.642   7.648
18873WAT     H156861   6.241   7.700   7.670
18873WAT     H256862   6.367   7.680   7.568
18874WAT      O56863   4.602   4.528   2.717
18874WAT     H156864   4.581   4.459   2.787
18874WAT     H256865   4.656   4.601   2.758
18875WAT      O56866   7.362   8.170   8.900
18875WAT     H156867   7.281   8.226   8.887
18875WAT     H256868   7.339   8.074   8.887
18876WAT      O56869   0.713   3.487   4.783
18876WAT     H156870   0.645   3.416   4.804
18876WAT     H256871   0.804   3.455   4.810
18877WAT      O56872   2.347   1.621   4.842
18877WAT     H156873   2.395   1.709   4.842
18877WAT     H256874   2.373   1.569   4.923
18878WAT      O56875   8.148   0.740   1.807
18878WAT     H156876   8.165   0.828   1.851
18878WAT     H256877   8.134   0.755   1.709
18879WAT      O56878   0.846   6.685   3.289
18879WAT     H156879   0.783   6.613   3.319
18879WAT     H256880   0.910   6.647   3.222
18880WAT      O56881   7.044   0.278   8.289
18880WAT     H156882   7.032   0.353   8.353
18880WAT     H256883   7.104   0.209   8.329
18881WAT      O56884   0.565   4.927   2.000
18881WAT     H156885   0.491   4.962   2.058
18881WAT     H256886   0.550   4.957   1.906
18882WAT      O56887   2.108   0.542   0.810
18882WAT     H156888   2.068   0.589   0.889
18882WAT     H256889   2.042   0.545   0.734
18883WAT      O56890   1.643   1.406   1.429
18883WAT     H156891   1.672   1.415   1.525
18883WAT     H256892   1.704   1.342   1.382
18884WAT      O56893   4.768   6.369   9.175
18884WAT     H156894   4.670   6.383   9.161
18884WAT     H256895   4.795   6.282   9.134
18885WAT      O56896   7.110   3.284   1.575
18885WAT     H156897   7.048   3.331   1.512
18885WAT     H256898   7.076   3.295   1.669
18886WAT      O56899   9.283   8.892   5.962
18886WAT     H156900   9.214   8.953   5.921
18886WAT     H256901   9.315   8.828   5.893
18887WAT      O56902   3.399   1.250   0.090
18887WAT     H156903   3.381   1.157   0.122
18887WAT     H256904   3.328   1.277   0.024
18888WAT      O56905   9.509   7.710   7.934
18888WAT     H156906   9.481   7.726   7.839
18888WAT     H256907   9.430   7.679   7.987
18889WAT      O56908   2.579   8.715   5.785
18889WAT     H156909   2.656   8.691   5.843
18889WAT     H256910   2.582   8.812   5.763
18890WAT      O56911   5.017   0.119   6.487
18890WAT     H156912   5.087   0.134   6.417
18890WAT     H256913   4.951   0.051   6.455
18891WAT      O56914   6.851   2.423   2.851
18891WAT     H156915   6.817   2.359   2.920
18891WAT     H256916   6.951   2.430   2.860
18892WAT      O56917   7.544   0.399   6.780
18892WAT     H156918   7.637   0.397   6.817
18892WAT     H256919   7.528   0.318   6.724
18893WAT      O56920   1.777   9.006   8.158
18893WAT     H156921   1.771   9.020   8.257
18893WAT     H256922   1.745   9.088   8.111
18894WAT      O56923   0.932   8.917   8.187
18894WAT     H156924   0.943   8.843   8.121
18894WAT     H256925   1.006   8.912   8.255
18895WAT      O56926   5.384   9.618   4.397
18895WAT     H156927   5.361   9.605   4.494
18895WAT     H256928   5.301   9.604   4.342
18896WAT      O56929   0.029   0.586   0.986
18896WAT     H156930  -0.000   0.548   0.898
18896WAT     H256931  -0.038   0.562   1.057
18897WAT      O56932   3.200   3.793   5.674
18897WAT     H156933   3.157   3.871   5.720
18897WAT     H256934   3.299   3.798   5.684
18898WAT      O56935   9.549   1.718   7.654
18898WAT     H156936   9.552   1.666   7.740
18898WAT     H256937   9.610   1.675   7.587
18899WAT      O56938   8.591   3.564   1.504
18899WAT     H156939   8.671   3.624   1.500
18899WAT     H256940   8.508   3.619   1.496
18900WAT      O56941   0.912   9.091   4.136
18900WAT     H156942   0.974   9.053   4.068
18900WAT     H256943   0.957   9.167   4.183
18901WAT      O56944   6.230   6.378   3.589
18901WAT     H156945   6.197   6.314   3.519
18901WAT     H256946   6.199   6.347   3.679
18902WAT      O56947   0.732   2.381   4.477
18902WAT     H156948   0.795   2.308   4.451
18902WAT     H256949   0.654   2.342   4.526
18903WAT      O56950   3.194   7.729   4.357
18903WAT     H156951   3.280   7.778   4.371
18903WAT     H256952   3.135   7.781   4.295
18904WAT      O56953   5.932   2.166   2.527
18904WAT     H156954   5.976   2.112   2.456
18904WAT     H256955   5.947   2.264   2.510
18905WAT      O56956   4.584   5.555   9.158
18905WAT     H156957   4.617   5.492   9.228
18905WAT     H256958   4.546   5.503   9.082
18906WAT      O56959   4.948   0.760   0.627
18906WAT     H156960   4.952   0.823   0.705
18906WAT     H256961   4.993   0.674   0.652
18907WAT      O56962   2.467   1.900   6.619
18907WAT     H156963   2.485   1.998   6.631
18907WAT     H256964   2.370   1.882   6.636
18908WAT      O56965   3.464   2.901   8.006
18908WAT     H156966   3.395   2.838   7.971
18908WAT     H256967   3.510   2.860   8.085
18909WAT      O56968   2.302   6.275   0.532
18909WAT     H156969   2.355   6.200   0.570
18909WAT     H256970   2.276   6.337   0.606
18910WAT      O56971   6.661   1.664   7.954
18910WAT     H156972   6.705   1.618   8.031
18910WAT     H256973   6.700   1.756   7.943
18911WAT      O56974   9.079   2.243   8.611
18911WAT     H156975   9.131   2.167   8.572
18911WAT     H256976   9.057   2.222   8.707
18912WAT      O56977   5.023   3.932   1.557
18912WAT     H156978   5.089   4.000   1.589
18912WAT     H256979   5.055   3.895   1.469
18913WAT      O56980   6.790   0.616   4.544
18913WAT     H156981   6.806   0.685   4.473
18913WAT     H256982   6.843   0.639   4.626
18914WAT      O56983   2.708   3.371   5.116
18914WAT     H156984   2.759   3.425   5.048
18914WAT     H256985   2.769   3.348   5.192
18915WAT      O56986   5.046   6.890   9.459
18915WAT     H156987   5.107   6.894   9.380
18915WAT     H256988   4.975   6.822   9.443
18916WAT      O56989   5.916   8.304   8.075
18916WAT     H156990   5.984   8.251   8.125
18916WAT     H256991   5.943   8.400   8.072
18917WAT      O56992   7.687   8.582   3.053
18917WAT     H156993   7.633   8.532   2.985
18917WAT     H256994   7.720   8.668   3.014
18918WAT      O56995   9.081   8.422   8.129
18918WAT     H156996   9.126   8.358   8.191
18918WAT     H256997   9.149   8.466   8.071
18919WAT      O56998   1.349   6.261   8.447
18919WAT     H156999   1.360   6.162   8.447
18919WAT     H257000   1.343   6.294   8.353
18920WAT      O57001   2.028   0.278   5.986
18920WAT     H157002   2.059   0.359   5.936
18920WAT     H257003   2.087   0.263   6.065
18921WAT      O57004   4.668   7.003   5.824
18921WAT     H157005   4.606   6.974   5.897
18921WAT     H257006   4.683   7.101   5.830
18922WAT      O57007   5.909   0.617   0.412
18922WAT     H157008   5.880   0.569   0.329
18922WAT     H257009   5.998   0.659   0.396
18923WAT      O57010   5.991   8.974   4.635
18923WAT     H157011   6.025   9.063   4.668
18923WAT     H257012   6.046   8.901   4.674
18924WAT      O57013   9.760   0.296   9.102
18924WAT     H157014   9.843   0.241   9.110
18924WAT     H257015   9.680   0.239   9.119
18925WAT      O57016   2.052   4.968   4.457
18925WAT     H157017   2.085   4.955   4.363
18925WAT     H257018   2.070   4.885   4.510
18926WAT      O57019   9.224   7.809   4.590
18926WAT     H157020   9.195   7.748   4.664
18926WAT     H257021   9.323   7.806   4.580
18927WAT      O57022   0.478   5.224   4.686
18927WAT     H157023   0.469   5.319   4.656
18927WAT     H257024   0.569   5.209   4.723
18928WAT      O57025   8.314   4.943   2.801
18928WAT     H157026   8.406   4.979   2.787
18928WAT     H257027   8.264   4.945   2.715
18929WAT      O57028   7.600   0.246   8.195
18929WAT     H157029   7.536   0.320   8.177
18929WAT     H257030   7.683   0.259   8.141
18930WAT      O57031   9.732   7.246   4.693
18930WAT     H157032   9.699   7.337   4.719
18930WAT     H257033   9.709   7.229   4.597
18931WAT      O57034   4.106   0.251   7.335
18931WAT     H157035   4.155   0.338   7.346
18931WAT     H257036   4.162   0.177   7.372
18932WAT      O57037   0.968   6.824   4.018
18932WAT     H157038   0.885   6.877   4.037
18932WAT     H257039   0.964   6.738   4.067
18933WAT      O57040   3.052   9.787   0.324
18933WAT     H157041   3.081   9.765   0.231
18933WAT     H257042   3.122   9.759   0.389
18934WAT      O57043   1.738   6.100   2.285
18934WAT     H157044   1.701   6.103   2.378
18934WAT     H257045   1.791   6.182   2.267
18935WAT      O57046   1.431   1.464   4.657
18935WAT     H157047   1.385   1.451   4.745
18935WAT     H257048   1.392   1.403   4.589
18936WAT      O57049   2.128   1.417   4.233
18936WAT     H157050   2.044   1.471   4.227
18936WAT     H257051   2.142   1.367   4.148
18937WAT      O57052   2.997   9.324   5.123
18937WAT     H157053   2.944   9.312   5.039
18937WAT     H257054   3.044   9.412   5.119
18938WAT      O57055   7.213   0.510   9.695
18938WAT     H157056   7.194   0.433   9.633
18938WAT     H257057   7.279   0.572   9.653
18939WAT      O57058   3.032   3.039   7.979
18939WAT     H157059   3.107   3.090   8.021
18939WAT     H257060   3.065   2.949   7.950
18940WAT      O57061   0.668   9.249   8.373
18940WAT     H157062   0.711   9.328   8.329
18940WAT     H257063   0.642   9.182   8.304
18941WAT      O57064   2.078   4.269   7.140
18941WAT     H157065   2.058   4.252   7.043
18941WAT     H257066   1.993   4.290   7.188
18942WAT      O57067   0.048   2.133   3.872
18942WAT     H157068   0.097   2.210   3.913
18942WAT     H257069   0.023   2.156   3.778
18943WAT      O57070   8.108   8.579   8.771
18943WAT     H157071   8.127   8.565   8.674
18943WAT     H257072   8.075   8.494   8.811
18944WAT      O57073   1.418   2.752   3.195
18944WAT     H157074   1.343   2.701   3.238
18944WAT     H257075   1.483   2.687   3.155
18945WAT      O57076   5.041   4.851   2.825
18945WAT     H157077   4.984   4.793   2.883
18945WAT     H257078   5.022   4.833   2.729
18946WAT      O57079   0.261   9.013   5.453
18946WAT     H157080   0.341   8.987   5.399
18946WAT     H257081   0.274   8.984   5.548
18947WAT      O57082   3.169   1.250   2.642
18947WAT     H157083   3.128   1.259   2.551
18947WAT     H257084   3.216   1.335   2.665
18948WAT      O57085   0.700   2.854   5.213
18948WAT     H157086   0.614   2.893   5.180
18948WAT     H257087   0.704   2.757   5.192
18949WAT      O57088   5.743   7.127   9.246
18949WAT     H157089   5.776   7.214   9.209
18949WAT     H257090   5.677   7.145   9.319
18950WAT      O57091   7.624   0.812   0.951
18950WAT     H157092   7.649   0.859   0.867
18950WAT     H257093   7.596   0.718   0.929
18951WAT      O57094   0.863   7.430   3.250
18951WAT     H157095   0.773   7.440   3.293
18951WAT     H257096   0.934   7.428   3.320
18952WAT      O57097   1.345   8.412   0.764
18952WAT     H157098   1.368   8.343   0.695
18952WAT     H257099   1.261   8.384   0.811
18953WAT      O57100   0.759   3.945   4.091
18953WAT     H157101   0.775   3.900   4.179
18953WAT     H257102   0.760   4.044   4.104
18954WAT      O57103   9.104   3.524   6.837
18954WAT     H157104   9.150   3.570   6.913
18954WAT     H257105   9.007   3.517   6.856
18955WAT      O57106   1.031   0.988   2.982
18955WAT     H157107   1.093   1.055   3.024
18955WAT     H257108   0.961   1.036   2.929
18956WAT      O57109   5.450   1.455   1.041
18956WAT     H157110   5.432   1.534   1.099
18956WAT     H257111   5.534   1.410   1.070
18957WAT      O57112   1.316   3.850   8.692
18957WAT     H157113   1.343   3.869   8.786
18957WAT     H257114   1.351   3.761   8.664
18958WAT      O57115   3.382   3.912   7.304
18958WAT     H157116   3.344   3.827   7.342
18958WAT     H257117   3.321   3.988   7.327
18959WAT      O57118   2.041   9.235   7.276
18959WAT     H157119   2.106   9.196   7.210
18959WAT     H257120   2.036   9.176   7.357
18960WAT      O57121   2.870   1.857   0.958
18960WAT     H157122   2.851   1.774   1.011
18960WAT     H257123   2.962   1.853   0.921
18961WAT      O57124   2.163   5.054   6.186
18961WAT     H157125   2.146   4.992   6.263
18961WAT     H257126   2.077   5.071   6.137
18962WAT      O57127   2.084   3.537   0.203
18962WAT     H157128   2.038   3.598   0.268
18962WAT     H257129   2.103   3.587   0.118
18963WAT      O57130   8.042   2.851   1.781
18963WAT     H157131   8.022   2.892   1.869
18963WAT     H257132   8.057   2.923   1.713
18964WAT      O57133   8.434   0.073   7.381
18964WAT     H157134   8.424   0.039   7.474
18964WAT     H257135   8.510   0.138   7.377
18965WAT      O57136   5.974   1.346   5.835
18965WAT     H157137   6.044   1.280   5.808
18965WAT     H257138   6.018   1.424   5.880
18966WAT      O57139   0.263   7.700   3.121
18966WAT     H157140   0.247   7.781   3.176
18966WAT     H257141   0.325   7.638   3.169
18967WAT      O57142   3.038   0.990   4.901
18967WAT     H157143   3.054   1.043   4.985
18967WAT     H257144   2.996   1.049   4.832
18968WAT      O57145   0.865   2.870   2.403
18968WAT     H157146   0.774   2.867   2.445
18968WAT     H257147   0.868   2.945   2.337
18969WAT      O57148   4.492   5.407   8.949
18969WAT     H157149   4.409   5.378   8.902
18969WAT     H257150   4.556   5.330   8.954
18970WAT      O57151   2.059   1.232   0.210
18970WAT     H157152   2.151   1.197   0.193
18970WAT     H257153   2.065   1.325   0.246
18971WAT      O57154   0.748   9.538   0.873
18971WAT     H157155   0.768   9.462   0.933
18971WAT     H257156   0.810   9.536   0.794
18972WAT      O57157   0.653   7.179   5.812
18972WAT     H157158   0.746   7.202   5.784
18972WAT     H257159   0.645   7.080   5.824
18973WAT      O57160   3.404   7.518   0.381
18973WAT     H157161   3.468   7.453   0.338
18973WAT     H257162   3.430   7.611   0.357
18974WAT      O57163   1.952   5.920   2.990
18974WAT     H157164   1.883   5.987   3.020
18974WAT     H257165   1.981   5.866   3.069
18975WAT      O57166   6.386   2.316   5.058
18975WAT     H157167   6.470   2.368   5.041
18975WAT     H257168   6.345   2.291   4.970
18976WAT      O57169   8.432   4.923   4.773
18976WAT     H157170   8.338   4.888   4.771
18976WAT     H257171   8.431   5.021   4.793
18977WAT      O57172   5.626   7.372   6.580
18977WAT     H157173   5.699   7.334   6.523
18977WAT     H257174   5.645   7.352   6.676
18978WAT      O57175   9.113   2.841   0.529
18978WAT     H157176   9.178   2.787   0.584
18978WAT     H257177   9.132   2.938   0.543
18979WAT      O57178   4.595   3.698   8.764
18979WAT     H157179   4.606   3.706   8.665
18979WAT     H257180   4.653   3.765   8.810
18980WAT      O57181   7.554   3.713   1.289
18980WAT     H157182   7.466   3.757   1.311
18980WAT     H257183   7.613   3.714   1.370
18981WAT      O57184   8.013   4.861   0.890
18981WAT     H157185   7.926   4.835   0.932
18981WAT     H257186   8.026   4.959   0.900
18982WAT      O57187   7.165   0.909   3.806
18982WAT     H157188   7.257   0.940   3.781
18982WAT     H257189   7.172   0.823   3.857
18983WAT      O57190   8.580   8.530   8.883
18983WAT     H157191   8.626   8.458   8.935
18983WAT     H257192   8.503   8.565   8.935
18984WAT      O57193   0.219   0.764   2.495
18984WAT     H157194   0.122   0.781   2.481
18984WAT     H257195   0.264   0.754   2.406
18985WAT      O57196   3.100   9.360   4.822
18985WAT     H157197   3.068   9.289   4.759
18985WAT     H257198   3.197   9.347   4.841
18986WAT      O57199   1.149   4.896   3.267
18986WAT     H157200   1.066   4.941   3.302
18986WAT     H257201   1.177   4.825   3.331
18987WAT      O57202   3.945   5.797   3.176
18987WAT     H157203   3.889   5.791   3.093
18987WAT     H257204   3.907   5.867   3.237
18988WAT      O57205   3.086   7.570   1.197
18988WAT     H157206   3.099   7.670   1.196
18988WAT     H257207   3.147   7.529   1.265
18989WAT      O57208   7.020   9.217   5.438
18989WAT     H157209   7.075   9.232   5.356
18989WAT     H257210   7.000   9.119   5.446
18990WAT      O57211   0.946   3.928   2.053
18990WAT     H157212   0.941   3.977   1.966
18990WAT     H257213   0.925   3.990   2.128
18991WAT      O57214   4.148   6.270   9.281
18991WAT     H157215   4.184   6.188   9.239
18991WAT     H257216   4.223   6.329   9.310
18992WAT      O57217   3.838   5.730   0.039
18992WAT     H157218   3.928   5.740   0.082
18992WAT     H257219   3.849   5.686  -0.050
18993WAT      O57220   4.513   4.645   8.710
18993WAT     H157221   4.441   4.708   8.683
18993WAT     H257222   4.477   4.552   8.714
18994WAT      O57223   7.842   2.124   2.091
18994WAT     H157224   7.842   2.184   2.171
18994WAT     H257225   7.883   2.171   2.013
18995WAT      O57226   2.790   8.993   3.461
18995WAT     H157227   2.861   9.052   3.500
18995WAT     H257228   2.806   8.981   3.363
18996WAT      O57229   9.566   4.693   8.025
18996WAT     H157230   9.565   4.663   7.930
18996WAT     H257231   9.478   4.673   8.068
18997WAT      O57232   2.737   6.016   7.069
18997WAT     H157233   2.832   5.990   7.080
18997WAT     H257234   2.722   6.046   6.974
18998WAT      O57235   2.992   1.533   5.455
18998WAT     H157236   3.049   1.540   5.537
18998WAT     H257237   2.903   1.495   5.479
18999WAT      O57238   6.771   2.675   8.227
18999WAT     H157239   6.677   2.696   8.200
18999WAT     H257240   6.834   2.738   8.181
19000WAT      O57241   7.898   6.516   1.654
19000WAT     H157242   7.956   6.476   1.726
19000WAT     H257243   7.956   6.560   1.586
19001WAT      O57244   4.613   0.939   4.109
19001WAT     H157245   4.520   0.934   4.144
19001WAT     H257246   4.678   0.934   4.185
19002WAT      O57247   5.463   6.937   8.910
19002WAT     H157248   5.459   6.874   8.833
19002WAT     H257249   5.377   6.933   8.962
19003WAT      O57250   7.084   4.743   6.890
19003WAT     H157251   7.105   4.646   6.877
19003WAT     H257252   7.121   4.774   6.977
19004WAT      O57253   1.690   4.373   1.373
19004WAT     H157254   1.618   4.417   1.320
19004WAT     H257255   1.649   4.308   1.437
19005WAT      O57256   6.259   1.395   5.569
19005WAT     H157257   6.319   1.447   5.630
19005WAT     H257258   6.242   1.305   5.608
19006WAT      O57259   9.228   3.078   0.600
19006WAT     H157260   9.258   3.086   0.505
19006WAT     H257261   9.286   3.013   0.648
19007WAT      O57262   4.327   5.100   2.913
19007WAT     H157263   4.263   5.094   2.989
19007WAT     H257264   4.399   5.166   2.934
19008WAT      O57265   0.396   9.810   7.509
19008WAT     H157266   0.428   9.834   7.417
19008WAT     H257267   0.435   9.873   7.576
19009WAT      O57268   6.881   7.728   5.966
19009WAT     H157269   6.927   7.647   5.929
19009WAT     H257270   6.785   7.727   5.938
19010WAT      O57271   3.554   2.234   8.222
19010WAT     H157272   3.547   2.147   8.174
19010WAT     H257273   3.569   2.308   8.156
19011WAT      O57274   6.926   8.410   9.313
19011WAT     H157275   6.954   8.359   9.395
19011WAT     H257276   6.902   8.346   9.241
19012WAT      O57277   1.762   1.144   4.404
19012WAT     H157278   1.716   1.219   4.452
19012WAT     H257279   1.697   1.071   4.386
19013WAT      O57280   3.470   1.711   3.853
19013WAT     H157281   3.533   1.641   3.888
19013WAT     H257282   3.493   1.734   3.759
19014WAT      O57283   8.291   7.991   2.662
19014WAT     H157284   8.308   7.894   2.680
19014WAT     H257285   8.205   8.018   2.705
19015WAT      O57286   6.100   3.936   9.020
19015WAT     H157287   6.081   3.904   8.927
19015WAT     H257288   6.014   3.937   9.073
19016WAT      O57289   9.096   1.348   9.638
19016WAT     H157290   9.189   1.371   9.665
19016WAT     H257291   9.098   1.280   9.564
19017WAT      O57292   9.315   8.190   7.035
19017WAT     H157293   9.270   8.111   6.995
19017WAT     H257294   9.335   8.257   6.963
19018WAT      O57295   5.978   1.318   4.283
19018WAT     H157296   5.886   1.355   4.284
19018WAT     H257297   6.028   1.355   4.204
19019WAT      O57298   5.283   5.163   1.398
19019WAT     H157299   5.186   5.140   1.391
19019WAT     H257300   5.295   5.241   1.460
19020WAT      O57301   9.481   1.272   5.460
19020WAT     H157302   9.515   1.361   5.430
19020WAT     H257303   9.557   1.208   5.467
19021WAT      O57304   6.862   8.945   5.084
19021WAT     H157305   6.835   8.914   4.993
19021WAT     H257306   6.865   9.045   5.085
19022WAT      O57307   1.626   4.407   9.799
19022WAT     H157308   1.721   4.436   9.803
19022WAT     H257309   1.568   4.477   9.841
19023WAT      O57310   5.721   6.888   7.744
19023WAT     H157311   5.740   6.963   7.807
19023WAT     H257312   5.717   6.802   7.794
19024WAT      O57313   7.784   3.062   2.571
19024WAT     H157314   7.784   3.158   2.600
19024WAT     H257315   7.698   3.018   2.599
19025WAT      O57316   3.096   8.581   1.537
19025WAT     H157317   3.166   8.626   1.482
19025WAT     H257318   3.135   8.498   1.577
19026WAT      O57319   8.874   9.343   6.225
19026WAT     H157320   8.846   9.427   6.272
19026WAT     H257321   8.797   9.278   6.226
19027WAT      O57322   2.388   5.474   7.777
19027WAT     H157323   2.298   5.508   7.806
19027WAT     H257324   2.459   5.517   7.832
19028WAT      O57325   7.964   3.807   3.416
19028WAT     H157326   7.953   3.889   3.472
19028WAT     H257327   8.058   3.804   3.380
19029WAT      O57328   2.614   9.567   6.327
19029WAT     H157329   2.662   9.580   6.240
19029WAT     H257330   2.602   9.470   6.344
19030WAT      O57331   9.212   7.028   2.022
19030WAT     H157332   9.267   6.960   1.972
19030WAT     H257333   9.168   6.985   2.100
19031WAT      O57334   4.275   2.629   6.612
19031WAT     H157335   4.231   2.568   6.545
19031WAT     H257336   4.298   2.576   6.694
19032WAT      O57337   4.811   2.507   3.033
19032WAT     H157338   4.815   2.605   3.055
19032WAT     H257339   4.758   2.460   3.103
19033WAT      O57340   3.344   7.071   3.332
19033WAT     H157341   3.255   7.085   3.375
19033WAT     H257342   3.410   7.135   3.370
19034WAT      O57343   1.182   3.067   8.507
19034WAT     H157344   1.118   3.115   8.447
19034WAT     H257345   1.253   3.131   8.537
19035WAT      O57346   9.168   9.636   2.572
19035WAT     H157347   9.242   9.692   2.608
19035WAT     H257348   9.159   9.651   2.474
19036WAT      O57349   7.035   6.368   3.624
19036WAT     H157350   7.069   6.318   3.545
19036WAT     H257351   7.006   6.460   3.595
19037WAT      O57352   1.653   7.941   9.679
19037WAT     H157353   1.675   7.843   9.676
19037WAT     H257354   1.727   7.990   9.725
19038WAT      O57355   5.759   4.585   9.318
19038WAT     H157356   5.836   4.621   9.370
19038WAT     H257357   5.723   4.503   9.364
19039WAT      O57358   4.188   4.545   6.835
19039WAT     H157359   4.253   4.620   6.820
19039WAT     H257360   4.100   4.569   6.795
19040WAT      O57361   0.324   7.902   5.592
19040WAT     H157362   0.303   7.899   5.494
19040WAT     H257363   0.423   7.894   5.604
19041WAT      O57364   5.176   8.639   6.265
19041WAT     H157365   5.241   8.685   6.204
19041WAT     H257366   5.218   8.556   6.302
19042WAT      O57367   9.419   3.276   1.312
19042WAT     H157368   9.365   3.344   1.264
19042WAT     H257369   9.421   3.297   1.410
19043WAT      O57370   6.686   9.706   0.636
19043WAT     H157371   6.756   9.730   0.569
19043WAT     H257372   6.619   9.645   0.594
19044WAT      O57373   8.057   7.561   3.563
19044WAT     H157374   8.147   7.587   3.596
19044WAT     H257375   7.990   7.631   3.588
19045WAT      O57376   0.202   9.636   1.667
19045WAT     H157377   0.129   9.651   1.600
19045WAT     H257378   0.286   9.680   1.635
19046WAT      O57379   6.871   7.045   0.674
19046WAT     H157380   6.962   7.053   0.714
19046WAT     H257381   6.803   7.083   0.737
19047WAT      O57382   6.851   9.210   7.786
19047WAT     H157383   6.856   9.111   7.798
19047WAT     H257384   6.931   9.242   7.735
19048WAT      O57385   3.856   7.242   7.379
19048WAT     H157386   3.955   7.251   7.390
19048WAT     H257387   3.834   7.236   7.281
19049WAT      O57388   1.678   9.221   3.354
19049WAT     H157389   1.731   9.298   3.388
19049WAT     H257390   1.723   9.136   3.381
19050WAT      O57391   9.873   2.465   1.303
19050WAT     H157392   9.923   2.541   1.345
19050WAT     H257393   9.790   2.500   1.259
19051WAT      O57394   8.957   8.891   1.124
19051WAT     H157395   8.864   8.878   1.158
19051WAT     H257396   9.004   8.958   1.181
19052WAT      O57397   1.958   3.711   0.373
19052WAT     H157398   1.935   3.808   0.359
19052WAT     H257399   1.875   3.661   0.397
19053WAT      O57400   6.089   8.277   4.568
19053WAT     H157401   6.004   8.321   4.537
19053WAT     H257402   6.069   8.219   4.647
19054WAT      O57403   4.233   4.351   1.993
19054WAT     H157404   4.140   4.367   2.025
19054WAT     H257405   4.255   4.416   1.920
19055WAT      O57406   9.667   6.819   2.563
19055WAT     H157407   9.708   6.734   2.531
19055WAT     H257408   9.579   6.801   2.606
19056WAT      O57409   2.111   5.020   5.117
19056WAT     H157410   2.136   4.940   5.171
19056WAT     H257411   2.159   5.100   5.152
19057WAT      O57412   0.401   9.574   9.869
19057WAT     H157413   0.467   9.579   9.944
19057WAT     H257414   0.431   9.504   9.804
19058WAT      O57415   8.426   2.393   2.935
19058WAT     H157416   8.432   2.417   2.838
19058WAT     H257417   8.332   2.407   2.967
19059WAT      O57418   5.683   6.100   0.338
19059WAT     H157419   5.610   6.062   0.281
19059WAT     H257420   5.753   6.142   0.280
19060WAT      O57421   7.625   2.041   4.033
19060WAT     H157422   7.667   2.056   4.122
19060WAT     H257423   7.695   2.042   3.962
19061WAT      O57424   7.812   6.174   4.228
19061WAT     H157425   7.858   6.107   4.170
19061WAT     H257426   7.871   6.254   4.240
19062WAT      O57427   3.890   2.304   5.263
19062WAT     H157428   3.863   2.209   5.279
19062WAT     H257429   3.881   2.356   5.348
19063WAT      O57430   0.030   8.725   5.520
19063WAT     H157431   0.106   8.738   5.456
19063WAT     H257432   0.065   8.724   5.613
19064WAT      O57433   2.610   3.529   6.272
19064WAT     H157434   2.556   3.604   6.234
19064WAT     H257435   2.562   3.491   6.352
19065WAT      O57436   3.182   1.010   6.614
19065WAT     H157437   3.206   1.078   6.545
19065WAT     H257438   3.110   0.950   6.577
19066WAT      O57439   5.847   7.344   1.923
19066WAT     H157440   5.903   7.370   1.846
19066WAT     H257441   5.772   7.409   1.934
19067WAT      O57442   8.840   0.092   1.802
19067WAT     H157443   8.905   0.030   1.843
19067WAT     H257444   8.889   0.166   1.755
19068WAT      O57445   3.172   5.825   8.315
19068WAT     H157446   3.200   5.743   8.265
19068WAT     H257447   3.120   5.799   8.396
19069WAT      O57448   9.363   3.456   1.879
19069WAT     H157449   9.303   3.377   1.893
19069WAT     H257450   9.409   3.478   1.965
19070WAT      O57451   6.212   7.785   3.780
19070WAT     H157452   6.187   7.728   3.859
19070WAT     H257453   6.128   7.817   3.735
19071WAT      O57454   9.037   6.303   5.108
19071WAT     H157455   8.956   6.361   5.095
19071WAT     H257456   9.101   6.348   5.169
19072WAT      O57457   6.726   3.308   6.156
19072WAT     H157458   6.788   3.235   6.185
19072WAT     H257459   6.778   3.392   6.141
19073WAT      O57460   0.094   6.713   3.715
19073WAT     H157461   0.005   6.684   3.681
19073WAT     H257462   0.144   6.633   3.748
19074WAT      O57463   1.951   4.635   8.697
19074WAT     H157464   1.944   4.709   8.629
19074WAT     H257465   2.042   4.635   8.737
19075WAT      O57466   6.275   5.201   6.389
19075WAT     H157467   6.180   5.181   6.417
19075WAT     H257468   6.325   5.116   6.379
19076WAT      O57469   6.804   6.521   6.752
19076WAT     H157470   6.794   6.504   6.654
19076WAT     H257471   6.744   6.596   6.779
19077WAT      O57472   5.806   9.480   0.914
19077WAT     H157473   5.793   9.384   0.888
19077WAT     H257474   5.829   9.486   1.011
19078WAT      O57475   2.886   9.530   6.059
19078WAT     H157476   2.899   9.617   6.107
19078WAT     H257477   2.938   9.532   5.973
19079WAT      O57478   5.852   1.674   0.412
19079WAT     H157479   5.761   1.690   0.449
19079WAT     H257480   5.861   1.577   0.387
19080WAT      O57481   2.291   5.829   8.971
19080WAT     H157482   2.278   5.924   8.940
19080WAT     H257483   2.370   5.789   8.924
19081WAT      O57484   6.924   2.748   7.663
19081WAT     H157485   7.008   2.751   7.718
19081WAT     H257486   6.868   2.671   7.693
19082WAT      O57487   6.876   2.411   5.462
19082WAT     H157488   6.946   2.429   5.393
19082WAT     H257489   6.786   2.436   5.426
19083WAT      O57490   9.807   4.708   0.784
19083WAT     H157491   9.829   4.640   0.855
19083WAT     H257492   9.864   4.691   0.704
19084WAT      O57493   2.268   8.846   7.558
19084WAT     H157494   2.279   8.850   7.657
19084WAT     H257495   2.358   8.837   7.515
19085WAT      O57496   7.836   8.452   8.948
19085WAT     H157497   7.860   8.535   8.998
19085WAT     H257498   7.777   8.394   9.005
19086WAT      O57499   4.190   5.181   4.937
19086WAT     H157500   4.281   5.190   4.978
19086WAT     H257501   4.140   5.106   4.982
19087WAT      O57502   4.234   3.509   1.571
19087WAT     H157503   4.291   3.428   1.584
19087WAT     H257504   4.288   3.592   1.587
19088WAT      O57505   4.913   8.667   8.542
19088WAT     H157506   4.875   8.734   8.606
19088WAT     H257507   4.883   8.688   8.449
19089WAT      O57508   8.650   0.156   5.190
19089WAT     H157509   8.551   0.159   5.200
19089WAT     H257510   8.682   0.241   5.147
19090WAT      O57511   2.393   6.424   3.087
19090WAT     H157512   2.485   6.435   3.124
19090WAT     H257513   2.391   6.457   2.993
19091WAT      O57514   7.757   7.971   9.035
19091WAT     H157515   7.794   7.961   9.127
19091WAT     H257516   7.806   7.910   8.972
19092WAT      O57517   6.845   9.188   7.064
19092WAT     H157518   6.910   9.206   6.990
19092WAT     H257519   6.820   9.092   7.064
19093WAT      O57520   0.256   4.277   0.223
19093WAT     H157521   0.172   4.223   0.228
19093WAT     H257522   0.335   4.216   0.232
19094WAT      O57523   8.155   1.979   3.754
19094WAT     H157524   8.100   2.030   3.819
19094WAT     H257525   8.098   1.949   3.677
19095WAT      O57526   9.806   7.408   5.111
19095WAT     H157527   9.769   7.321   5.078
19095WAT     H257528   9.856   7.453   5.037
19096WAT      O57529   7.374   3.899   0.272
19096WAT     H157530   7.300   3.965   0.258
19096WAT     H257531   7.461   3.948   0.285
19097WAT      O57532   5.086   9.506   3.669
19097WAT     H157533   5.030   9.498   3.752
19097WAT     H257534   5.046   9.449   3.596
19098WAT      O57535   1.347   1.114   0.345
19098WAT     H157536   1.399   1.034   0.373
19098WAT     H257537   1.343   1.118   0.245
19099WAT      O57538   4.172   5.411   3.811
19099WAT     H157539   4.132   5.320   3.816
19099WAT     H257540   4.243   5.421   3.880
19100WAT      O57541   0.387   3.179   2.007
19100WAT     H157542   0.483   3.200   2.025
19100WAT     H257543   0.329   3.228   2.072
19101WAT      O57544   8.715   8.063   2.130
19101WAT     H157545   8.698   8.159   2.149
19101WAT     H257546   8.628   8.017   2.108
19102WAT      O57547   4.457   0.128   1.743
19102WAT     H157548   4.451   0.226   1.723
19102WAT     H257549   4.432   0.076   1.661
19103WAT      O57550   2.667   0.699   7.181
19103WAT     H157551   2.599   0.757   7.134
19103WAT     H257552   2.623   0.615   7.211
19104WAT      O57553   2.844   7.599   4.569
19104WAT     H157554   2.891   7.539   4.505
19104WAT     H257555   2.888   7.595   4.658
19105WAT      O57556   7.879   7.434   4.266
19105WAT     H157557   7.969   7.390   4.267
19105WAT     H257558   7.815   7.379   4.320
19106WAT      O57559   1.457   4.817   5.176
19106WAT     H157560   1.468   4.916   5.187
19106WAT     H257561   1.431   4.777   5.264
19107WAT      O57562   3.909   2.606   8.188
19107WAT     H157563   3.970   2.528   8.203
19107WAT     H257564   3.953   2.689   8.222
19108WAT      O57565   9.301   3.225   7.516
19108WAT     H157566   9.365   3.197   7.444
19108WAT     H257567   9.335   3.308   7.559
19109WAT      O57568   7.301   6.366   2.433
19109WAT     H157569   7.290   6.355   2.335
19109WAT     H257570   7.396   6.390   2.454
19110WAT      O57571   0.989   9.374   4.116
19110WAT     H157572   0.951   9.367   4.024
19110WAT     H257573   1.037   9.462   4.126
19111WAT      O57574   7.529   0.244   0.370
19111WAT     H157575   7.463   0.262   0.444
19111WAT     H257576   7.585   0.165   0.395
19112WAT      O57577   8.358   8.063   7.898
19112WAT     H157578   8.279   8.094   7.951
19112WAT     H257579   8.340   8.079   7.800
19113WAT      O57580   4.889   2.185   0.098
19113WAT     H157581   4.797   2.151   0.120
19113WAT     H257582   4.955   2.110   0.104
19114WAT      O57583   0.847   7.880   8.410
19114WAT     H157584   0.821   7.971   8.441
19114WAT     H257585   0.862   7.882   8.311
19115WAT      O57586   1.276   7.051   4.130
19115WAT     H157587   1.323   7.055   4.218
19115WAT     H257588   1.325   6.989   4.069
19116WAT      O57589   5.987   0.227   0.280
19116WAT     H157590   6.023   0.321   0.277
19116WAT     H257591   6.000   0.189   0.371
19117WAT      O57592   5.172   7.947   4.995
19117WAT     H157593   5.172   7.995   5.083
19117WAT     H257594   5.253   7.973   4.943
19118WAT      O57595   9.585   1.821   0.618
19118WAT     H157596   9.486   1.833   0.625
19118WAT     H257597   9.605   1.727   0.587
19119WAT      O57598   6.710   4.965   4.967
19119WAT     H157599   6.738   4.889   5.026
19119WAT     H257600   6.749   5.050   5.002
19120WAT      O57601   2.731   2.009   6.768
19120WAT     H157602   2.775   2.007   6.858
19120WAT     H257603   2.643   2.055   6.775
19121WAT      O57604   4.510   0.238   7.537
19121WAT     H157605   4.426   0.269   7.583
19121WAT     H257606   4.507   0.139   7.526
19122WAT      O57607   9.196   6.538   0.552
19122WAT     H157608   9.265   6.575   0.615
19122WAT     H257609   9.213   6.440   0.537
19123WAT      O57610   0.457   0.125   9.801
19123WAT     H157611   0.462   0.083   9.892
19123WAT     H257612   0.519   0.203   9.796
19124WAT      O57613   3.480   9.281   9.022
19124WAT     H157614   3.462   9.230   8.938
19124WAT     H257615   3.578   9.298   9.030
19125WAT      O57616   2.350   1.067   7.535
19125WAT     H157617   2.439   1.096   7.498
19125WAT     H257618   2.277   1.119   7.491
19126WAT      O57619   4.190   1.747   4.877
19126WAT     H157620   4.268   1.694   4.910
19126WAT     H257621   4.220   1.839   4.851
19127WAT      O57622   7.008   8.577   6.177
19127WAT     H157623   7.060   8.646   6.228
19127WAT     H257624   6.923   8.558   6.225
19128WAT      O57625   2.107   2.838   9.213
19128WAT     H157626   2.123   2.742   9.234
19128WAT     H257627   2.036   2.845   9.142
19129WAT      O57628   4.875   6.115   0.587
19129WAT     H157629   4.867   6.214   0.589
19129WAT     H257630   4.896   6.081   0.679
19130WAT      O57631   4.754   5.803   2.917
19130WAT     H157632   4.685   5.872   2.895
19130WAT     H257633   4.813   5.788   2.837
19131WAT      O57634   6.642   9.708   8.048
19131WAT     H157635   6.715   9.658   8.001
19131WAT     H257636   6.599   9.771   7.984
19132WAT      O57637   8.845   6.082   1.204
19132WAT     H157638   8.767   6.141   1.183
19132WAT     H257639   8.815   6.007   1.263
19133WAT      O57640   4.761   7.867   9.844
19133WAT     H157641   4.775   7.917   9.759
19133WAT     H257642   4.832   7.797   9.854
19134WAT      O57643   9.125   0.925   1.730
19134WAT     H157644   9.058   0.988   1.691
19134WAT     H257645   9.079   0.858   1.788
19135WAT      O57646   5.851   1.798   4.636
19135WAT     H157647   5.770   1.756   4.677
19135WAT     H257648   5.918   1.817   4.707
19136WAT      O57649   3.240   2.588   7.181
19136WAT     H157650   3.326   2.602   7.132
19136WAT     H257651   3.182   2.525   7.129
19137WAT      O57652   0.959   1.382   5.740
19137WAT     H157653   0.972   1.401   5.643
19137WAT     H257654   1.031   1.429   5.792
19138WAT      O57655   5.057   0.184   1.075
19138WAT     H157656   5.072   0.280   1.052
19138WAT     H257657   5.088   0.168   1.169
19139WAT      O57658   0.338   9.599   0.349
19139WAT     H157659   0.260   9.537   0.348
19139WAT     H257660   0.403   9.570   0.419
19140WAT      O57661   0.740   0.507   6.180
19140WAT     H157662   0.702   0.457   6.103
19140WAT     H257663   0.673   0.512   6.254
19141WAT      O57664   7.301   2.405   3.562
19141WAT     H157665   7.373   2.335   3.559
19141WAT     H257666   7.324   2.478   3.498
19142WAT      O57667   1.453   9.059   2.458
19142WAT     H157668   1.445   9.090   2.363
19142WAT     H257669   1.464   9.139   2.518
19143WAT      O57670   6.673   1.253   1.065
19143WAT     H157671   6.652   1.334   1.010
19143WAT     H257672   6.591   1.196   1.072
19144WAT      O57673   4.540   6.103   9.548
19144WAT     H157674   4.537   6.203   9.548
19144WAT     H257675   4.625   6.071   9.588
19145WAT      O57676   6.171   4.722   5.739
19145WAT     H157677   6.241   4.662   5.778
19145WAT     H257678   6.101   4.667   5.695
19146WAT      O57679   4.472   2.960   2.562
19146WAT     H157680   4.483   3.038   2.624
19146WAT     H257681   4.460   2.993   2.469
19147WAT      O57682   7.945   8.906   9.619
19147WAT     H157683   7.855   8.939   9.645
19147WAT     H257684   7.936   8.837   9.548
19148WAT      O57685   9.255   8.991   2.403
19148WAT     H157686   9.218   9.057   2.337
19148WAT     H257687   9.330   8.941   2.361
19149WAT      O57688   4.763   2.838   8.374
19149WAT     H157689   4.763   2.937   8.388
19149WAT     H257690   4.794   2.792   8.457
19150WAT      O57691   6.446   8.103   5.269
19150WAT     H157692   6.411   8.197   5.276
19150WAT     H257693   6.538   8.099   5.308
19151WAT      O57694   7.982   3.737   8.187
19151WAT     H157695   7.980   3.837   8.175
19151WAT     H257696   8.002   3.716   8.282
19152WAT      O57697   9.492   9.675   7.957
19152WAT     H157698   9.554   9.602   7.985
19152WAT     H257699   9.415   9.635   7.907
19153WAT      O57700   6.083   8.962   1.872
19153WAT     H157701   6.126   9.035   1.925
19153WAT     H257702   6.012   8.918   1.928
19154WAT      O57703   7.901   9.446   4.446
19154WAT     H157704   7.984   9.439   4.390
19154WAT     H257705   7.927   9.449   4.543
19155WAT      O57706   1.125   9.774   0.787
19155WAT     H157707   1.164   9.864   0.808
19155WAT     H257708   1.031   9.770   0.822
19156WAT      O57709   8.208   0.862   4.088
19156WAT     H157710   8.273   0.834   4.018
19156WAT     H257711   8.211   0.961   4.099
19157WAT      O57712   0.069   2.577   6.286
19157WAT     H157713   0.104   2.491   6.324
19157WAT     H257714   0.142   2.645   6.284
19158WAT      O57715   3.213   5.704   1.901
19158WAT     H157716   3.251   5.791   1.869
19158WAT     H257717   3.127   5.686   1.853
19159WAT      O57718   3.268   5.237   3.247
19159WAT     H157719   3.178   5.226   3.291
19159WAT     H257720   3.257   5.289   3.162
19160WAT      O57721   7.752   4.226   8.224
19160WAT     H157722   7.741   4.186   8.315
19160WAT     H257723   7.664   4.227   8.177
19161WAT      O57724   4.093   3.386   1.787
19161WAT     H157725   4.127   3.296   1.812
19161WAT     H257726   4.160   3.433   1.729
19162WAT      O57727   7.537   6.546   0.871
19162WAT     H157728   7.496   6.620   0.818
19162WAT     H257729   7.601   6.584   0.937
19163WAT      O57730   2.058   1.774   6.278
19163WAT     H157731   1.980   1.747   6.222
19163WAT     H257732   2.142   1.768   6.224
19164WAT      O57733   9.718   3.658   3.280
19164WAT     H157734   9.677   3.684   3.367
19164WAT     H257735   9.685   3.721   3.208
19165WAT      O57736   3.128   1.344   3.899
19165WAT     H157737   3.171   1.343   3.809
19165WAT     H257738   3.097   1.437   3.920
19166WAT      O57739   4.893   3.755   2.085
19166WAT     H157740   4.916   3.843   2.128
19166WAT     H257741   4.813   3.716   2.131
19167WAT      O57742   7.284   1.631   1.481
19167WAT     H157743   7.191   1.640   1.447
19167WAT     H257744   7.290   1.550   1.540
19168WAT      O57745   5.133   8.192   4.448
19168WAT     H157746   5.035   8.189   4.426
19168WAT     H257747   5.166   8.100   4.468
19169WAT      O57748   1.442   1.886   3.200
19169WAT     H157749   1.534   1.876   3.239
19169WAT     H257750   1.394   1.961   3.246
19170WAT      O57751   8.725   1.898   0.766
19170WAT     H157752   8.764   1.979   0.811
19170WAT     H257753   8.651   1.926   0.704
19171WAT      O57754   5.019   6.881   4.439
19171WAT     H157755   5.033   6.977   4.413
19171WAT     H257756   5.083   6.856   4.512
19172WAT      O57757   6.938   2.239   5.138
19172WAT     H157758   7.014   2.177   5.157
19172WAT     H257759   6.853   2.187   5.135
19173WAT      O57760   3.305   6.527   0.705
19173WAT     H157761   3.248   6.477   0.641
19173WAT     H257762   3.372   6.582   0.655
19174WAT      O57763   1.081   9.543   7.393
19174WAT     H157764   0.999   9.518   7.443
19174WAT     H257765   1.057   9.602   7.316
19175WAT      O57766   5.749   2.566   8.714
19175WAT     H157767   5.666   2.578   8.769
19175WAT     H257768   5.744   2.479   8.665
19176WAT      O57769   3.353   7.008   9.276
19176WAT     H157770   3.410   6.972   9.202
19176WAT     H257771   3.319   6.932   9.331
19177WAT      O57772   4.337   3.310   5.138
19177WAT     H157773   4.331   3.403   5.176
19177WAT     H257774   4.258   3.257   5.170
19178WAT      O57775   0.013   4.878   5.610
19178WAT     H157776   0.029   4.852   5.705
19178WAT     H257777  -0.067   4.938   5.604
19179WAT      O57778   1.640   0.630   4.368
19179WAT     H157779   1.736   0.617   4.343
19179WAT     H257780   1.621   0.581   4.453
19180WAT      O57781   9.524   7.704   3.900
19180WAT     H157782   9.538   7.734   3.806
19180WAT     H257783   9.477   7.776   3.951
19181WAT      O57784   7.431   2.982   7.112
19181WAT     H157785   7.494   2.987   7.189
19181WAT     H257786   7.450   2.899   7.059
19182WAT      O57787   0.545   8.177   6.609
19182WAT     H157788   0.615   8.121   6.653
19182WAT     H257789   0.529   8.143   6.515
19183WAT      O57790   4.498   8.681   1.751
19183WAT     H157791   4.474   8.740   1.828
19183WAT     H257792   4.503   8.736   1.668
19184WAT      O57793   3.055   6.090   8.507
19184WAT     H157794   3.023   6.140   8.426
19184WAT     H257795   3.147   6.056   8.491
19185WAT      O57796   6.495   5.166   9.709
19185WAT     H157797   6.485   5.257   9.749
19185WAT     H257798   6.522   5.174   9.613
19186WAT      O57799   5.112   0.111   6.026
19186WAT     H157800   5.172   0.035   6.003
19186WAT     H257801   5.093   0.165   5.944
19187WAT      O57802   9.132   6.332   1.834
19187WAT     H157803   9.208   6.277   1.801
19187WAT     H257804   9.059   6.332   1.766
19188WAT      O57805   7.582   5.676   0.662
19188WAT     H157806   7.539   5.602   0.714
19188WAT     H257807   7.618   5.639   0.576
19189WAT      O57808   6.877   3.178   6.720
19189WAT     H157809   6.814   3.180   6.797
19189WAT     H257810   6.876   3.267   6.674
19190WAT      O57811   6.773   6.090   7.125
19190WAT     H157812   6.774   6.186   7.096
19190WAT     H257813   6.812   6.033   7.053
19191WAT      O57814   8.968   5.620   4.298
19191WAT     H157815   8.976   5.530   4.339
19191WAT     H257816   9.002   5.617   4.204
19192WAT      O57817   7.379   5.196   3.242
19192WAT     H157818   7.285   5.162   3.249
19192WAT     H257819   7.442   5.118   3.237
19193WAT      O57820   6.100   0.140   5.928
19193WAT     H157821   6.158   0.214   5.894
19193WAT     H257822   6.054   0.096   5.851
19194WAT      O57823   5.471   0.622   8.581
19194WAT     H157824   5.529   0.609   8.500
19194WAT     H257825   5.473   0.540   8.637
19195WAT      O57826   9.038   2.407   6.267
19195WAT     H157827   9.037   2.501   6.301
19195WAT     H257828   9.104   2.354   6.319
19196WAT      O57829   5.599   3.803   1.566
19196WAT     H157830   5.679   3.746   1.581
19196WAT     H257831   5.523   3.747   1.532
19197WAT      O57832   9.359   6.251   6.688
19197WAT     H157833   9.260   6.267   6.691
19197WAT     H257834   9.379   6.163   6.730
19198WAT      O57835   1.277   8.045   7.245
19198WAT     H157836   1.237   7.982   7.311
19198WAT     H257837   1.329   8.116   7.292
19199WAT      O57838   0.168   0.643   5.691
19199WAT     H157839   0.190   0.608   5.782
19199WAT     H257840   0.228   0.720   5.669
19200WAT      O57841   6.183   9.484   6.523
19200WAT     H157842   6.135   9.396   6.518
19200WAT     H257843   6.263   9.475   6.582
19201WAT      O57844   2.952   4.642   6.040
19201WAT     H157845   2.856   4.638   6.068
19201WAT     H257846   3.010   4.637   6.120
19202WAT      O57847   0.741   5.864   0.544
19202WAT     H157848   0.645   5.860   0.572
19202WAT     H257849   0.784   5.776   0.563
19203WAT      O57850   8.997   0.486   4.627
19203WAT     H157851   9.022   0.487   4.724
19203WAT     H257852   8.954   0.573   4.603
19204WAT      O57853   6.777   0.793   7.654
19204WAT     H157854   6.862   0.810   7.604
19204WAT     H257855   6.782   0.834   7.745
19205WAT      O57856   9.047   3.142   7.244
19205WAT     H157857   9.049   3.223   7.302
19205WAT     H257858   8.969   3.084   7.270
19206WAT      O57859   6.649   1.298   9.600
19206WAT     H157860   6.652   1.369   9.670
19206WAT     H257861   6.695   1.216   9.634
19207WAT      O57862   4.151   8.440   7.620
19207WAT     H157863   4.163   8.462   7.717
19207WAT     H257864   4.076   8.375   7.609
19208WAT      O57865   5.461   1.373   2.138
19208WAT     H157866   5.394   1.316   2.091
19208WAT     H257867   5.550   1.364   2.093
19209WAT      O57868   7.129   9.295   3.666
19209WAT     H157869   7.202   9.257   3.610
19209WAT     H257870   7.158   9.382   3.705
19210WAT      O57871   3.021   5.068   4.260
19210WAT     H157872   3.115   5.073   4.227
19210WAT     H257873   3.008   5.135   4.333
19211WAT      O57874   4.897   1.144   9.170
19211WAT     H157875   4.950   1.079   9.117
19211WAT     H257876   4.947   1.167   9.254
19212WAT      O57877   4.580   1.248   5.010
19212WAT     H157878   4.649   1.186   5.047
19212WAT     H257879   4.489   1.210   5.029
19213WAT      O57880   5.758   6.719   9.887
19213WAT     H157881   5.825   6.707   9.961
19213WAT     H257882   5.776   6.805   9.840
19214WAT      O57883   6.300   4.029   4.532
19214WAT     H157884   6.313   3.986   4.442
19214WAT     H257885   6.332   4.124   4.528
19215WAT      O57886   7.866   6.962   6.789
19215WAT     H157887   7.865   6.998   6.696
19215WAT     H257888   7.908   7.028   6.851
19216WAT      O57889   6.234   1.697   2.167
19216WAT     H157890   6.288   1.629   2.216
19216WAT     H257891   6.153   1.654   2.128
19217WAT      O57892   1.893   1.554   4.577
19217WAT     H157893   1.977   1.530   4.625
19217WAT     H257894   1.830   1.599   4.640
19218WAT      O57895   7.340   5.451   4.065
19218WAT     H157896   7.241   5.443   4.078
19218WAT     H257897   7.372   5.379   4.004
19219WAT      O57898   0.832   6.881   2.134
19219WAT     H157899   0.902   6.878   2.063
19219WAT     H257900   0.754   6.825   2.106
19220WAT      O57901   6.144   7.410   5.709
19220WAT     H157902   6.203   7.485   5.740
19220WAT     H257903   6.198   7.347   5.653
19221WAT      O57904   1.383   5.850   7.250
19221WAT     H157905   1.382   5.754   7.225
19221WAT     H257906   1.384   5.859   7.349
19222WAT      O57907   1.648   2.972   2.642
19222WAT     H157908   1.656   3.065   2.677
19222WAT     H257909   1.653   2.907   2.718
19223WAT      O57910   8.818   7.951   4.919
19223WAT     H157911   8.760   8.012   4.973
19223WAT     H257912   8.913   7.959   4.950
19224WAT      O57913   9.035   5.964   0.230
19224WAT     H157914   8.958   5.951   0.167
19224WAT     H257915   9.001   5.966   0.324
19225WAT      O57916   1.192   7.306   5.499
19225WAT     H157917   1.139   7.222   5.489
19225WAT     H257918   1.152   7.378   5.442
19226WAT      O57919   5.718   2.049   0.480
19226WAT     H157920   5.717   1.996   0.396
19226WAT     H257921   5.729   2.146   0.458
19227WAT      O57922   4.895   3.060   7.053
19227WAT     H157923   4.812   3.100   7.092
19227WAT     H257924   4.889   3.064   6.953
19228WAT      O57925   2.504   7.895   2.684
19228WAT     H157926   2.503   7.831   2.607
19228WAT     H257927   2.593   7.940   2.690
19229WAT      O57928   2.412   5.659   1.043
19229WAT     H157929   2.352   5.738   1.059
19229WAT     H257930   2.489   5.687   0.986
19230WAT      O57931   4.493   6.916   5.998
19230WAT     H157932   4.494   6.822   6.033
19230WAT     H257933   4.408   6.960   6.024
19231WAT      O57934   5.411   0.878   7.969
19231WAT     H157935   5.435   0.825   7.888
19231WAT     H257936   5.347   0.950   7.944
19232WAT      O57937   1.797   5.407   3.996
19232WAT     H157938   1.775   5.440   3.904
19232WAT     H257939   1.795   5.307   3.997
19233WAT      O57940   3.806   8.795   2.097
19233WAT     H157941   3.714   8.792   2.135
19233WAT     H257942   3.819   8.881   2.047
19234WAT      O57943   6.126   0.684   4.882
19234WAT     H157944   6.065   0.607   4.863
19234WAT     H257945   6.198   0.688   4.813
19235WAT      O57946   4.305   0.199   5.675
19235WAT     H157947   4.366   0.268   5.637
19235WAT     H257948   4.276   0.226   5.766
19236WAT      O57949   3.506   1.924   8.691
19236WAT     H157950   3.584   1.986   8.679
19236WAT     H257951   3.448   1.957   8.766
19237WAT      O57952   1.822   6.193   0.236
19237WAT     H157953   1.849   6.099   0.218
19237WAT     H257954   1.723   6.202   0.226
19238WAT      O57955   6.167   1.784   9.468
19238WAT     H157956   6.128   1.751   9.382
19238WAT     H257957   6.124   1.736   9.544
19239WAT      O57958   1.724   1.376   8.640
19239WAT     H157959   1.763   1.377   8.548
19239WAT     H257960   1.631   1.412   8.637
19240WAT      O57961   5.000   6.126   3.800
19240WAT     H157962   5.051   6.210   3.819
19240WAT     H257963   4.961   6.090   3.884
19241WAT      O57964   6.739   4.705   1.133
19241WAT     H157965   6.757   4.612   1.166
19241WAT     H257966   6.722   4.765   1.212
19242WAT      O57967   3.121   8.500   6.087
19242WAT     H157968   3.101   8.594   6.116
19242WAT     H257969   3.209   8.472   6.126
19243WAT      O57970   9.187   2.785   7.764
19243WAT     H157971   9.194   2.883   7.744
19243WAT     H257972   9.278   2.744   7.759
19244WAT      O57973   3.722   8.755   2.912
19244WAT     H157974   3.711   8.663   2.874
19244WAT     H257975   3.813   8.790   2.889
19245WAT      O57976   6.531   3.591   9.563
19245WAT     H157977   6.546   3.687   9.538
19245WAT     H257978   6.446   3.558   9.521
19246WAT      O57979   7.222   9.259   0.055
19246WAT     H157980   7.141   9.271  -0.001
19246WAT     H257981   7.301   9.298   0.009
19247WAT      O57982   4.125   0.139   8.983
19247WAT     H157983   4.129   0.182   8.893
19247WAT     H257984   4.037   0.160   9.026
19248WAT      O57985   4.707   4.671   9.734
19248WAT     H157986   4.609   4.657   9.747
19248WAT     H257987   4.735   4.629   9.648
19249WAT      O57988   8.579   4.765   9.699
19249WAT     H157989   8.592   4.823   9.779
19249WAT     H257990   8.622   4.676   9.715
19250WAT      O57991   7.636   2.185   9.536
19250WAT     H157992   7.579   2.265   9.551
19250WAT     H257993   7.726   2.214   9.502
19251WAT      O57994   4.933   7.099   8.397
19251WAT     H157995   5.013   7.156   8.416
19251WAT     H257996   4.943   7.057   8.306
19252WAT      O57997   2.961   6.880   2.152
19252WAT     H157998   3.006   6.858   2.239
19252WAT     H257999   2.891   6.950   2.169
19253WAT      O58000   5.400   6.322   9.022
19253WAT     H158001   5.412   6.389   8.950
19253WAT     H258002   5.379   6.233   8.982
19254WAT      O58003   0.050   3.338   0.251
19254WAT     H158004   0.076   3.268   0.319
19254WAT     H258005  -0.050   3.340   0.242
19255WAT      O58006   7.265   6.615   3.928
19255WAT     H158007   7.179   6.666   3.936
19255WAT     H258008   7.294   6.584   4.018
19256WAT      O58009   6.209   8.020   9.858
19256WAT     H158010   6.121   7.978   9.837
19256WAT     H258011   6.195   8.117   9.879
19257WAT      O58012   3.910   3.616   5.276
19257WAT     H158013   3.879   3.658   5.191
19257WAT     H258014   3.841   3.629   5.347
19258WAT      O58015   2.981   6.233   1.657
19258WAT     H158016   3.022   6.320   1.687
19258WAT     H258017   3.034   6.195   1.582
19259WAT      O58018   8.313   0.952   5.604
19259WAT     H158019   8.246   0.883   5.631
19259WAT     H258020   8.395   0.943   5.660
19260WAT      O58021   1.467   3.228   8.237
19260WAT     H158022   1.544   3.208   8.177
19260WAT     H258023   1.417   3.143   8.256
19261WAT      O58024   1.584   4.509   2.299
19261WAT     H158025   1.549   4.462   2.219
19261WAT     H258026   1.655   4.575   2.271
19262WAT      O58027   8.122   0.176   2.711
19262WAT     H158028   8.075   0.107   2.767
19262WAT     H258029   8.208   0.203   2.756
19263WAT      O58030   0.901   5.714   5.261
19263WAT     H158031   0.841   5.639   5.236
19263WAT     H258032   0.961   5.686   5.336
19264WAT      O58033   6.842   8.766   0.117
19264WAT     H158034   6.828   8.848   0.173
19264WAT     H258035   6.933   8.729   0.133
19265WAT      O58036   2.420   9.318   2.591
19265WAT     H158037   2.458   9.395   2.539
19265WAT     H258038   2.460   9.317   2.683
19266WAT      O58039   8.019   8.886   3.614
19266WAT     H158040   7.989   8.825   3.687
19266WAT     H258041   8.058   8.833   3.539
19267WAT      O58042   3.434   9.025   7.403
19267WAT     H158043   3.363   9.075   7.452
19267WAT     H258044   3.448   9.067   7.313
19268WAT      O58045   3.446   7.147   9.624
19268WAT     H158046   3.440   7.220   9.692
19268WAT     H258047   3.514   7.080   9.654
19269WAT      O58048   0.753   7.511   6.659
19269WAT     H158049   0.754   7.586   6.593
19269WAT     H258050   0.758   7.424   6.610
19270WAT      O58051   4.463   5.301   0.428
19270WAT     H158052   4.479   5.253   0.514
19270WAT     H258053   4.438   5.235   0.357
19271WAT      O58054   7.364   4.081   8.383
19271WAT     H158055   7.312   4.011   8.334
19271WAT     H258056   7.397   4.043   8.470
19272WAT      O58057   2.292   6.883   0.354
19272WAT     H158058   2.261   6.973   0.385
19272WAT     H258059   2.356   6.894   0.278
19273WAT      O58060   4.144   0.756   3.651
19273WAT     H158061   4.111   0.841   3.692
19273WAT     H258062   4.110   0.678   3.704
19274WAT      O58063   8.584   8.725   1.082
19274WAT     H158064   8.602   8.818   1.114
19274WAT     H258065   8.633   8.659   1.139
19275WAT      O58066   2.155   7.374   7.576
19275WAT     H158067   2.128   7.460   7.532
19275WAT     H258068   2.111   7.368   7.666
19276WAT      O58069   9.707   6.521   4.707
19276WAT     H158070   9.791   6.511   4.655
19276WAT     H258071   9.687   6.618   4.719
19277WAT      O58072   9.530   4.905   1.717
19277WAT     H158073   9.433   4.928   1.703
19277WAT     H258074   9.557   4.929   1.810
19278WAT      O58075   6.619   8.643   8.109
19278WAT     H158076   6.629   8.550   8.075
19278WAT     H258077   6.639   8.645   8.207
19279WAT      O58078   9.681   4.947   6.001
19279WAT     H158079   9.683   4.983   5.908
19279WAT     H258080   9.717   4.854   6.001
19280WAT      O58081   3.281   0.550   5.509
19280WAT     H158082   3.302   0.646   5.525
19280WAT     H258083   3.356   0.508   5.457
19281WAT      O58084   8.034   9.775   0.658
19281WAT     H158085   8.084   9.724   0.728
19281WAT     H258086   8.095   9.841   0.615
19282WAT      O58087   6.403   2.556   0.452
19282WAT     H158088   6.424   2.462   0.423
19282WAT     H258089   6.444   2.621   0.388
19283WAT      O58090   8.637   9.754   0.261
19283WAT     H158091   8.552   9.701   0.257
19283WAT     H258092   8.712   9.694   0.287
19284WAT      O58093   0.720   8.025   0.271
19284WAT     H158094   0.717   8.083   0.352
19284WAT     H258095   0.672   7.939   0.289
19285WAT      O58096   1.219   6.187   0.456
19285WAT     H158097   1.176   6.156   0.540
19285WAT     H258098   1.243   6.284   0.464
19286WAT      O58099   6.066   2.011   1.767
19286WAT     H158100   6.127   2.017   1.689
19286WAT     H258101   6.048   2.103   1.803
19287WAT      O58102   6.574   3.069   9.699
19287WAT     H158103   6.623   3.026   9.623
19287WAT     H258104   6.574   3.168   9.685
19288WAT      O58105   7.647   6.467   7.493
19288WAT     H158106   7.654   6.383   7.547
19288WAT     H258107   7.725   6.526   7.513
19289WAT      O58108   4.250   7.873   1.970
19289WAT     H158109   4.240   7.887   1.871
19289WAT     H258110   4.324   7.808   1.988
19290WAT      O58111   9.487   1.110   6.013
19290WAT     H158112   9.584   1.129   5.998
19290WAT     H258113   9.432   1.169   5.954
19291WAT      O58114   1.856   7.134   3.408
19291WAT     H158115   1.786   7.201   3.383
19291WAT     H258116   1.825   7.043   3.381
19292WAT      O58117   4.052   1.075   8.733
19292WAT     H158118   4.083   1.150   8.790
19292WAT     H258119   4.101   1.077   8.646
19293WAT      O58120   2.228   0.290   1.479
19293WAT     H158121   2.221   0.234   1.562
19293WAT     H258122   2.155   0.357   1.478
19294WAT      O58123   3.896   3.217   1.612
19294WAT     H158124   3.925   3.308   1.641
19294WAT     H258125   3.887   3.216   1.512
19295WAT      O58126   5.553   3.781   6.167
19295WAT     H158127   5.457   3.805   6.182
19295WAT     H258128   5.595   3.849   6.108
19296WAT      O58129   9.819   8.540   8.464
19296WAT     H158130   9.721   8.552   8.446
19296WAT     H258131   9.830   8.487   8.549
19297WAT      O58132   6.084   6.449   9.260
19297WAT     H158133   6.162   6.502   9.227
19297WAT     H258134   6.063   6.474   9.354
19298WAT      O58135   6.153   7.691   8.796
19298WAT     H158136   6.127   7.677   8.891
19298WAT     H258137   6.089   7.641   8.736
19299WAT      O58138   8.406   9.039   4.804
19299WAT     H158139   8.320   9.002   4.839
19299WAT     H258140   8.476   8.967   4.805
19300WAT      O58141   2.441   3.496   0.090
19300WAT     H158142   2.448   3.465   0.185
19300WAT     H258143   2.379   3.435   0.040
19301WAT      O58144   3.337   6.571   9.708
19301WAT     H158145   3.290   6.633   9.772
19301WAT     H258146   3.365   6.489   9.757
19302WAT      O58147   3.181   1.102   4.597
19302WAT     H158148   3.240   1.095   4.516
19302WAT     H258149   3.182   1.196   4.631
19303WAT      O58150   3.297   0.043   5.603
19303WAT     H158151   3.248   0.096   5.673
19303WAT     H258152   3.237   0.029   5.524
19304WAT      O58153   7.508   2.932   3.286
19304WAT     H158154   7.502   2.972   3.195
19304WAT     H258155   7.417   2.911   3.320
19305WAT      O58156   6.228   4.047   0.225
19305WAT     H158157   6.303   4.006   0.277
19305WAT     H258158   6.250   4.143   0.206
19306WAT      O58159   8.097   3.248   1.570
19306WAT     H158160   8.120   3.162   1.524
19306WAT     H258161   8.019   3.233   1.631
19307WAT      O58162   8.160   6.400   1.815
19307WAT     H158163   8.148   6.304   1.840
19307WAT     H258164   8.216   6.446   1.884
19308WAT      O58165   8.276   8.217   6.272
19308WAT     H158166   8.286   8.230   6.371
19308WAT     H258167   8.361   8.181   6.234
19309WAT      O58168   7.480   9.513   4.506
19309WAT     H158169   7.445   9.602   4.477
19309WAT     H258170   7.536   9.524   4.588
19310WAT      O58171   7.610   0.766   4.242
19310WAT     H158172   7.648   0.858   4.241
19310WAT     H258173   7.524   0.765   4.191
19311WAT      O58174   3.471   3.591   4.115
19311WAT     H158175   3.509   3.576   4.024
19311WAT     H258176   3.538   3.565   4.184
19312WAT      O58177   7.761   0.272   1.031
19312WAT     H158178   7.848   0.276   0.983
19312WAT     H258179   7.749   0.356   1.085
19313WAT      O58180   6.072   4.022   2.096
19313WAT     H158181   6.031   4.106   2.060
19313WAT     H258182   6.161   4.007   2.053
19314WAT      O58183   6.219   7.779   5.737
19314WAT     H158184   6.165   7.861   5.721
19314WAT     H258185   6.235   7.732   5.651
19315WAT      O58186   0.663   7.688   4.048
19315WAT     H158187   0.614   7.694   3.961
19315WAT     H258188   0.761   7.704   4.033
19316WAT      O58189   1.010   1.989   7.541
19316WAT     H158190   1.060   1.970   7.626
19316WAT     H258191   0.931   2.046   7.561
19317WAT      O58192   9.129   0.773   0.621
19317WAT     H158193   9.159   0.785   0.527
19317WAT     H258194   9.203   0.730   0.674
19318WAT      O58195   2.935   5.723   8.801
19318WAT     H158196   2.929   5.799   8.865
19318WAT     H258197   3.030   5.692   8.794
19319WAT      O58198   7.015   8.991   2.559
19319WAT     H158199   6.948   9.064   2.543
19319WAT     H258200   7.042   8.951   2.472
19320WAT      O58201   5.565   2.764   4.895
19320WAT     H158202   5.621   2.738   4.973
19320WAT     H258203   5.600   2.720   4.812
19321WAT      O58204   4.954   4.397   1.194
19321WAT     H158205   4.863   4.394   1.234
19321WAT     H258206   5.023   4.374   1.263
19322WAT      O58207   5.464   5.884   8.983
19322WAT     H158208   5.399   5.961   8.988
19322WAT     H258209   5.553   5.918   8.952
19323WAT      O58210   2.739   3.809   7.230
19323WAT     H158211   2.651   3.856   7.236
19323WAT     H258212   2.779   3.800   7.322
19324WAT      O58213   3.747   3.009   1.082
19324WAT     H158214   3.765   2.913   1.100
19324WAT     H258215   3.807   3.042   1.009
19325WAT      O58216   3.953   1.394   2.420
19325WAT     H158217   3.934   1.296   2.425
19325WAT     H258218   4.012   1.421   2.496
19326WAT      O58219   8.808   5.429   5.927
19326WAT     H158220   8.714   5.402   5.945
19326WAT     H258221   8.817   5.459   5.832
19327WAT      O58222   6.038   6.665   3.484
19327WAT     H158223   5.998   6.757   3.481
19327WAT     H258224   6.048   6.636   3.579
19328WAT      O58225   6.656   6.411   0.295
19328WAT     H158226   6.639   6.478   0.367
19328WAT     H258227   6.578   6.348   0.289
19329WAT      O58228   8.313   1.853   5.252
19329WAT     H158229   8.331   1.913   5.330
19329WAT     H258230   8.218   1.820   5.257
19330WAT      O58231   0.018   1.894   3.580
19330WAT     H158232   0.000   1.969   3.516
19330WAT     H258233  -0.046   1.901   3.657
19331WAT      O58234   7.466   1.725   1.239
19331WAT     H158235   7.427   1.719   1.331
19331WAT     H258236   7.410   1.673   1.175
19332WAT      O58237   3.894   8.587   0.041
19332WAT     H158238   3.964   8.628  -0.017
19332WAT     H258239   3.838   8.525  -0.013
19333WAT      O58240   3.700   8.036   6.600
19333WAT     H158241   3.680   8.079   6.688
19333WAT     H258242   3.796   8.008   6.597
19334WAT      O58243   3.151   3.481   6.038
19334WAT     H158244   3.083   3.411   6.018
19334WAT     H258245   3.234   3.462   5.986
19335WAT      O58246   2.798   0.688   8.148
19335WAT     H158247   2.798   0.592   8.177
19335WAT     H258248   2.882   0.707   8.097
19336WAT      O58249   0.609   4.632   2.780
19336WAT     H158250   0.525   4.581   2.796
19336WAT     H258251   0.644   4.667   2.867
19337WAT      O58252   4.267   5.077   1.278
19337WAT     H158253   4.194   5.009   1.288
19337WAT     H258254   4.347   5.034   1.237
19338WAT      O58255   0.343   5.550   7.996
19338WAT     H158256   0.335   5.647   8.017
19338WAT     H258257   0.421   5.535   7.935
19339WAT      O58258   5.071   1.865   9.209
19339WAT     H158259   5.013   1.946   9.204
19339WAT     H258260   5.154   1.886   9.261
19340WAT      O58261   6.672   5.244   7.049
19340WAT     H158262   6.592   5.273   7.102
19340WAT     H258263   6.658   5.151   7.015
19341WAT      O58264   1.489   2.792   8.834
19341WAT     H158265   1.530   2.733   8.903
19341WAT     H258266   1.405   2.750   8.800
19342WAT      O58267   8.573   8.997   8.921
19342WAT     H158268   8.552   8.921   8.860
19342WAT     H258269   8.554   8.970   9.015
19343WAT      O58270   1.242   4.978   2.546
19343WAT     H158271   1.276   5.043   2.613
19343WAT     H258272   1.289   4.890   2.557
19344WAT      O58273   5.112   5.621   6.427
19344WAT     H158274   5.095   5.682   6.348
19344WAT     H258275   5.038   5.554   6.434
19345WAT      O58276   1.154   3.865   7.317
19345WAT     H158277   1.202   3.778   7.301
19345WAT     H258278   1.214   3.927   7.367
19346WAT      O58279   4.499   7.077   7.083
19346WAT     H158280   4.533   7.135   7.009
19346WAT     H258281   4.405   7.101   7.105
19347WAT      O58282   9.661   2.919   9.651
19347WAT     H158283   9.644   2.879   9.561
19347WAT     H258284   9.658   2.847   9.720
19348WAT      O58285   5.068   4.531   2.000
19348WAT     H158286   5.038   4.459   1.937
19348WAT     H258287   5.085   4.615   1.948
19349WAT      O58288   8.788   5.725   1.084
19349WAT     H158289   8.766   5.781   1.004
19349WAT     H258290   8.716   5.658   1.099
19350WAT      O58291   1.277   1.834   0.114
19350WAT     H158292   1.348   1.804   0.178
19350WAT     H258293   1.187   1.813   0.152
19351WAT      O58294   1.571   6.004   7.127
19351WAT     H158295   1.621   5.940   7.069
19351WAT     H258296   1.495   5.957   7.171
19352WAT      O58297   6.806   8.214   3.343
19352WAT     H158298   6.778   8.278   3.271
19352WAT     H258299   6.795   8.258   3.432
19353WAT      O58300   4.995   4.202   3.588
19353WAT     H158301   5.008   4.206   3.687
19353WAT     H258302   4.897   4.202   3.567
19354WAT      O58303   3.506   9.344   6.720
19354WAT     H158304   3.509   9.287   6.638
19354WAT     H258305   3.517   9.287   6.801
19355WAT      O58306   6.126   4.789   4.461
19355WAT     H158307   6.213   4.779   4.412
19355WAT     H258308   6.060   4.723   4.426
19356WAT      O58309   6.266   2.499   5.803
19356WAT     H158310   6.327   2.436   5.851
19356WAT     H258311   6.258   2.585   5.854
19357WAT      O58312   8.571   7.361   3.739
19357WAT     H158313   8.621   7.275   3.733
19357WAT     H258314   8.633   7.435   3.765
19358WAT      O58315   9.015   2.069   7.801
19358WAT     H158316   9.007   2.143   7.734
19358WAT     H258317   8.929   2.060   7.851
19359WAT      O58318   2.048   8.026   0.662
19359WAT     H158319   1.994   8.074   0.730
19359WAT     H258320   2.019   8.054   0.570
19360WAT      O58321   7.475   8.027   6.854
19360WAT     H158322   7.460   7.929   6.847
19360WAT     H258323   7.494   8.065   6.763
19361WAT      O58324   8.478   4.874   1.536
19361WAT     H158325   8.562   4.831   1.567
19361WAT     H258326   8.402   4.809   1.542
19362WAT      O58327   8.702   8.576   9.248
19362WAT     H158328   8.647   8.552   9.328
19362WAT     H258329   8.712   8.497   9.188
19363WAT      O58330   5.100   6.014   9.786
19363WAT     H158331   5.022   6.074   9.767
19363WAT     H258332   5.067   5.921   9.803
19364WAT      O58333   4.444   7.683   3.210
19364WAT     H158334   4.415   7.625   3.134
19364WAT     H258335   4.445   7.629   3.295
19365WAT      O58336   5.789   7.496   9.782
19365WAT     H158337   5.734   7.568   9.823
19365WAT     H258338   5.881   7.498   9.820
19366WAT      O58339   4.981   4.596   7.484
19366WAT     H158340   4.951   4.562   7.395
19366WAT     H258341   5.010   4.692   7.476
19367WAT      O58342   0.401   3.260   9.861
19367WAT     H158343   0.405   3.173   9.911
19367WAT     H258344   0.305   3.288   9.852
19368WAT      O58345   1.034   2.912   9.395
19368WAT     H158346   1.015   3.010   9.391
19368WAT     H258347   0.969   2.869   9.457
19369WAT      O58348   0.796   5.471   0.776
19369WAT     H158349   0.888   5.444   0.803
19369WAT     H258350   0.754   5.398   0.722
19370WAT      O58351   9.645   2.012   7.621
19370WAT     H158352   9.576   1.955   7.576
19370WAT     H258353   9.600   2.078   7.680
19371WAT      O58354   4.548   1.605   2.372
19371WAT     H158355   4.512   1.677   2.314
19371WAT     H258356   4.561   1.522   2.319
19372WAT      O58357   2.548   1.802   1.269
19372WAT     H158358   2.530   1.783   1.172
19372WAT     H258359   2.491   1.743   1.326
19373WAT      O58360   6.952   7.022   4.650
19373WAT     H158361   7.007   7.103   4.668
19373WAT     H258362   7.011   6.941   4.648
19374WAT      O58363   2.973   1.844   2.150
19374WAT     H158364   3.037   1.841   2.073
19374WAT     H258365   2.985   1.930   2.200
19375WAT      O58366   5.452   8.090   7.135
19375WAT     H158367   5.446   8.038   7.220
19375WAT     H258368   5.373   8.070   7.077
19376WAT      O58369   9.153   3.695   1.193
19376WAT     H158370   9.076   3.675   1.133
19376WAT     H258371   9.208   3.769   1.155
19377WAT      O58372   0.394   2.006   1.828
19377WAT     H158373   0.365   1.930   1.769
19377WAT     H258374   0.398   2.090   1.774
19378WAT      O58375   8.617   8.437   5.175
19378WAT     H158376   8.546   8.377   5.212
19378WAT     H258377   8.706   8.392   5.182
19379WAT      O58378   9.503   8.256   4.933
19379WAT     H158379   9.598   8.286   4.924
19379WAT     H258380   9.443   8.320   4.884
19380WAT      O58381   4.949   5.790   5.711
19380WAT     H158382   4.856   5.817   5.734
19380WAT     H258383   4.970   5.702   5.754
19381WAT      O58384   1.161   4.603   9.817
19381WAT     H158385   1.127   4.644   9.902
19381WAT     H258386   1.084   4.582   9.757
19382WAT      O58387   7.123   4.950   5.734
19382WAT     H158388   7.223   4.943   5.729
19382WAT     H258389   7.098   5.019   5.801
19383WAT      O58390   2.783   7.000   4.077
19383WAT     H158391   2.767   7.073   4.012
19383WAT     H258392   2.859   7.024   4.137
19384WAT      O58393   7.544   4.839   2.805
19384WAT     H158394   7.624   4.824   2.746
19384WAT     H258395   7.513   4.751   2.841
19385WAT      O58396   7.316   8.609   8.827
19385WAT     H158397   7.313   8.626   8.729
19385WAT     H258398   7.327   8.511   8.844
19386WAT      O58399   9.638   6.833   0.928
19386WAT     H158400   9.724   6.820   0.879
19386WAT     H258401   9.563   6.843   0.863
19387WAT      O58402   0.954   2.922   5.614
19387WAT     H158403   0.906   2.977   5.546
19387WAT     H258404   0.962   2.827   5.581
19388WAT      O58405   7.443   6.108   1.782
19388WAT     H158406   7.354   6.100   1.737
19388WAT     H258407   7.515   6.093   1.714
19389WAT      O58408   0.083   1.544   3.949
19389WAT     H158409  -0.007   1.554   3.908
19389WAT     H258410   0.130   1.633   3.950
19390WAT      O58411   0.588   4.123   0.172
19390WAT     H158412   0.544   4.091   0.256
19390WAT     H258413   0.641   4.048   0.132
19391WAT      O58414   6.536   0.204   2.438
19391WAT     H158415   6.502   0.118   2.476
19391WAT     H258416   6.576   0.259   2.512
19392WAT      O58417   2.240   1.784   3.407
19392WAT     H158418   2.187   1.820   3.484
19392WAT     H258419   2.251   1.685   3.418
19393WAT      O58420   9.458   4.721   4.298
19393WAT     H158421   9.477   4.647   4.362
19393WAT     H258422   9.455   4.808   4.347
19394WAT      O58423   8.340   8.268   8.318
19394WAT     H158424   8.361   8.177   8.282
19394WAT     H258425   8.278   8.315   8.255
19395WAT      O58426   3.053   3.710   3.378
19395WAT     H158427   3.033   3.806   3.396
19395WAT     H258428   3.002   3.679   3.298
19396WAT      O58429   4.188   7.301   5.080
19396WAT     H158430   4.266   7.274   5.024
19396WAT     H258431   4.195   7.257   5.170
19397WAT      O58432   5.869   0.677   6.278
19397WAT     H158433   5.808   0.756   6.271
19397WAT     H258434   5.829   0.600   6.229
19398WAT      O58435   2.849   4.246   5.335
19398WAT     H158436   2.926   4.302   5.368
19398WAT     H258437   2.763   4.283   5.369
19399WAT      O58438   7.738   7.119   7.845
19399WAT     H158439   7.833   7.095   7.864
19399WAT     H258440   7.710   7.195   7.903
19400WAT      O58441   5.783   9.686   9.435
19400WAT     H158442   5.883   9.673   9.437
19400WAT     H258443   5.744   9.628   9.364
19401WAT      O58444   0.014   1.784   2.669
19401WAT     H158445  -0.011   1.862   2.727
19401WAT     H258446   0.055   1.712   2.725
19402WAT      O58447   1.008   5.476   8.197
19402WAT     H158448   1.103   5.447   8.206
19402WAT     H258449   0.949   5.396   8.189
19403WAT      O58450   1.844   0.681   0.072
19403WAT     H158451   1.912   0.752   0.054
19403WAT     H258452   1.891   0.597   0.099
19404WAT      O58453   2.088   0.890   8.958
19404WAT     H158454   2.160   0.924   9.018
19404WAT     H258455   2.006   0.947   8.968
19405WAT      O58456   9.021   4.915   5.021
19405WAT     H158457   8.939   4.924   5.077
19405WAT     H258458   8.999   4.864   4.938
19406WAT      O58459   2.784   2.279   3.877
19406WAT     H158460   2.840   2.249   3.954
19406WAT     H258461   2.758   2.375   3.890
19407WAT      O58462   4.171   5.551   1.181
19407WAT     H158463   4.092   5.555   1.242
19407WAT     H258464   4.192   5.455   1.160
19408WAT      O58465   4.068   7.867   4.244
19408WAT     H158466   3.970   7.868   4.222
19408WAT     H258467   4.120   7.905   4.168
19409WAT      O58468   3.244   9.299   5.838
19409WAT     H158469   3.214   9.389   5.871
19409WAT     H258470   3.340   9.304   5.813
19410WAT      O58471   3.003   6.804   3.774
19410WAT     H158472   2.993   6.839   3.681
19410WAT     H258473   3.095   6.823   3.807
19411WAT      O58474   3.434   8.226   1.336
19411WAT     H158475   3.511   8.168   1.360
19411WAT     H258476   3.355   8.204   1.393
19412WAT      O58477   0.714   7.614   0.082
19412WAT     H158478   0.760   7.635  -0.005
19412WAT     H258479   0.731   7.519   0.107
19413WAT      O58480   5.247   3.246   7.710
19413WAT     H158481   5.340   3.234   7.676
19413WAT     H258482   5.201   3.318   7.657
19414WAT      O58483   5.464   8.058   5.204
19414WAT     H158484   5.374   8.096   5.182
19414WAT     H258485   5.524   8.130   5.238
19415WAT      O58486   0.914   7.784   2.391
19415WAT     H158487   0.933   7.817   2.298
19415WAT     H258488   0.816   7.792   2.409
19416WAT      O58489   2.513   7.790   1.271
19416WAT     H158490   2.501   7.823   1.365
19416WAT     H258491   2.459   7.707   1.258
19417WAT      O58492   3.526   2.090   7.727
19417WAT     H158493   3.565   2.145   7.653
19417WAT     H258494   3.429   2.075   7.709
19418WAT      O58495   9.672   3.592   0.948
19418WAT     H158496   9.735   3.566   0.875
19418WAT     H258497   9.648   3.511   1.002
19419WAT      O58498   8.743   1.989   2.804
19419WAT     H158499   8.829   1.997   2.854
19419WAT     H258500   8.738   2.060   2.734
19420WAT      O58501   0.376   2.033   9.185
19420WAT     H158502   0.447   2.099   9.206
19420WAT     H258503   0.414   1.959   9.129
19421WAT      O58504   3.045   1.116   5.131
19421WAT     H158505   3.120   1.181   5.118
19421WAT     H258506   3.060   1.063   5.215
19422WAT      O58507   8.181   3.779   2.321
19422WAT     H158508   8.265   3.803   2.272
19422WAT     H258509   8.205   3.751   2.414
19423WAT      O58510   5.866   3.208   3.519
19423WAT     H158511   5.923   3.176   3.595
19423WAT     H258512   5.813   3.288   3.548
19424WAT      O58513   2.530   6.822   8.955
19424WAT     H158514   2.508   6.769   8.874
19424WAT     H258515   2.452   6.819   9.018
19425WAT      O58516   6.573   1.871   6.488
19425WAT     H158517   6.479   1.865   6.454
19425WAT     H258518   6.576   1.937   6.564
19426WAT      O58519   0.299   1.315   8.362
19426WAT     H158520   0.207   1.341   8.333
19426WAT     H258521   0.297   1.285   8.457
19427WAT      O58522   4.056   6.404   1.651
19427WAT     H158523   4.025   6.309   1.658
19427WAT     H258524   3.981   6.466   1.675
19428WAT      O58525   9.293   0.397   3.780
19428WAT     H158526   9.264   0.396   3.684
19428WAT     H258527   9.366   0.330   3.794
19429WAT      O58528   2.171   1.846   9.089
19429WAT     H158529   2.265   1.880   9.081
19429WAT     H258530   2.174   1.749   9.111
19430WAT      O58531   1.176   7.435   7.565
19430WAT     H158532   1.265   7.421   7.609
19430WAT     H258533   1.104   7.396   7.623
19431WAT      O58534   6.093   9.759   3.781
19431WAT     H158535   6.147   9.789   3.703
19431WAT     H258536   6.150   9.760   3.863
19432WAT      O58537   1.102   3.793   6.599
19432WAT     H158538   1.201   3.806   6.591
19432WAT     H258539   1.077   3.705   6.558
19433WAT      O58540   7.096   5.164   0.065
19433WAT     H158541   7.023   5.221   0.102
19433WAT     H258542   7.061   5.071   0.050
19434WAT      O58543   6.200   0.321   8.514
19434WAT     H158544   6.188   0.286   8.421
19434WAT     H258545   6.112   0.323   8.560
19435WAT      O58546   9.383   1.832   8.212
19435WAT     H158547   9.440   1.894   8.267
19435WAT     H258548   9.295   1.819   8.257
19436WAT      O58549   1.071   9.360   5.640
19436WAT     H158550   1.006   9.398   5.574
19436WAT     H258551   1.132   9.432   5.671
19437WAT      O58552   1.838   9.601   4.283
19437WAT     H158553   1.738   9.603   4.276
19437WAT     H258554   1.878   9.592   4.192
19438WAT      O58555   3.886   1.315   4.661
19438WAT     H158556   3.978   1.325   4.625
19438WAT     H258557   3.890   1.288   4.757
19439WAT      O58558   7.120   6.354   4.317
19439WAT     H158559   7.044   6.395   4.267
19439WAT     H258560   7.189   6.321   4.252
19440WAT      O58561   6.981   2.793   8.854
19440WAT     H158562   7.002   2.756   8.763
19440WAT     H258563   7.012   2.729   8.924
19441WAT      O58564   7.911   4.649   5.678
19441WAT     H158565   7.976   4.724   5.674
19441WAT     H258566   7.951   4.567   5.636
19442WAT      O58567   5.421   1.288   7.011
19442WAT     H158568   5.390   1.375   6.971
19442WAT     H258569   5.351   1.218   6.998
19443WAT      O58570   1.733   4.242   0.327
19443WAT     H158571   1.806   4.227   0.394
19443WAT     H258572   1.749   4.327   0.278
19444WAT      O58573   6.482   8.977   0.044
19444WAT     H158574   6.459   8.881   0.028
19444WAT     H258575   6.517   9.017  -0.041
19445WAT      O58576   3.103   2.829   7.188
19445WAT     H158577   3.105   2.729   7.183
19445WAT     H258578   3.162   2.860   7.262
19446WAT      O58579   9.263   4.729   8.424
19446WAT     H158580   9.243   4.818   8.383
19446WAT     H258581   9.362   4.715   8.427
19447WAT      O58582   0.282   7.281   5.162
19447WAT     H158583   0.327   7.274   5.251
19447WAT     H258584   0.301   7.370   5.122
19448WAT      O58585   1.353   9.772   3.188
19448WAT     H158586   1.266   9.769   3.140
19448WAT     H258587   1.390   9.865   3.185
19449WAT      O58588   8.405   3.837   8.229
19449WAT     H158589   8.320   3.812   8.275
19449WAT     H258590   8.467   3.759   8.230
19450WAT      O58591   3.633   7.824   1.779
19450WAT     H158592   3.587   7.862   1.859
19450WAT     H258593   3.713   7.881   1.756
19451WAT      O58594   3.388   2.195   2.539
19451WAT     H158595   3.298   2.212   2.580
19451WAT     H258596   3.411   2.270   2.477
19452WAT      O58597   0.325   9.488   5.975
19452WAT     H158598   0.243   9.448   6.016
19452WAT     H258599   0.386   9.416   5.945
19453WAT      O58600   9.433   8.318   8.432
19453WAT     H158601   9.462   8.223   8.429
19453WAT     H258602   9.512   8.377   8.451
19454WAT      O58603   1.904   8.618   1.463
19454WAT     H158604   1.844   8.662   1.531
19454WAT     H258605   1.862   8.532   1.433
19455WAT      O58606   4.249   2.323   0.502
19455WAT     H158607   4.251   2.276   0.591
19455WAT     H258608   4.155   2.346   0.479
19456WAT      O58609   4.407   0.305   0.650
19456WAT     H158610   4.453   0.217   0.657
19456WAT     H258611   4.452   0.361   0.579
19457WAT      O58612   7.252   4.040   6.974
19457WAT     H158613   7.340   4.072   7.011
19457WAT     H258614   7.217   3.967   7.031
19458WAT      O58615   4.367   3.771   6.689
19458WAT     H158616   4.367   3.855   6.636
19458WAT     H258617   4.430   3.705   6.647
19459WAT      O58618   6.544   8.320   4.478
19459WAT     H158619   6.603   8.379   4.423
19459WAT     H258620   6.457   8.367   4.495
19460WAT      O58621   4.605   4.055   4.456
19460WAT     H158622   4.530   4.107   4.416
19460WAT     H258623   4.691   4.102   4.439
19461WAT      O58624   4.619   3.349   1.437
19461WAT     H158625   4.590   3.441   1.464
19461WAT     H258626   4.631   3.293   1.519
19462WAT      O58627   0.358   0.796   9.241
19462WAT     H158628   0.315   0.867   9.296
19462WAT     H258629   0.410   0.735   9.301
19463WAT      O58630   7.605   2.186   7.093
19463WAT     H158631   7.534   2.254   7.111
19463WAT     H258632   7.654   2.211   7.010
19464WAT      O58633   4.673   8.596   7.891
19464WAT     H158634   4.633   8.595   7.800
19464WAT     H258635   4.715   8.507   7.910
19465WAT      O58636   3.551   4.070   9.013
19465WAT     H158637   3.578   4.165   9.004
19465WAT     H258638   3.569   4.039   9.107
19466WAT      O58639   4.583   0.977   0.163
19466WAT     H158640   4.577   0.880   0.141
19466WAT     H258641   4.679   1.004   0.171
19467WAT      O58642   2.005   6.836   4.948
19467WAT     H158643   2.006   6.737   4.934
19467WAT     H258644   2.066   6.860   5.023
19468WAT      O58645   4.373   9.476   9.050
19468WAT     H158646   4.330   9.389   9.073
19468WAT     H258647   4.306   9.550   9.057
19469WAT      O58648   4.088   3.055   9.102
19469WAT     H158649   4.115   3.019   9.192
19469WAT     H258650   4.114   3.152   9.097
19470WAT      O58651   7.851   6.987   0.644
19470WAT     H158652   7.865   6.922   0.570
19470WAT     H258653   7.939   7.003   0.691
19471WAT      O58654   0.954   0.065   9.364
19471WAT     H158655   1.029   0.002   9.384
19471WAT     H258656   0.964   0.100   9.270
19472WAT      O58657   3.715   8.167   7.652
19472WAT     H158658   3.695   8.081   7.605
19472WAT     H258659   3.683   8.160   7.747
19473WAT      O58660   9.609   1.918   1.738
19473WAT     H158661   9.592   1.887   1.831
19473WAT     H258662   9.705   1.944   1.728
19474WAT      O58663   1.635   0.390   1.336
19474WAT     H158664   1.683   0.477   1.343
19474WAT     H258665   1.622   0.351   1.427
19475WAT      O58666   0.977   2.764   4.298
19475WAT     H158667   1.035   2.683   4.287
19475WAT     H258668   1.016   2.840   4.247
19476WAT      O58669   1.283   5.888   3.788
19476WAT     H158670   1.192   5.930   3.795
19476WAT     H258671   1.310   5.852   3.877
19477WAT      O58672   6.215   7.150   0.561
19477WAT     H158673   6.188   7.196   0.476
19477WAT     H258674   6.246   7.219   0.627
19478WAT      O58675   5.049   1.879   4.596
19478WAT     H158676   5.044   1.976   4.573
19478WAT     H258677   4.972   1.830   4.555
19479WAT      O58678   5.079   5.698   3.360
19479WAT     H158679   5.061   5.784   3.313
19479WAT     H258680   5.071   5.622   3.295
19480WAT      O58681   0.488   2.945   9.799
19480WAT     H158682   0.565   2.971   9.858
19480WAT     H258683   0.454   2.855   9.827
19481WAT      O58684   3.576   5.339   1.456
19481WAT     H158685   3.641   5.375   1.389
19481WAT     H258686   3.626   5.300   1.533
19482WAT      O58687   7.592   6.871   3.739
19482WAT     H158688   7.561   6.966   3.749
19482WAT     H258689   7.632   6.859   3.649
19483WAT      O58690   1.835   8.577   0.727
19483WAT     H158691   1.891   8.634   0.667
19483WAT     H258692   1.739   8.594   0.709
19484WAT      O58693   7.171   0.429   6.945
19484WAT     H158694   7.250   0.484   6.916
19484WAT     H258695   7.087   0.468   6.908
19485WAT      O58696   2.574   9.036   0.446
19485WAT     H158697   2.649   8.983   0.405
19485WAT     H258698   2.488   8.987   0.433
19486WAT      O58699   2.024   4.982   0.676
19486WAT     H158700   2.090   5.048   0.711
19486WAT     H258701   1.950   4.970   0.742
19487WAT      O58702   5.204   4.675   8.464
19487WAT     H158703   5.198   4.738   8.541
19487WAT     H258704   5.296   4.635   8.462
19488WAT      O58705   0.011   5.946   5.548
19488WAT     H158706   0.021   5.978   5.453
19488WAT     H258707   0.028   6.022   5.610
19489WAT      O58708   8.024   0.238   4.790
19489WAT     H158709   8.038   0.141   4.771
19489WAT     H258710   7.978   0.282   4.713
19490WAT      O58711   3.611   3.466   0.851
19490WAT     H158712   3.593   3.561   0.878
19490WAT     H258713   3.655   3.418   0.927
19491WAT      O58714   2.642   4.440   5.063
19491WAT     H158715   2.592   4.482   4.987
19491WAT     H258716   2.718   4.499   5.089
19492WAT      O58717   4.605   8.763   2.975
19492WAT     H158718   4.618   8.673   2.934
19492WAT     H258719   4.605   8.833   2.904
19493WAT      O58720   0.831   5.432   3.464
19493WAT     H158721   0.740   5.442   3.423
19493WAT     H258722   0.832   5.479   3.552
19494WAT      O58723   4.532   4.861   6.654
19494WAT     H158724   4.568   4.780   6.701
19494WAT     H258725   4.510   4.837   6.559
19495WAT      O58726   0.819   6.320   7.341
19495WAT     H158727   0.852   6.238   7.388
19495WAT     H258728   0.730   6.302   7.301
19496WAT      O58729   5.984   4.318   2.411
19496WAT     H158730   5.949   4.242   2.356
19496WAT     H258731   6.016   4.283   2.499
19497WAT      O58732   3.701   8.817   4.785
19497WAT     H158733   3.614   8.800   4.739
19497WAT     H258734   3.771   8.839   4.717
19498WAT      O58735   8.939   8.359   6.286
19498WAT     H158736   9.022   8.366   6.342
19498WAT     H258737   8.881   8.286   6.323
19499WAT      O58738   0.951   9.821   7.148
19499WAT     H158739   0.972   9.728   7.119
19499WAT     H258740   0.913   9.872   7.070
19500WAT      O58741   0.581   6.834   5.068
19500WAT     H158742   0.511   6.901   5.092
19500WAT     H258743   0.656   6.839   5.134
19501WAT      O58744   0.083   2.225   2.621
19501WAT     H158745   0.036   2.274   2.548
19501WAT     H258746   0.177   2.204   2.592
19502WAT      O58747   5.461   4.115   3.127
19502WAT     H158748   5.528   4.125   3.200
19502WAT     H258749   5.393   4.188   3.133
19503WAT      O58750   8.739   1.600   5.202
19503WAT     H158751   8.641   1.589   5.185
19503WAT     H258752   8.762   1.564   5.292
19504WAT      O58753   9.860   4.604   5.272
19504WAT     H158754   9.811   4.555   5.200
19504WAT     H258755   9.794   4.644   5.335
19505WAT      O58756   5.798   5.808   8.077
19505WAT     H158757   5.880   5.752   8.091
19505WAT     H258758   5.824   5.895   8.036
19506WAT      O58759   4.441   4.155   3.564
19506WAT     H158760   4.475   4.206   3.485
19506WAT     H258761   4.351   4.191   3.591
19507WAT      O58762   2.000   4.156   0.153
19507WAT     H158763   2.057   4.075   0.137
19507WAT     H258764   1.922   4.156   0.091
19508WAT      O58765   9.328   5.224   4.949
19508WAT     H158766   9.286   5.255   5.035
19508WAT     H258767   9.347   5.303   4.891
19509WAT      O58768   0.385   5.751   0.285
19509WAT     H158769   0.324   5.684   0.327
19509WAT     H258770   0.382   5.837   0.336
19510WAT      O58771   2.735   4.437   4.526
19510WAT     H158772   2.795   4.476   4.596
19510WAT     H258773   2.651   4.405   4.569
19511WAT      O58774   7.218   3.843   1.110
19511WAT     H158775   7.271   3.853   1.194
19511WAT     H258776   7.229   3.925   1.054
19512WAT      O58777   0.071   5.515   5.087
19512WAT     H158778   0.031   5.607   5.089
19512WAT     H258779   0.093   5.491   4.992
19513WAT      O58780   8.649   4.334   2.889
19513WAT     H158781   8.617   4.427   2.905
19513WAT     H258782   8.718   4.335   2.817
19514WAT      O58783   1.622   4.864   6.041
19514WAT     H158784   1.540   4.808   6.041
19514WAT     H258785   1.606   4.948   5.989
19515WAT      O58786   2.135   5.039   9.458
19515WAT     H158787   2.135   5.060   9.556
19515WAT     H258788   2.145   5.123   9.406
19516WAT      O58789   4.332   4.030   0.865
19516WAT     H158790   4.404   3.970   0.832
19516WAT     H258791   4.263   4.043   0.794
19517WAT      O58792   8.475   9.337   0.350
19517WAT     H158793   8.450   9.359   0.445
19517WAT     H258794   8.509   9.243   0.346
19518WAT      O58795   0.617   9.825   5.603
19518WAT     H158796   0.544   9.887   5.630
19518WAT     H258797   0.646   9.771   5.683
19519WAT      O58798   8.154   9.636   0.884
19519WAT     H158799   8.245   9.629   0.842
19519WAT     H258800   8.121   9.544   0.906
19520WAT      O58801   4.713   2.233   0.720
19520WAT     H158802   4.792   2.192   0.765
19520WAT     H258803   4.697   2.186   0.633
19521WAT      O58804   8.822   4.607   9.024
19521WAT     H158805   8.888   4.532   9.027
19521WAT     H258806   8.842   4.667   8.946
19522WAT      O58807   2.570   2.504   6.467
19522WAT     H158808   2.661   2.482   6.432
19522WAT     H258809   2.519   2.419   6.483
19523WAT      O58810   3.336   5.932   1.827
19523WAT     H158811   3.293   6.019   1.852
19523WAT     H258812   3.435   5.938   1.844
19524WAT      O58813   0.019   4.003   8.420
19524WAT     H158814  -0.073   4.034   8.444
19524WAT     H258815   0.069   3.981   8.504
19525WAT      O58816   5.619   0.699   4.245
19525WAT     H158817   5.527   0.734   4.260
19525WAT     H258818   5.621   0.601   4.262
19526WAT      O58819   2.467   0.672   8.943
19526WAT     H158820   2.449   0.755   8.890
19526WAT     H258821   2.563   0.669   8.968
19527WAT      O58822   2.932   6.291   8.623
19527WAT     H158823   2.990   6.216   8.590
19527WAT     H258824   2.908   6.276   8.719
19528WAT      O58825   7.482   8.324   5.637
19528WAT     H158826   7.467   8.273   5.721
19528WAT     H258827   7.425   8.407   5.637
19529WAT      O58828   2.962   7.068   1.444
19529WAT     H158829   2.888   7.041   1.506
19529WAT     H258830   3.039   7.005   1.455
19530WAT      O58831   1.297   3.241   7.262
19530WAT     H158832   1.350   3.309   7.313
19530WAT     H258833   1.218   3.211   7.316
19531WAT      O58834   2.857   1.080   1.675
19531WAT     H158835   2.897   0.989   1.688
19531WAT     H258836   2.849   1.126   1.763
19532WAT      O58837   7.288   0.185   3.180
19532WAT     H158838   7.262   0.159   3.273
19532WAT     H258839   7.336   0.110   3.136
19533WAT      O58840   8.379   7.550   6.015
19533WAT     H158841   8.324   7.570   5.934
19533WAT     H258842   8.417   7.636   6.050
19534WAT      O58843   7.078   4.342   1.501
19534WAT     H158844   7.098   4.432   1.541
19534WAT     H258845   7.050   4.279   1.574
19535WAT      O58846   1.957   8.180   7.028
19535WAT     H158847   1.951   8.127   7.112
19535WAT     H258848   1.922   8.272   7.044
19536WAT      O58849   1.353   9.090   4.161
19536WAT     H158850   1.276   9.042   4.118
19536WAT     H258851   1.370   9.175   4.113
19537WAT      O58852   1.031   0.502   0.340
19537WAT     H158853   1.023   0.412   0.298
19537WAT     H258854   0.989   0.500   0.431
19538WAT      O58855   4.183   8.497   7.871
19538WAT     H158856   4.109   8.506   7.938
19538WAT     H258857   4.262   8.452   7.915
19539WAT      O58858   3.564   3.977   0.203
19539WAT     H158859   3.509   3.901   0.239
19539WAT     H258860   3.657   3.945   0.186
19540WAT      O58861   1.641   4.020   2.599
19540WAT     H158862   1.693   4.070   2.668
19540WAT     H258863   1.616   3.930   2.636
19541WAT      O58864   0.568   5.609   4.384
19541WAT     H158865   0.504   5.635   4.312
19541WAT     H258866   0.624   5.688   4.409
19542WAT      O58867   6.064   3.037   5.768
19542WAT     H158868   6.112   3.032   5.681
19542WAT     H258869   5.965   3.041   5.752
19543WAT      O58870   8.478   6.695   7.145
19543WAT     H158871   8.477   6.647   7.233
19543WAT     H258872   8.385   6.725   7.123
19544WAT      O58873   8.706   8.356   2.181
19544WAT     H158874   8.635   8.405   2.131
19544WAT     H258875   8.789   8.351   2.125
19545WAT      O58876   2.149   4.329   6.815
19545WAT     H158877   2.201   4.279   6.745
19545WAT     H258878   2.118   4.417   6.777
19546WAT      O58879   0.299   2.556   1.031
19546WAT     H158880   0.372   2.601   0.980
19546WAT     H258881   0.210   2.584   0.995
19547WAT      O58882   9.610   1.105   5.126
19547WAT     H158883   9.577   1.012   5.114
19547WAT     H258884   9.538   1.170   5.100
19548WAT      O58885   9.664   6.406   5.418
19548WAT     H158886   9.580   6.354   5.433
19548WAT     H258887   9.727   6.390   5.494
19549WAT      O58888   5.689   9.842   5.392
19549WAT     H158889   5.630   9.864   5.470
19549WAT     H258890   5.778   9.811   5.426
19550WAT      O58891   4.795   1.777   4.225
19550WAT     H158892   4.699   1.757   4.204
19550WAT     H258893   4.845   1.792   4.140
19551WAT      O58894   1.658   2.647   1.031
19551WAT     H158895   1.707   2.699   0.960
19551WAT     H258896   1.697   2.556   1.037
19552WAT      O58897   2.996   8.526   8.402
19552WAT     H158898   3.019   8.492   8.311
19552WAT     H258899   2.990   8.626   8.399
19553WAT      O58900   6.298   0.325   5.848
19553WAT     H158901   6.364   0.320   5.922
19553WAT     H258902   6.288   0.420   5.817
19554WAT      O58903   1.168   0.138   2.464
19554WAT     H158904   1.220   0.223   2.476
19554WAT     H258905   1.090   0.155   2.405
19555WAT      O58906   6.999   0.880   8.679
19555WAT     H158907   6.993   0.979   8.664
19555WAT     H258908   6.995   0.861   8.777
19556WAT      O58909   5.956   6.222   3.252
19556WAT     H158910   6.017   6.221   3.331
19556WAT     H258911   5.900   6.139   3.253
19557WAT      O58912   3.563   6.534   2.091
19557WAT     H158913   3.659   6.557   2.073
19557WAT     H258914   3.505   6.579   2.023
19558WAT      O58915   3.748   9.074   4.887
19558WAT     H158916   3.728   8.982   4.852
19558WAT     H258917   3.666   9.110   4.932
19559WAT      O58918   6.296   5.401   3.977
19559WAT     H158919   6.344   5.400   4.065
19559WAT     H258920   6.253   5.313   3.961
19560WAT      O58921   6.269   8.765   4.175
19560WAT     H158922   6.365   8.739   4.190
19560WAT     H258923   6.217   8.748   4.258
19561WAT      O58924   6.839   8.223   9.124
19561WAT     H158925   6.922   8.175   9.096
19561WAT     H258926   6.780   8.160   9.175
19562WAT      O58927   9.651   5.427   9.398
19562WAT     H158928   9.581   5.356   9.397
19562WAT     H258929   9.615   5.509   9.354
19563WAT      O58930   3.865   7.626   7.600
19563WAT     H158931   3.868   7.588   7.692
19563WAT     H258932   3.954   7.613   7.555
19564WAT      O58933   2.436   7.862   1.534
19564WAT     H158934   2.498   7.785   1.547
19564WAT     H258935   2.367   7.862   1.607
19565WAT      O58936   1.695   9.494   5.487
19565WAT     H158937   1.699   9.543   5.575
19565WAT     H258938   1.779   9.511   5.436
19566WAT      O58939   4.633   8.541   0.838
19566WAT     H158940   4.593   8.617   0.787
19566WAT     H258941   4.730   8.532   0.813
19567WAT      O58942   0.269   1.877   0.567
19567WAT     H158943   0.262   1.826   0.652
19567WAT     H258944   0.365   1.892   0.544
19568WAT      O58945   2.343   1.611   4.241
19568WAT     H158946   2.305   1.704   4.235
19568WAT     H258947   2.273   1.545   4.213
19569WAT      O58948   2.943   5.696   5.955
19569WAT     H158949   2.874   5.758   5.917
19569WAT     H258950   2.903   5.645   6.031
19570WAT      O58951   3.264   1.091   6.866
19570WAT     H158952   3.208   1.074   6.946
19570WAT     H258953   3.217   1.058   6.784
19571WAT      O58954   1.964   6.678   5.413
19571WAT     H158955   1.919   6.767   5.413
19571WAT     H258956   2.007   6.662   5.501
19572WAT      O58957   9.387   3.361   1.604
19572WAT     H158958   9.298   3.402   1.626
19572WAT     H258959   9.459   3.421   1.639
19573WAT      O58960   2.966   2.648   4.207
19573WAT     H158961   2.949   2.651   4.108
19573WAT     H258962   3.016   2.565   4.230
19574WAT      O58963   7.679   6.853   3.489
19574WAT     H158964   7.706   6.775   3.433
19574WAT     H258965   7.617   6.911   3.437
19575WAT      O58966   8.151   7.955   4.279
19575WAT     H158967   8.074   7.904   4.241
19575WAT     H258968   8.233   7.938   4.224
19576WAT      O58969   3.694   6.831   2.853
19576WAT     H158970   3.649   6.912   2.816
19576WAT     H258971   3.625   6.761   2.872
19577WAT      O58972   0.850   6.357   9.675
19577WAT     H158973   0.759   6.360   9.635
19577WAT     H258974   0.917   6.393   9.610
19578WAT      O58975   6.021   6.587   0.954
19578WAT     H158976   5.936   6.639   0.953
19578WAT     H258977   6.007   6.500   1.002
19579WAT      O58978   0.296   0.045   8.746
19579WAT     H158979   0.295  -0.055   8.736
19579WAT     H258980   0.284   0.087   8.656
19580WAT      O58981   4.773   4.253   5.312
19580WAT     H158982   4.719   4.279   5.233
19580WAT     H258983   4.768   4.154   5.326
19581WAT      O58984   5.840   5.718   1.367
19581WAT     H158985   5.795   5.753   1.449
19581WAT     H258986   5.925   5.672   1.393
19582WAT      O58987   5.935   3.197   9.190
19582WAT     H158988   5.988   3.144   9.256
19582WAT     H258989   5.994   3.263   9.145
19583WAT      O58990   2.963   4.085   6.319
19583WAT     H158991   3.047   4.047   6.279
19583WAT     H258992   2.893   4.013   6.321
19584WAT      O58993   4.802   9.511   8.020
19584WAT     H158994   4.813   9.415   7.994
19584WAT     H258995   4.756   9.516   8.109
19585WAT      O58996   4.116   2.565   4.761
19585WAT     H158997   4.023   2.528   4.756
19585WAT     H258998   4.136   2.592   4.856
19586WAT      O58999   9.126   9.825   6.103
19586WAT     H159000   9.120   9.728   6.128
19586WAT     H259001   9.087   9.838   6.012
19587WAT      O59002   9.035   8.077   3.180
19587WAT     H159003   9.082   8.137   3.245
19587WAT     H259004   8.989   8.131   3.110
19588WAT      O59005   7.520   8.843   5.142
19588WAT     H159006   7.524   8.851   5.042
19588WAT     H259007   7.609   8.816   5.176
19589WAT      O59008   1.750   5.378   1.859
19589WAT     H159009   1.718   5.458   1.808
19589WAT     H259010   1.675   5.313   1.872
19590WAT      O59011   2.118   9.244   5.326
19590WAT     H159012   2.026   9.283   5.333
19590WAT     H259013   2.133   9.180   5.402
19591WAT      O59014   6.773   5.217   5.819
19591WAT     H159015   6.703   5.281   5.849
19591WAT     H259016   6.814   5.172   5.898
19592WAT      O59017   8.345   9.297   4.835
19592WAT     H159018   8.246   9.286   4.837
19592WAT     H259019   8.388   9.215   4.797
19593WAT      O59020   1.909   5.176   6.155
19593WAT     H159021   1.913   5.169   6.254
19593WAT     H259022   1.855   5.100   6.118
19594WAT      O59023   8.794   5.535   0.255
19594WAT     H159024   8.840   5.515   0.342
19594WAT     H259025   8.726   5.607   0.270
19595WAT      O59026   9.201   7.266   0.402
19595WAT     H159027   9.301   7.262   0.407
19595WAT     H259028   9.165   7.307   0.486
19596WAT      O59029   8.689   8.409   1.206
19596WAT     H159030   8.589   8.403   1.215
19596WAT     H259031   8.713   8.419   1.110
19597WAT      O59032   1.976   7.671   8.523
19597WAT     H159033   1.910   7.667   8.598
19597WAT     H259034   1.963   7.591   8.463
19598WAT      O59035   6.374   5.912   7.958
19598WAT     H159036   6.427   5.912   8.043
19598WAT     H259037   6.291   5.966   7.970
19599WAT      O59038   6.624   8.795   7.286
19599WAT     H159039   6.626   8.712   7.341
19599WAT     H259040   6.621   8.770   7.189
19600WAT      O59041   0.891   0.093   5.304
19600WAT     H159042   0.919   0.051   5.391
19600WAT     H259043   0.825   0.033   5.259
19601WAT      O59044   0.019   7.586   1.393
19601WAT     H159045   0.098   7.532   1.421
19601WAT     H259046   0.021   7.598   1.293
19602WAT      O59047   3.583   1.626   7.360
19602WAT     H159048   3.665   1.619   7.417
19602WAT     H259049   3.504   1.594   7.412
19603WAT      O59050   5.738   9.029   4.929
19603WAT     H159051   5.813   9.004   4.991
19603WAT     H259052   5.766   9.105   4.871
19604WAT      O59053   7.539   9.670   9.684
19604WAT     H159054   7.512   9.683   9.589
19604WAT     H259055   7.475   9.717   9.745
19605WAT      O59056   2.915   8.343   0.347
19605WAT     H159057   2.843   8.292   0.395
19605WAT     H259058   2.937   8.426   0.399
19606WAT      O59059   8.196   8.907   5.952
19606WAT     H159060   8.294   8.913   5.969
19606WAT     H259061   8.180   8.880   5.857
19607WAT      O59062   2.163   6.467   3.618
19607WAT     H159063   2.255   6.435   3.643
19607WAT     H259064   2.147   6.557   3.659
19608WAT      O59065   3.427   3.771   2.440
19608WAT     H159066   3.335   3.732   2.447
19608WAT     H259067   3.434   3.851   2.500
19609WAT      O59068   8.749   1.448   0.538
19609WAT     H159069   8.801   1.403   0.465
19609WAT     H259070   8.793   1.429   0.626
19610WAT      O59071   7.103   4.858   8.697
19610WAT     H159072   7.089   4.846   8.599
19610WAT     H259073   7.125   4.953   8.717
19611WAT      O59074   9.802   6.441   7.876
19611WAT     H159075   9.847   6.457   7.789
19611WAT     H259076   9.865   6.392   7.938
19612WAT      O59077   8.239   8.627   5.275
19612WAT     H159078   8.200   8.536   5.279
19612WAT     H259079   8.263   8.649   5.180
19613WAT      O59080   8.113   4.510   0.057
19613WAT     H159081   8.127   4.477  -0.037
19613WAT     H259082   8.063   4.442   0.109
19614WAT      O59083   2.311   3.672   6.530
19614WAT     H159084   2.402   3.667   6.574
19614WAT     H259085   2.304   3.757   6.479
19615WAT      O59086   6.333   9.804   8.480
19615WAT     H159087   6.376   9.875   8.535
19615WAT     H259088   6.394   9.779   8.405
19616WAT      O59089   8.201   6.808   7.117
19616WAT     H159090   8.145   6.725   7.128
19616WAT     H259091   8.203   6.857   7.204
19617WAT      O59092   4.939   4.132   6.385
19617WAT     H159093   5.007   4.081   6.438
19617WAT     H259094   4.850   4.125   6.430
19618WAT      O59095   7.712   1.831   2.570
19618WAT     H159096   7.727   1.819   2.472
19618WAT     H259097   7.800   1.835   2.618
19619WAT      O59098   2.067   4.362   2.349
19619WAT     H159099   1.991   4.305   2.378
19619WAT     H259100   2.093   4.339   2.255
19620WAT      O59101   8.169   1.259   8.357
19620WAT     H159102   8.253   1.234   8.310
19620WAT     H259103   8.129   1.341   8.314
19621WAT      O59104   1.874   9.116   4.652
19621WAT     H159105   1.959   9.168   4.640
19621WAT     H259106   1.870   9.043   4.583
19622WAT      O59107   4.891   5.440   1.133
19622WAT     H159108   4.844   5.401   1.054
19622WAT     H259109   4.961   5.503   1.103
19623WAT      O59110   2.945   6.920   3.532
19623WAT     H159111   2.853   6.952   3.553
19623WAT     H259112   2.948   6.883   3.439
19624WAT      O59113   4.673   1.299   1.954
19624WAT     H159114   4.691   1.250   2.039
19624WAT     H259115   4.733   1.378   1.948
19625WAT      O59116   6.527   9.710   7.190
19625WAT     H159117   6.561   9.646   7.259
19625WAT     H259118   6.604   9.761   7.151
19626WAT      O59119   8.505   9.816   7.630
19626WAT     H159120   8.591   9.818   7.580
19626WAT     H259121   8.510   9.878   7.709
19627WAT      O59122   7.016   5.500   0.299
19627WAT     H159123   6.980   5.441   0.226
19627WAT     H259124   7.116   5.503   0.294
19628WAT      O59125   4.936   7.766   5.981
19628WAT     H159126   4.979   7.697   6.039
19628WAT     H259127   4.864   7.813   6.033
19629WAT      O59128   8.166   1.201   5.110
19629WAT     H159129   8.173   1.301   5.115
19629WAT     H259130   8.207   1.161   5.192
19630WAT      O59131   0.535   5.092   8.647
19630WAT     H159132   0.574   5.003   8.671
19630WAT     H259133   0.554   5.113   8.551
19631WAT      O59134   2.229   8.677   4.793
19631WAT     H159135   2.153   8.652   4.733
19631WAT     H259136   2.293   8.600   4.798
19632WAT      O59137   8.557   2.778   8.935
19632WAT     H159138   8.468   2.762   8.976
19632WAT     H259139   8.584   2.874   8.950
19633WAT      O59140   2.157   0.875   5.828
19633WAT     H159141   2.093   0.870   5.906
19633WAT     H259142   2.105   0.881   5.743
19634WAT      O59143   0.705   2.977   0.492
19634WAT     H159144   0.681   3.064   0.535
19634WAT     H259145   0.684   2.981   0.394
19635WAT      O59146   4.216   7.884   5.080
19635WAT     H159147   4.195   7.912   4.986
19635WAT     H259148   4.140   7.830   5.116
19636WAT      O59149   2.013   0.006   3.089
19636WAT     H159150   1.956   0.005   3.171
19636WAT     H259151   1.995   0.090   3.037
19637WAT      O59152   3.411   8.871   3.572
19637WAT     H159153   3.510   8.881   3.580
19637WAT     H259154   3.388   8.840   3.479
19638WAT      O59155   7.574   1.061   5.091
19638WAT     H159156   7.657   1.057   5.146
19638WAT     H259157   7.598   1.080   4.996
19639WAT      O59158   5.481   0.309   8.249
19639WAT     H159159   5.422   0.269   8.180
19639WAT     H259160   5.507   0.239   8.315
19640WAT      O59161   5.760   6.516   5.911
19640WAT     H159162   5.700   6.449   5.867
19640WAT     H259163   5.812   6.566   5.842
19641WAT      O59164   6.090   3.635   2.323
19641WAT     H159165   6.086   3.541   2.357
19641WAT     H259166   6.173   3.679   2.356
19642WAT      O59167   5.727   2.003   8.898
19642WAT     H159168   5.719   1.969   8.992
19642WAT     H259169   5.781   2.087   8.898
19643WAT      O59170   0.202   7.082   0.026
19643WAT     H159171   0.227   7.140   0.103
19643WAT     H259172   0.175   6.992   0.059
19644WAT      O59173   2.121   2.638   1.911
19644WAT     H159174   2.025   2.661   1.896
19644WAT     H259175   2.164   2.708   1.968
19645WAT      O59176   1.411   1.602   7.605
19645WAT     H159177   1.441   1.562   7.519
19645WAT     H259178   1.340   1.544   7.646
19646WAT      O59179   5.559   1.729   6.289
19646WAT     H159180   5.626   1.656   6.279
19646WAT     H259181   5.569   1.773   6.378
19647WAT      O59182   7.799   5.074   9.264
19647WAT     H159183   7.868   5.028   9.208
19647WAT     H259184   7.725   5.107   9.205
19648WAT      O59185   7.492   4.102   3.362
19648WAT     H159186   7.583   4.112   3.402
19648WAT     H259187   7.469   4.184   3.310
19649WAT      O59188   3.386   0.492   0.619
19649WAT     H159189   3.297   0.502   0.663
19649WAT     H259190   3.434   0.414   0.659
19650WAT      O59191   1.326   7.473   9.253
19650WAT     H159192   1.256   7.543   9.240
19650WAT     H259193   1.292   7.385   9.221
19651WAT      O59194   4.750   2.139   1.858
19651WAT     H159195   4.730   2.236   1.845
19651WAT     H259196   4.745   2.092   1.771
19652WAT      O59197   0.157   0.733   2.096
19652WAT     H159198   0.072   0.714   2.144
19652WAT     H259199   0.186   0.651   2.046
19653WAT      O59200   9.891   4.047   2.235
19653WAT     H159201   9.858   4.101   2.313
19653WAT     H259202   9.814   4.023   2.176
19654WAT      O59203   6.954   4.677   2.366
19654WAT     H159204   7.001   4.752   2.413
19654WAT     H259205   6.902   4.623   2.432
19655WAT      O59206   7.216   6.526   5.169
19655WAT     H159207   7.266   6.482   5.243
19655WAT     H259208   7.236   6.479   5.083
19656WAT      O59209   9.863   2.791   4.861
19656WAT     H159210   9.892   2.856   4.791
19656WAT     H259211   9.795   2.835   4.921
19657WAT      O59212   1.773   4.012   5.102
19657WAT     H159213   1.687   4.006   5.153
19657WAT     H259214   1.792   3.924   5.058
19658WAT      O59215   3.464   8.270   5.493
19658WAT     H159216   3.418   8.181   5.502
19658WAT     H259217   3.411   8.328   5.431
19659WAT      O59218   3.652   4.791   2.004
19659WAT     H159219   3.734   4.742   1.975
19659WAT     H259220   3.591   4.728   2.052
19660WAT      O59221   7.185   8.780   8.438
19660WAT     H159222   7.094   8.746   8.417
19660WAT     H259223   7.187   8.817   8.531
19661WAT      O59224   1.965   5.612   3.070
19661WAT     H159225   2.001   5.600   2.977
19661WAT     H259226   1.866   5.596   3.069
19662WAT      O59227   9.447   2.442   8.974
19662WAT     H159228   9.505   2.399   9.042
19662WAT     H259229   9.386   2.508   9.018
19663WAT      O59230   6.792   6.569   1.787
19663WAT     H159231   6.783   6.658   1.742
19663WAT     H259232   6.888   6.553   1.809
19664WAT      O59233   7.651   8.071   8.071
19664WAT     H159234   7.630   8.167   8.055
19664WAT     H259235   7.648   8.020   7.985
19665WAT      O59236   6.906   9.167   4.437
19665WAT     H159237   6.909   9.196   4.341
19665WAT     H259238   6.815   9.130   4.457
19666WAT      O59239   4.026   5.018   0.126
19666WAT     H159240   3.997   4.925   0.145
19666WAT     H259241   3.961   5.063   0.064
19667WAT      O59242   5.502   1.844   5.167
19667WAT     H159243   5.588   1.835   5.218
19667WAT     H259244   5.494   1.938   5.133
19668WAT      O59245   9.071   4.491   0.994
19668WAT     H159246   9.120   4.484   1.082
19668WAT     H259247   8.998   4.423   0.992
19669WAT      O59248   6.201   4.424   7.057
19669WAT     H159249   6.191   4.442   7.155
19669WAT     H259250   6.111   4.424   7.014
19670WAT      O59251   8.143   9.134   4.463
19670WAT     H159252   8.097   9.080   4.534
19670WAT     H259253   8.092   9.125   4.377
19671WAT      O59254   6.614   6.294   7.413
19671WAT     H159255   6.545   6.318   7.482
19671WAT     H259256   6.630   6.196   7.416
19672WAT      O59257   6.383   1.514   3.459
19672WAT     H159258   6.356   1.470   3.545
19672WAT     H259259   6.306   1.567   3.423
19673WAT      O59260   6.836   0.796   1.257
19673WAT     H159261   6.772   0.854   1.206
19673WAT     H259262   6.789   0.757   1.336
19674WAT      O59263   4.373   5.489   1.810
19674WAT     H159264   4.375   5.573   1.755
19674WAT     H259265   4.380   5.512   1.907
19675WAT      O59266   7.028   3.134   3.284
19675WAT     H159267   7.056   3.097   3.195
19675WAT     H259268   7.000   3.059   3.344
19676WAT      O59269   4.115   7.984   0.595
19676WAT     H159270   4.020   7.953   0.599
19676WAT     H259271   4.118   8.083   0.597
19677WAT      O59272   6.083   5.015   0.061
19677WAT     H159273   5.988   4.988   0.046
19677WAT     H259274   6.122   5.051  -0.023
19678WAT      O59275   8.706   5.758   8.822
19678WAT     H159276   8.767   5.795   8.893
19678WAT     H259277   8.722   5.806   8.736
19679WAT      O59278   1.314   4.051   3.360
19679WAT     H159279   1.347   4.056   3.266
19679WAT     H259280   1.330   3.958   3.395
19680WAT      O59281   5.165   5.292   0.380
19680WAT     H159282   5.214   5.358   0.437
19680WAT     H259283   5.110   5.232   0.438
19681WAT      O59284   6.271   0.392   7.712
19681WAT     H159285   6.248   0.480   7.670
19681WAT     H259286   6.278   0.404   7.811
19682WAT      O59287   5.708   6.660   0.339
19682WAT     H159288   5.627   6.636   0.391
19682WAT     H259289   5.768   6.581   0.331
19683WAT      O59290   1.473   7.966   8.493
19683WAT     H159291   1.531   8.008   8.423
19683WAT     H259292   1.413   8.036   8.533
19684WAT      O59293   6.508   4.212   8.656
19684WAT     H159294   6.518   4.142   8.726
19684WAT     H259295   6.454   4.288   8.692
19685WAT      O59296   3.937   3.240   2.750
19685WAT     H159297   3.904   3.149   2.777
19685WAT     H259298   3.972   3.288   2.830
19686WAT      O59299   9.453   0.342   7.236
19686WAT     H159300   9.485   0.260   7.188
19686WAT     H259301   9.356   0.331   7.259
19687WAT      O59302   8.863   3.659   7.487
19687WAT     H159303   8.899   3.702   7.404
19687WAT     H259304   8.905   3.569   7.499
19688WAT      O59305   6.640   1.561   1.153
19688WAT     H159306   6.649   1.557   1.253
19688WAT     H259307   6.556   1.610   1.129
19689WAT      O59308   7.567   0.756   6.272
19689WAT     H159309   7.472   0.734   6.294
19689WAT     H259310   7.576   0.854   6.258
19690WAT      O59311   7.360   2.588   6.050
19690WAT     H159312   7.342   2.571   6.147
19690WAT     H259313   7.333   2.681   6.027
19691WAT      O59314   0.488   4.712   7.056
19691WAT     H159315   0.388   4.720   7.058
19691WAT     H259316   0.524   4.754   6.974
19692WAT      O59317   5.026   7.281   6.750
19692WAT     H159318   5.123   7.258   6.747
19692WAT     H259319   5.016   7.377   6.778
19693WAT      O59320   7.182   1.027   0.968
19693WAT     H159321   7.271   1.051   0.929
19693WAT     H259322   7.124   0.988   0.897
19694WAT      O59323   7.692   0.231   5.042
19694WAT     H159324   7.770   0.279   5.081
19694WAT     H259325   7.660   0.162   5.107
19695WAT      O59326   8.437   6.525   1.343
19695WAT     H159327   8.375   6.509   1.266
19695WAT     H259328   8.501   6.449   1.349
19696WAT      O59329   6.892   3.769   8.053
19696WAT     H159330   6.976   3.822   8.040
19696WAT     H259331   6.813   3.829   8.048
19697WAT      O59332   1.425   4.076   3.122
19697WAT     H159333   1.386   4.114   3.037
19697WAT     H259334   1.473   3.991   3.102
19698WAT      O59335   2.162   4.328   3.528
19698WAT     H159336   2.161   4.347   3.430
19698WAT     H259337   2.117   4.402   3.578
19699WAT      O59338   2.276   8.226   0.369
19699WAT     H159339   2.290   8.276   0.284
19699WAT     H259340   2.342   8.151   0.375
19700WAT      O59341   4.133   7.134   6.582
19700WAT     H159342   4.192   7.203   6.623
19700WAT     H259343   4.141   7.048   6.633
19701WAT      O59344   2.586   1.461   4.247
19701WAT     H159345   2.599   1.417   4.159
19701WAT     H259346   2.498   1.509   4.247
19702WAT      O59347   6.086   0.717   9.467
19702WAT     H159348   6.092   0.618   9.455
19702WAT     H259349   6.018   0.754   9.404
19703WAT      O59350   7.828   5.351   7.963
19703WAT     H159351   7.764   5.429   7.965
19703WAT     H259352   7.917   5.381   7.995
19704WAT      O59353   5.419   9.068   5.377
19704WAT     H159354   5.436   9.142   5.311
19704WAT     H259355   5.487   9.073   5.450
19705WAT      O59356   7.930   0.507   8.923
19705WAT     H159357   7.909   0.427   8.867
19705WAT     H259358   7.916   0.484   9.020
19706WAT      O59359   9.235   2.547   7.059
19706WAT     H159360   9.166   2.516   6.994
19706WAT     H259361   9.234   2.647   7.065
19707WAT      O59362   2.225   9.530   5.382
19707WAT     H159363   2.218   9.433   5.360
19707WAT     H259364   2.190   9.546   5.474
19708WAT      O59365   2.642   1.488   1.535
19708WAT     H159366   2.618   1.577   1.574
19708WAT     H259367   2.562   1.428   1.539
19709WAT      O59368   7.726   6.106   7.415
19709WAT     H159369   7.678   6.102   7.503
19709WAT     H259370   7.659   6.116   7.341
19710WAT      O59371   3.389   8.553   3.191
19710WAT     H159372   3.407   8.610   3.272
19710WAT     H259373   3.343   8.608   3.121
19711WAT      O59374   1.169   4.378   5.911
19711WAT     H159375   1.115   4.428   5.978
19711WAT     H259376   1.182   4.435   5.830
19712WAT      O59377   9.078   4.110   1.841
19712WAT     H159378   9.101   4.057   1.759
19712WAT     H259379   8.982   4.137   1.838
19713WAT      O59380   8.183   5.202   8.551
19713WAT     H159381   8.139   5.274   8.605
19713WAT     H259382   8.117   5.128   8.535
19714WAT      O59383   1.659   7.876   6.808
19714WAT     H159384   1.560   7.861   6.810
19714WAT     H259385   1.696   7.859   6.900
19715WAT      O59386   1.762   1.968   6.560
19715WAT     H159387   1.747   2.027   6.639
19715WAT     H259388   1.695   1.990   6.489
19716WAT      O59389   2.509   7.674   6.602
19716WAT     H159390   2.410   7.686   6.606
19716WAT     H259391   2.554   7.756   6.639
19717WAT      O59392   0.950   2.821   9.714
19717WAT     H159393   0.890   2.811   9.635
19717WAT     H259394   0.909   2.776   9.793
19718WAT      O59395   0.206   6.703   0.736
19718WAT     H159396   0.298   6.740   0.749
19718WAT     H259397   0.211   6.605   0.719
19719WAT      O59398   8.607   3.156   8.145
19719WAT     H159399   8.518   3.170   8.102
19719WAT     H259400   8.605   3.072   8.199
19720WAT      O59401   2.876   1.659   3.803
19720WAT     H159402   2.804   1.719   3.840
19720WAT     H259403   2.935   1.628   3.878
19721WAT      O59404   2.983   6.006   1.857
19721WAT     H159405   2.952   6.082   1.801
19721WAT     H259406   2.962   5.919   1.811
19722WAT      O59407   8.616   5.775   6.018
19722WAT     H159408   8.622   5.764   5.919
19722WAT     H259409   8.620   5.685   6.062
19723WAT      O59410   3.407   1.212   8.005
19723WAT     H159411   3.426   1.303   8.042
19723WAT     H259412   3.488   1.177   7.958
19724WAT      O59413   6.312   3.184   7.486
19724WAT     H159414   6.256   3.212   7.408
19724WAT     H259415   6.392   3.243   7.493
19725WAT      O59416   3.185   1.981   5.207
19725WAT     H159417   3.197   1.941   5.298
19725WAT     H259418   3.158   1.910   5.142
19726WAT      O59419   5.107   3.460   9.605
19726WAT     H159420   5.020   3.480   9.649
19726WAT     H259421   5.181   3.470   9.672
19727WAT      O59422   7.439   4.673   7.844
19727WAT     H159423   7.450   4.582   7.885
19727WAT     H259424   7.527   4.720   7.843
19728WAT      O59425   8.684   1.711   2.719
19728WAT     H159426   8.705   1.805   2.744
19728WAT     H259427   8.711   1.650   2.793
19729WAT      O59428   0.458   8.866   7.452
19729WAT     H159429   0.443   8.767   7.452
19729WAT     H259430   0.547   8.886   7.493
19730WAT      O59431   6.233   3.880   0.512
19730WAT     H159432   6.278   3.819   0.578
19730WAT     H259433   6.181   3.826   0.447
19731WAT      O59434   0.920   3.669   9.596
19731WAT     H159435   0.971   3.751   9.620
19731WAT     H259436   0.969   3.620   9.524
19732WAT      O59437   9.643   1.653   3.471
19732WAT     H159438   9.740   1.638   3.487
19732WAT     H259439   9.606   1.577   3.417
19733WAT      O59440   3.960   5.327   8.405
19733WAT     H159441   3.955   5.376   8.491
19733WAT     H259442   4.043   5.271   8.403
19734WAT      O59443   0.079   1.154   9.545
19734WAT     H159444   0.058   1.200   9.459
19734WAT     H259445   0.035   1.064   9.546
19735WAT      O59446   1.341   4.116   0.712
19735WAT     H159447   1.259   4.066   0.684
19735WAT     H259448   1.396   4.059   0.773
19736WAT      O59449   2.703   8.484   8.750
19736WAT     H159450   2.715   8.476   8.848
19736WAT     H259451   2.666   8.574   8.728
19737WAT      O59452   9.667   6.178   5.167
19737WAT     H159453   9.619   6.256   5.127
19737WAT     H259454   9.715   6.128   5.096
19738WAT      O59455   6.490   3.390   7.502
19738WAT     H159456   6.564   3.325   7.486
19738WAT     H259457   6.497   3.465   7.436
19739WAT      O59458   8.718   1.699   9.111
19739WAT     H159459   8.694   1.722   9.017
19739WAT     H259460   8.638   1.658   9.157
19740WAT      O59461   0.401   0.315   4.928
19740WAT     H159462   0.463   0.299   4.852
19740WAT     H259463   0.442   0.279   5.012
19741WAT      O59464   7.705   8.675   7.686
19741WAT     H159465   7.744   8.725   7.608
19741WAT     H259466   7.659   8.592   7.653
19742WAT      O59467   2.344   2.136   5.653
19742WAT     H159468   2.256   2.179   5.636
19742WAT     H259469   2.418   2.197   5.625
19743WAT      O59470   8.676   4.163   9.738
19743WAT     H159471   8.758   4.153   9.794
19743WAT     H259472   8.601   4.199   9.794
19744WAT      O59473   4.080   8.641   4.013
19744WAT     H159474   4.070   8.583   3.932
19744WAT     H259475   4.136   8.594   4.081
19745WAT      O59476   8.577   4.278   1.774
19745WAT     H159477   8.531   4.339   1.839
19745WAT     H259478   8.515   4.255   1.700
19746WAT      O59479   8.703   7.095   3.000
19746WAT     H159480   8.759   7.084   2.918
19746WAT     H259481   8.670   7.189   3.005
19747WAT      O59482   2.012   1.666   3.047
19747WAT     H159483   1.957   1.640   2.967
19747WAT     H259484   2.108   1.647   3.028
19748WAT      O59485   4.515   0.477   4.258
19748WAT     H159486   4.601   0.461   4.209
19748WAT     H259487   4.455   0.534   4.202
19749WAT      O59488   3.177   8.435   7.698
19749WAT     H159489   3.256   8.385   7.663
19749WAT     H259490   3.132   8.381   7.769
19750WAT      O59491   6.928   8.903   3.564
19750WAT     H159492   6.866   8.826   3.549
19750WAT     H259493   7.013   8.888   3.513
19751WAT      O59494   0.306   4.264   1.951
19751WAT     H159495   0.323   4.343   1.893
19751WAT     H259496   0.207   4.252   1.964
19752WAT      O59497   4.748   8.837   8.053
19752WAT     H159498   4.741   8.905   7.980
19752WAT     H259499   4.670   8.774   8.048
19753WAT      O59500   3.987   1.423   7.180
19753WAT     H159501   4.016   1.368   7.103
19753WAT     H259502   3.968   1.516   7.149
19754WAT      O59503   0.079   2.970   3.986
19754WAT     H159504   0.066   3.069   3.974
19754WAT     H259505   0.175   2.951   4.006
19755WAT      O59506   7.602   5.586   5.491
19755WAT     H159507   7.690   5.544   5.511
19755WAT     H259508   7.584   5.582   5.393
19756WAT      O59509   6.790   4.473   9.070
19756WAT     H159510   6.791   4.465   8.970
19756WAT     H259511   6.883   4.461   9.106
19757WAT      O59512   8.354   9.368   6.423
19757WAT     H159513   8.410   9.304   6.475
19757WAT     H259514   8.323   9.324   6.339
19758WAT      O59515   2.484   0.438   0.791
19758WAT     H159516   2.506   0.500   0.716
19758WAT     H259517   2.475   0.489   0.876
19759WAT      O59518   7.507   4.646   6.045
19759WAT     H159519   7.578   4.621   6.111
19759WAT     H259520   7.531   4.611   5.955
19760WAT      O59521   7.357   9.719   5.738
19760WAT     H159522   7.362   9.751   5.833
19760WAT     H259523   7.288   9.772   5.688
19761WAT      O59524   9.781   0.165   4.934
19761WAT     H159525   9.709   0.166   4.865
19761WAT     H259526   9.867   0.197   4.894
19762WAT      O59527   9.115   6.787   6.110
19762WAT     H159528   9.198   6.755   6.065
19762WAT     H259529   9.035   6.747   6.067
19763WAT      O59530   3.508   9.029   8.556
19763WAT     H159531   3.571   8.951   8.563
19763WAT     H259532   3.420   8.998   8.519
19764WAT      O59533   7.107   1.877   6.399
19764WAT     H159534   7.063   1.822   6.471
19764WAT     H259535   7.178   1.934   6.439
19765WAT      O59536   5.985   0.505   8.834
19765WAT     H159537   5.938   0.512   8.746
19765WAT     H259538   6.083   0.500   8.819
19766WAT      O59539   2.919   5.626   2.194
19766WAT     H159540   3.003   5.626   2.140
19766WAT     H259541   2.922   5.700   2.261
19767WAT      O59542   2.601   9.446   4.324
19767WAT     H159543   2.635   9.404   4.408
19767WAT     H259544   2.562   9.536   4.344
19768WAT      O59545   5.867   7.874   1.404
19768WAT     H159546   5.826   7.784   1.391
19768WAT     H259547   5.952   7.864   1.456
19769WAT      O59548   8.193   9.467   5.687
19769WAT     H159549   8.227   9.561   5.686
19769WAT     H259550   8.151   9.446   5.599
19770WAT      O59551   1.129   5.169   1.774
19770WAT     H159552   1.200   5.176   1.704
19770WAT     H259553   1.069   5.249   1.768
19771WAT      O59554   9.807   6.266   0.499
19771WAT     H159555   9.809   6.326   0.419
19771WAT     H259556   9.768   6.178   0.475
19772WAT      O59557   5.047   7.221   9.851
19772WAT     H159558   5.019   7.144   9.793
19772WAT     H259559   5.020   7.203   9.946
19773WAT      O59560   6.712   7.569   7.210
19773WAT     H159561   6.767   7.487   7.221
19773WAT     H259562   6.768   7.650   7.230
19774WAT      O59563   7.908   8.271   6.741
19774WAT     H159564   7.967   8.314   6.809
19774WAT     H259565   7.949   8.282   6.650
19775WAT      O59566   4.342   5.226   3.351
19775WAT     H159567   4.398   5.296   3.307
19775WAT     H259568   4.300   5.264   3.433
19776WAT      O59569   5.769   0.767   8.764
19776WAT     H159570   5.800   0.689   8.819
19776WAT     H259571   5.681   0.799   8.799
19777WAT      O59572   6.675   2.584   4.203
19777WAT     H159573   6.742   2.597   4.130
19777WAT     H259574   6.600   2.528   4.169
19778WAT      O59575   4.014   8.838   6.363
19778WAT     H159576   4.110   8.866   6.359
19778WAT     H259577   3.956   8.917   6.341
19779WAT      O59578   4.642   5.819   1.816
19779WAT     H159579   4.705   5.810   1.739
19779WAT     H259580   4.612   5.728   1.845
19780WAT      O59581   2.770   4.742   0.665
19780WAT     H159582   2.803   4.744   0.571
19780WAT     H259583   2.833   4.792   0.724
19781WAT      O59584   4.536   3.147   5.168
19781WAT     H159585   4.592   3.153   5.086
19781WAT     H259586   4.453   3.202   5.155
19782WAT      O59587   3.954   6.758   0.890
19782WAT     H159588   3.867   6.745   0.843
19782WAT     H259589   3.938   6.777   0.987
19783WAT      O59590   0.176   8.071   9.833
19783WAT     H159591   0.220   8.095   9.746
19783WAT     H259592   0.239   8.018   9.889
19784WAT      O59593   6.909   8.935   9.652
19784WAT     H159594   6.872   8.993   9.724
19784WAT     H259595   6.989   8.886   9.686
19785WAT      O59596   3.635   7.934   6.973
19785WAT     H159597   3.684   8.020   6.965
19785WAT     H259598   3.700   7.861   6.997
19786WAT      O59599   3.781   6.283   5.271
19786WAT     H159600   3.787   6.339   5.188
19786WAT     H259601   3.873   6.265   5.305
19787WAT      O59602   7.686   8.153   6.185
19787WAT     H159603   7.595   8.148   6.224
19787WAT     H259604   7.700   8.076   6.123
19788WAT      O59605   6.057   4.203   0.797
19788WAT     H159606   6.026   4.297   0.811
19788WAT     H259607   6.091   4.193   0.703
19789WAT      O59608   7.659   8.434   1.134
19789WAT     H159609   7.643   8.476   1.044
19789WAT     H259610   7.649   8.504   1.205
19790WAT      O59611   4.939   2.077   9.191
19790WAT     H159612   4.959   2.174   9.208
19790WAT     H259613   4.857   2.051   9.241
19791WAT      O59614   6.562   9.059   0.275
19791WAT     H159615   6.559   9.159   0.271
19791WAT     H259616   6.540   9.022   0.185
19792WAT      O59617   9.370   4.005   0.536
19792WAT     H159618   9.313   4.005   0.453
19792WAT     H259619   9.428   4.086   0.537
19793WAT      O59620   6.127   8.367   8.451
19793WAT     H159621   6.196   8.396   8.517
19793WAT     H259622   6.093   8.446   8.401
19794WAT      O59623   4.109   3.955   8.789
19794WAT     H159624   4.032   3.902   8.826
19794WAT     H259625   4.074   4.037   8.743
19795WAT      O59626   4.688   1.882   4.897
19795WAT     H159627   4.651   1.888   4.804
19795WAT     H259628   4.679   1.970   4.942
19796WAT      O59629   0.265   3.518   8.620
19796WAT     H159630   0.330   3.444   8.605
19796WAT     H259631   0.235   3.554   8.531
19797WAT      O59632   6.084   3.566   3.012
19797WAT     H159633   6.141   3.505   2.957
19797WAT     H259634   6.048   3.639   2.954
19798WAT      O59635   1.259   6.610   5.943
19798WAT     H159636   1.258   6.592   5.845
19798WAT     H259637   1.175   6.659   5.968
19799WAT      O59638   2.134   4.870   1.987
19799WAT     H159639   2.080   4.954   1.998
19799WAT     H259640   2.159   4.860   1.891
19800WAT      O59641   8.070   6.222   2.423
19800WAT     H159642   8.153   6.226   2.480
19800WAT     H259643   7.990   6.223   2.483
19801WAT      O59644   7.332   2.394   8.693
19801WAT     H159645   7.342   2.383   8.594
19801WAT     H259646   7.369   2.313   8.739
19802WAT      O59647   5.972   7.022   8.891
19802WAT     H159648   5.873   7.034   8.884
19802WAT     H259649   6.018   7.111   8.883
19803WAT      O59650   8.749   4.804   1.601
19803WAT     H159651   8.793   4.894   1.601
19803WAT     H259652   8.797   4.744   1.537
19804WAT      O59653   3.588   1.940   6.954
19804WAT     H159654   3.547   1.880   7.023
19804WAT     H259655   3.557   1.913   6.863
19805WAT      O59656   2.919   2.053   5.953
19805WAT     H159657   2.914   2.153   5.961
19805WAT     H259658   3.014   2.023   5.965
19806WAT      O59659   2.562   2.317   0.438
19806WAT     H159660   2.476   2.278   0.407
19806WAT     H259661   2.546   2.409   0.475
19807WAT      O59662   3.512   7.194   8.024
19807WAT     H159663   3.453   7.259   7.976
19807WAT     H259664   3.456   7.118   8.059
19808WAT      O59665   3.603   4.816   0.845
19808WAT     H159666   3.602   4.916   0.845
19808WAT     H259667   3.531   4.781   0.786
19809WAT      O59668   8.162   5.826   9.177
19809WAT     H159669   8.165   5.800   9.274
19809WAT     H259670   8.108   5.910   9.166
19810WAT      O59671   3.142   5.407   5.004
19810WAT     H159672   3.151   5.308   5.015
19810WAT     H259673   3.052   5.427   4.965
19811WAT      O59674   5.290   8.206   4.715
19811WAT     H159675   5.328   8.121   4.752
19811WAT     H259676   5.277   8.197   4.617
19812WAT      O59677   0.934   8.742   8.444
19812WAT     H159678   0.881   8.756   8.360
19812WAT     H259679   0.987   8.824   8.463
19813WAT      O59680   6.167   3.101   2.562
19813WAT     H159681   6.207   3.123   2.652
19813WAT     H259682   6.155   3.185   2.510
19814WAT      O59683   2.871   9.611   4.473
19814WAT     H159684   2.964   9.635   4.447
19814WAT     H259685   2.864   9.608   4.573
19815WAT      O59686   9.844   7.904   0.482
19815WAT     H159687   9.756   7.951   0.468
19815WAT     H259688   9.911   7.970   0.516
19816WAT      O59689   4.391   0.528   6.381
19816WAT     H159690   4.361   0.441   6.420
19816WAT     H259691   4.372   0.602   6.445
19817WAT      O59692   5.295   8.884   8.426
19817WAT     H159693   5.271   8.957   8.490
19817WAT     H259694   5.353   8.817   8.472
19818WAT      O59695   5.802   3.603   2.674
19818WAT     H159696   5.827   3.669   2.603
19818WAT     H259697   5.813   3.510   2.639
19819WAT      O59698   8.756   4.699   1.857
19819WAT     H159699   8.761   4.600   1.862
19819WAT     H259700   8.734   4.727   1.763
19820WAT      O59701   6.570   5.463   3.745
19820WAT     H159702   6.667   5.455   3.768
19820WAT     H259703   6.535   5.550   3.779
19821WAT      O59704   8.110   8.803   1.893
19821WAT     H159705   8.069   8.838   1.977
19821WAT     H259706   8.176   8.870   1.857
19822WAT      O59707   4.319   4.064   6.269
19822WAT     H159708   4.329   4.148   6.216
19822WAT     H259709   4.264   3.998   6.218
19823WAT      O59710   1.026   7.094   3.522
19823WAT     H159711   0.979   7.038   3.590
19823WAT     H259712   1.106   7.136   3.563
19824WAT      O59713   7.736   8.878   2.415
19824WAT     H159714   7.733   8.976   2.437
19824WAT     H259715   7.700   8.826   2.492
19825WAT      O59716   5.602   2.987   9.467
19825WAT     H159717   5.698   2.958   9.455
19825WAT     H259718   5.545   2.938   9.401
19826WAT      O59719   6.865   8.233   2.367
19826WAT     H159720   6.882   8.327   2.337
19826WAT     H259721   6.782   8.199   2.322
19827WAT      O59722   1.008   4.553   4.270
19827WAT     H159723   0.981   4.479   4.207
19827WAT     H259724   1.107   4.563   4.267
19828WAT      O59725   9.508   0.935   0.826
19828WAT     H159726   9.516   0.940   0.726
19828WAT     H259727   9.446   1.006   0.858
19829WAT      O59728   4.407   5.887   7.585
19829WAT     H159729   4.367   5.802   7.551
19829WAT     H259730   4.389   5.895   7.684
19830WAT      O59731   1.601   2.762   2.474
19830WAT     H159732   1.621   2.840   2.533
19830WAT     H259733   1.589   2.680   2.531
19831WAT      O59734   1.675   6.726   0.614
19831WAT     H159735   1.634   6.708   0.524
19831WAT     H259736   1.604   6.757   0.677
19832WAT      O59737   4.954   7.311   4.712
19832WAT     H159738   4.999   7.371   4.778
19832WAT     H259739   4.994   7.220   4.717
19833WAT      O59740   1.688   1.350   0.010
19833WAT     H159741   1.788   1.348   0.003
19833WAT     H259742   1.661   1.326   0.104
19834WAT      O59743   0.787   2.999   0.892
19834WAT     H159744   0.854   3.072   0.885
19834WAT     H259745   0.825   2.915   0.854
19835WAT      O59746   9.782   0.643   3.062
19835WAT     H159747   9.877   0.611   3.062
19835WAT     H259748   9.720   0.565   3.072
19836WAT      O59749   9.656   5.224   6.465
19836WAT     H159750   9.725   5.176   6.412
19836WAT     H259751   9.573   5.236   6.410
19837WAT      O59752   3.976   7.462   5.520
19837WAT     H159753   3.988   7.512   5.435
19837WAT     H259754   3.927   7.377   5.502
19838WAT      O59755   3.999   2.187   1.923
19838WAT     H159756   4.028   2.253   1.992
19838WAT     H259757   4.054   2.104   1.931
19839WAT      O59758   1.482   5.632   9.190
19839WAT     H159759   1.500   5.605   9.095
19839WAT     H259760   1.464   5.730   9.194
19840WAT      O59761   8.882   7.355   8.235
19840WAT     H159762   8.948   7.287   8.268
19840WAT     H259763   8.929   7.443   8.223
19841WAT      O59764   6.585   6.605   7.664
19841WAT     H159765   6.516   6.551   7.615
19841WAT     H259766   6.613   6.556   7.747
19842WAT      O59767   7.146   7.547   6.919
19842WAT     H159768   7.150   7.528   7.017
19842WAT     H259769   7.070   7.496   6.878
19843WAT      O59770   8.393   8.148   8.806
19843WAT     H159771   8.429   8.127   8.897
19843WAT     H259772   8.297   8.123   8.801
19844WAT      O59773   7.404   5.976   0.927
19844WAT     H159774   7.441   5.892   0.967
19844WAT     H259775   7.463   6.053   0.952
19845WAT      O59776   5.898   7.906   4.423
19845WAT     H159777   5.821   7.875   4.479
19845WAT     H259778   5.874   7.994   4.381
19846WAT      O59779   6.773   1.998   5.154
19846WAT     H159780   6.817   1.963   5.236
19846WAT     H259781   6.767   1.925   5.085
19847WAT      O59782   3.251   0.843   0.593
19847WAT     H159783   3.294   0.847   0.503
19847WAT     H259784   3.317   0.809   0.660
19848WAT      O59785   4.695   8.623   4.934
19848WAT     H159786   4.602   8.649   4.910
19848WAT     H259787   4.742   8.587   4.853
19849WAT      O59788   9.454   8.132   9.455
19849WAT     H159789   9.475   8.183   9.538
19849WAT     H259790   9.364   8.090   9.462
19850WAT      O59791   5.594   7.556   1.058
19850WAT     H159792   5.622   7.523   0.968
19850WAT     H259793   5.637   7.500   1.129
19851WAT      O59794   9.119   7.290   6.106
19851WAT     H159795   9.047   7.344   6.149
19851WAT     H259796   9.125   7.201   6.151
19852WAT      O59797   2.534   7.098   4.203
19852WAT     H159798   2.494   7.147   4.125
19852WAT     H259799   2.627   7.069   4.180
19853WAT      O59800   7.722   0.750   3.555
19853WAT     H159801   7.753   0.840   3.585
19853WAT     H259802   7.633   0.730   3.598
19854WAT      O59803   8.874   0.618   0.865
19854WAT     H159804   8.937   0.545   0.890
19854WAT     H259805   8.859   0.616   0.766
19855WAT      O59806   2.961   0.325   6.113
19855WAT     H159807   3.011   0.245   6.078
19855WAT     H259808   2.958   0.395   6.042
19856WAT      O59809   3.205   3.103   0.705
19856WAT     H159810   3.188   3.191   0.747
19856WAT     H259811   3.245   3.040   0.772
19857WAT      O59812   3.253   9.720   5.892
19857WAT     H159813   3.276   9.640   5.947
19857WAT     H259814   3.329   9.743   5.832
19858WAT      O59815   4.422   8.453   5.477
19858WAT     H159816   4.344   8.506   5.511
19858WAT     H259817   4.498   8.462   5.541
19859WAT      O59818   1.486   0.655   8.637
19859WAT     H159819   1.442   0.651   8.547
19859WAT     H259820   1.416   0.657   8.708
19860WAT      O59821   9.043   2.811   8.067
19860WAT     H159822   9.040   2.712   8.079
19860WAT     H259823   9.039   2.833   7.969
19861WAT      O59824   5.576   8.267   7.964
19861WAT     H159825   5.480   8.250   7.985
19861WAT     H259826   5.633   8.224   8.033
19862WAT      O59827   0.734   3.935   0.576
19862WAT     H159828   0.754   3.918   0.673
19862WAT     H259829   0.754   4.030   0.554
19863WAT      O59830   2.217   9.543   1.752
19863WAT     H159831   2.173   9.610   1.692
19863WAT     H259832   2.160   9.462   1.758
19864WAT      O59833   8.715   0.873   0.386
19864WAT     H159834   8.661   0.889   0.468
19864WAT     H259835   8.736   0.775   0.378
19865WAT      O59836   8.094   2.463   4.817
19865WAT     H159837   8.152   2.531   4.772
19865WAT     H259838   8.037   2.507   4.886
19866WAT      O59839   6.353   5.380   2.740
19866WAT     H159840   6.255   5.395   2.753
19866WAT     H259841   6.397   5.363   2.829
19867WAT      O59842   1.413   8.057   9.658
19867WAT     H159843   1.503   8.014   9.657
19867WAT     H259844   1.406   8.119   9.736
19868WAT      O59845   2.556   9.015   4.188
19868WAT     H159846   2.599   9.104   4.173
19868WAT     H259847   2.478   9.026   4.249
19869WAT      O59848   6.437   7.980   2.276
19869WAT     H159849   6.466   7.885   2.279
19869WAT     H259850   6.392   8.004   2.362
19870WAT      O59851   3.994   8.241   7.567
19870WAT     H159852   3.993   8.243   7.467
19870WAT     H259853   3.905   8.209   7.600
19871WAT      O59854   8.359   3.050   5.466
19871WAT     H159855   8.318   3.126   5.415
19871WAT     H259856   8.454   3.037   5.436
19872WAT      O59857   1.524   3.370   1.267
19872WAT     H159858   1.573   3.284   1.251
19872WAT     H259859   1.452   3.355   1.334
19873WAT      O59860   8.569   2.973   5.301
19873WAT     H159861   8.575   3.055   5.245
19873WAT     H259862   8.608   2.895   5.252
19874WAT      O59863   7.304   8.556   5.622
19874WAT     H159864   7.347   8.594   5.704
19874WAT     H259865   7.354   8.587   5.541
19875WAT      O59866   7.232   4.044   1.904
19875WAT     H159867   7.285   4.124   1.932
19875WAT     H259868   7.275   4.002   1.824
19876WAT      O59869   2.489   5.565   5.991
19876WAT     H159870   2.501   5.474   6.030
19876WAT     H259871   2.536   5.570   5.903
19877WAT      O59872   5.003   4.661   9.787
19877WAT     H159873   4.932   4.703   9.730
19877WAT     H259874   4.968   4.650   9.880
19878WAT      O59875   9.352   8.668   8.735
19878WAT     H159876   9.295   8.692   8.657
19878WAT     H259877   9.361   8.748   8.795
19879WAT      O59878   9.355   4.729   2.309
19879WAT     H159879   9.426   4.795   2.334
19879WAT     H259880   9.365   4.703   2.214
19880WAT      O59881   5.563   9.662   8.898
19880WAT     H159882   5.580   9.709   8.811
19880WAT     H259883   5.477   9.694   8.937
19881WAT      O59884   4.695   1.222   1.071
19881WAT     H159885   4.645   1.247   1.154
19881WAT     H259886   4.741   1.134   1.086
19882WAT      O59887   6.186   4.218   5.995
19882WAT     H159888   6.129   4.211   6.076
19882WAT     H259889   6.193   4.129   5.950
19883WAT      O59890   9.155   3.446   3.062
19883WAT     H159891   9.063   3.452   3.100
19883WAT     H259892   9.173   3.352   3.032
19884WAT      O59893   4.258   7.910   0.822
19884WAT     H159894   4.301   7.998   0.842
19884WAT     H259895   4.211   7.915   0.734
19885WAT      O59896   3.472   4.779   7.053
19885WAT     H159897   3.442   4.869   7.021
19885WAT     H259898   3.502   4.786   7.148
19886WAT      O59899   5.991   2.727   3.280
19886WAT     H159900   6.032   2.636   3.287
19886WAT     H259901   5.959   2.742   3.187
19887WAT      O59902   1.684   4.087   1.519
19887WAT     H159903   1.776   4.065   1.552
19887WAT     H259904   1.629   4.123   1.595
19888WAT      O59905   7.172   5.293   2.153
19888WAT     H159906   7.173   5.371   2.216
19888WAT     H259907   7.246   5.230   2.177
19889WAT      O59908   2.444   8.938   5.453
19889WAT     H159909   2.357   8.980   5.427
19889WAT     H259910   2.517   9.006   5.449
19890WAT      O59911   8.037   4.590   3.937
19890WAT     H159912   7.991   4.670   3.898
19890WAT     H259913   8.099   4.620   4.010
19891WAT      O59914   2.454   0.896   0.880
19891WAT     H159915   2.445   0.920   0.784
19891WAT     H259916   2.551   0.889   0.904
19892WAT      O59917   1.231   8.741   2.221
19892WAT     H159918   1.238   8.730   2.320
19892WAT     H259919   1.191   8.659   2.180
19893WAT      O59920   3.710   4.154   8.571
19893WAT     H159921   3.783   4.136   8.636
19893WAT     H259922   3.705   4.080   8.504
19894WAT      O59923   5.248   0.918   5.051
19894WAT     H159924   5.231   0.888   4.957
19894WAT     H259925   5.202   1.005   5.067
19895WAT      O59926   0.716   1.900   2.463
19895WAT     H159927   0.815   1.896   2.451
19895WAT     H259928   0.677   1.810   2.446
19896WAT      O59929   1.491   7.206   0.933
19896WAT     H159930   1.415   7.197   0.868
19896WAT     H259931   1.458   7.192   1.026
19897WAT      O59932   8.993   7.049   3.254
19897WAT     H159933   8.988   7.080   3.160
19897WAT     H259934   8.969   7.124   3.315
19898WAT      O59935   6.575   8.338   2.003
19898WAT     H159936   6.484   8.352   1.964
19898WAT     H259937   6.623   8.425   2.009
19899WAT      O59938   0.862   3.144   7.086
19899WAT     H159939   0.843   3.097   7.000
19899WAT     H259940   0.930   3.093   7.139
19900WAT      O59941   1.704   2.044   9.550
19900WAT     H159942   1.695   2.081   9.642
19900WAT     H259943   1.626   1.985   9.530
19901WAT      O59944   2.886   6.038   2.092
19901WAT     H159945   2.959   6.060   2.158
19901WAT     H259946   2.927   6.022   2.002
19902WAT      O59947   0.794   9.230   9.515
19902WAT     H159948   0.717   9.277   9.471
19902WAT     H259949   0.763   9.140   9.547
19903WAT      O59950   8.075   4.650   4.292
19903WAT     H159951   7.997   4.696   4.333
19903WAT     H259952   8.115   4.709   4.222
19904WAT      O59953   6.098   6.461   7.134
19904WAT     H159954   6.085   6.487   7.038
19904WAT     H259955   6.020   6.492   7.188
19905WAT      O59956   9.443   0.925   6.200
19905WAT     H159957   9.466   0.989   6.127
19905WAT     H259958   9.344   0.915   6.206
19906WAT      O59959   8.861   9.533   7.499
19906WAT     H159960   8.780   9.528   7.557
19906WAT     H259961   8.874   9.445   7.452
19907WAT      O59962   2.643   8.546   2.384
19907WAT     H159963   2.736   8.559   2.417
19907WAT     H259964   2.634   8.454   2.345
19908WAT      O59965   1.879   9.053   7.630
19908WAT     H159966   1.851   8.963   7.664
19908WAT     H259967   1.972   9.047   7.593
19909WAT      O59968   5.084   5.154   1.650
19909WAT     H159969   5.030   5.238   1.653
19909WAT     H259970   5.054   5.098   1.573
19910WAT      O59971   2.564   2.164   2.524
19910WAT     H159972   2.577   2.158   2.425
19910WAT     H259973   2.544   2.073   2.561
19911WAT      O59974   5.035   7.255   1.653
19911WAT     H159975   4.980   7.194   1.597
19911WAT     H259976   4.984   7.339   1.672
19912WAT      O59977   4.640   3.761   5.266
19912WAT     H159978   4.628   3.705   5.183
19912WAT     H259979   4.679   3.705   5.339
19913WAT      O59980   1.090   4.542   6.293
19913WAT     H159981   1.130   4.626   6.329
19913WAT     H259982   1.110   4.534   6.195
19914WAT      O59983   2.426   0.807   9.271
19914WAT     H159984   2.433   0.815   9.172
19914WAT     H259985   2.346   0.858   9.303
19915WAT      O59986   8.652   5.833   6.275
19915WAT     H159987   8.653   5.819   6.176
19915WAT     H259988   8.587   5.905   6.298
19916WAT      O59989   6.229   6.639   3.084
19916WAT     H159990   6.235   6.596   3.174
19916WAT     H259991   6.160   6.712   3.086
19917WAT      O59992   2.317   2.678   2.654
19917WAT     H159993   2.322   2.715   2.561
19917WAT     H259994   2.388   2.609   2.667
19918WAT      O59995   8.894   2.349   8.972
19918WAT     H159996   8.991   2.362   8.953
19918WAT     H259997   8.868   2.256   8.946
19919WAT      O59998   9.750   0.605   0.024
19919WAT     H159999   9.778   0.688   0.072
19919WAT     H260000   9.772   0.525   0.079
19920WAT      O60001   1.179   5.932   6.116
19920WAT     H160002   1.080   5.929   6.102
19920WAT     H260003   1.222   5.981   6.040
19921WAT      O60004   5.925   0.153   6.137
19921WAT     H160005   5.887   0.063   6.159
19921WAT     H260006   5.993   0.145   6.064
19922WAT      O60007   1.970   0.760   6.001
19922WAT     H160008   1.950   0.715   6.089
19922WAT     H260009   1.928   0.850   5.999
19923WAT      O60010   4.991   4.733   3.337
19923WAT     H160011   5.003   4.693   3.246
19923WAT     H260012   4.896   4.764   3.348
19924WAT      O60013   2.360   5.215   7.734
19924WAT     H160014   2.303   5.172   7.664
19924WAT     H260015   2.351   5.314   7.729
19925WAT      O60016   1.046   4.612   6.035
19925WAT     H160017   1.113   4.685   6.041
19925WAT     H260018   0.961   4.648   5.996
19926WAT      O60019   0.435   7.285   0.076
19926WAT     H160020   0.387   7.354   0.022
19926WAT     H260021   0.449   7.318   0.169
19927WAT      O60022   0.848   1.777   1.555
19927WAT     H160023   0.832   1.730   1.469
19927WAT     H260024   0.794   1.734   1.628
19928WAT      O60025   6.697   0.786   8.276
19928WAT     H160026   6.646   0.869   8.299
19928WAT     H260027   6.756   0.760   8.352
19929WAT      O60028   8.782   8.754   8.962
19929WAT     H160029   8.703   8.695   8.945
19929WAT     H260030   8.767   8.805   9.047
19930WAT      O60031   3.370   3.520   2.773
19930WAT     H160032   3.396   3.615   2.789
19930WAT     H260033   3.430   3.480   2.704
19931WAT      O60034   0.787   2.399   1.356
19931WAT     H160035   0.740   2.360   1.277
19931WAT     H260036   0.735   2.477   1.391
19932WAT      O60037   0.412   5.997   2.222
19932WAT     H160038   0.499   5.990   2.173
19932WAT     H260039   0.408   5.928   2.294
19933WAT      O60040   4.264   5.489   8.271
19933WAT     H160041   4.195   5.541   8.320
19933WAT     H260042   4.297   5.415   8.329
19934WAT      O60043   0.101   8.697   9.587
19934WAT     H160044   0.051   8.685   9.672
19934WAT     H260045   0.175   8.762   9.600
19935WAT      O60046   1.804   7.635   7.439
19935WAT     H160047   1.885   7.629   7.497
19935WAT     H260048   1.747   7.712   7.468
19936WAT      O60049   9.107   8.237   4.493
19936WAT     H160050   9.103   8.264   4.590
19936WAT     H260051   9.072   8.144   4.483
19937WAT      O60052   4.907   8.134   9.015
19937WAT     H160053   4.904   8.230   9.040
19937WAT     H260054   4.951   8.082   9.088
19938WAT      O60055   3.748   4.846   2.762
19938WAT     H160056   3.804   4.925   2.735
19938WAT     H260057   3.804   4.763   2.760
19939WAT      O60058   5.251   4.770   2.994
19939WAT     H160059   5.178   4.788   2.928
19939WAT     H260060   5.239   4.831   3.073
19940WAT      O60061   2.121   3.364   6.956
19940WAT     H160062   2.114   3.290   6.889
19940WAT     H260063   2.129   3.325   7.047
19941WAT      O60064   0.111   5.339   3.178
19941WAT     H160065   0.045   5.341   3.253
19941WAT     H260066   0.162   5.252   3.181
19942WAT      O60067   9.456   8.815   6.525
19942WAT     H160068   9.425   8.850   6.614
19942WAT     H260069   9.529   8.873   6.489
19943WAT      O60070   4.579   2.761   6.741
19943WAT     H160071   4.503   2.737   6.681
19943WAT     H260072   4.547   2.824   6.811
19944WAT      O60073   0.221   4.601   4.640
19944WAT     H160074   0.177   4.639   4.721
19944WAT     H260075   0.290   4.534   4.667
19945WAT      O60076   8.611   0.919   7.523
19945WAT     H160077   8.623   0.841   7.584
19945WAT     H260078   8.555   0.893   7.444
19946WAT      O60079   8.312   6.740   2.246
19946WAT     H160080   8.266   6.808   2.304
19946WAT     H260081   8.409   6.739   2.267
19947WAT      O60082   0.508   5.491   4.615
19947WAT     H160083   0.515   5.525   4.520
19947WAT     H260084   0.586   5.526   4.668
19948WAT      O60085   8.223   5.816   3.020
19948WAT     H160086   8.168   5.734   3.008
19948WAT     H260087   8.173   5.895   2.984
19949WAT      O60088   0.537   6.626   3.129
19949WAT     H160089   0.576   6.662   3.044
19949WAT     H260090   0.472   6.692   3.166
19950WAT      O60091   1.195   3.469   8.711
19950WAT     H160092   1.259   3.527   8.661
19950WAT     H260093   1.235   3.378   8.724
19951WAT      O60094   8.397   6.933   8.296
19951WAT     H160095   8.416   7.021   8.338
19951WAT     H260096   8.475   6.871   8.309
19952WAT      O60097   0.271   9.322   1.970
19952WAT     H160098   0.195   9.296   1.911
19952WAT     H260099   0.349   9.350   1.914
19953WAT      O60100   0.451   8.111   6.025
19953WAT     H160101   0.520   8.044   6.053
19953WAT     H260102   0.387   8.126   6.100
19954WAT      O60103   8.099   5.399   7.209
19954WAT     H160104   8.183   5.353   7.179
19954WAT     H260105   8.081   5.376   7.305
19955WAT      O60106   8.039   4.380   2.749
19955WAT     H160107   8.131   4.415   2.735
19955WAT     H260108   7.977   4.456   2.770
19956WAT      O60109   5.363   6.214   4.391
19956WAT     H160110   5.449   6.183   4.432
19956WAT     H260111   5.286   6.170   4.438
19957WAT      O60112   6.113   4.063   5.029
19957WAT     H160113   6.092   4.115   5.112
19957WAT     H260114   6.078   3.970   5.038
19958WAT      O60115   0.409   4.386   4.661
19958WAT     H160116   0.403   4.319   4.735
19958WAT     H260117   0.506   4.404   4.640
19959WAT      O60118   2.801   0.083   8.790
19959WAT     H160119   2.739   0.120   8.720
19959WAT     H260120   2.882   0.045   8.746
19960WAT      O60121   7.651   8.235   5.086
19960WAT     H160122   7.646   8.175   5.166
19960WAT     H260123   7.578   8.212   5.022
19961WAT      O60124   3.625   1.815   3.220
19961WAT     H160125   3.695   1.791   3.287
19961WAT     H260126   3.652   1.782   3.130
19962WAT      O60127   6.328   5.150   2.545
19962WAT     H160128   6.350   5.207   2.624
19962WAT     H260129   6.233   5.167   2.517
19963WAT      O60130   0.617   0.221   0.954
19963WAT     H160131   0.531   0.193   0.996
19963WAT     H260132   0.602   0.241   0.857
19964WAT      O60133   7.311   8.959   1.250
19964WAT     H160134   7.352   9.026   1.188
19964WAT     H260135   7.343   8.867   1.225
19965WAT      O60136   0.259   3.604   6.612
19965WAT     H160137   0.182   3.642   6.562
19965WAT     H260138   0.288   3.519   6.568
19966WAT      O60139   8.853   6.379   4.770
19966WAT     H160140   8.787   6.304   4.764
19966WAT     H260141   8.924   6.367   4.701
19967WAT      O60142   2.248   8.748   6.624
19967WAT     H160143   2.185   8.825   6.634
19967WAT     H260144   2.329   8.763   6.681
19968WAT      O60145   5.496   0.193   2.721
19968WAT     H160146   5.467   0.245   2.802
19968WAT     H260147   5.536   0.256   2.654
19969WAT      O60148   8.298   8.974   1.751
19969WAT     H160149   8.313   9.068   1.783
19969WAT     H260150   8.315   8.970   1.652
19970WAT      O60151   0.439   1.766   4.313
19970WAT     H160152   0.444   1.802   4.405
19970WAT     H260153   0.380   1.824   4.257
19971WAT      O60154   2.126   7.124   1.531
19971WAT     H160155   2.049   7.146   1.592
19971WAT     H260156   2.112   7.167   1.442
19972WAT      O60157   6.250   7.514   4.089
19972WAT     H160158   6.335   7.461   4.083
19972WAT     H260159   6.191   7.473   4.158
19973WAT      O60160   8.991   5.012   0.124
19973WAT     H160161   9.058   5.081   0.098
19973WAT     H260162   9.034   4.921   0.120
19974WAT      O60163   1.426   7.185   5.573
19974WAT     H160164   1.447   7.161   5.478
19974WAT     H260165   1.334   7.224   5.577
19975WAT      O60166   0.171   1.725   2.052
19975WAT     H160167   0.172   1.664   1.973
19975WAT     H260168   0.131   1.677   2.130
19976WAT      O60169   1.432   4.959   2.902
19976WAT     H160170   1.516   5.008   2.880
19976WAT     H260171   1.403   4.983   2.995
19977WAT      O60172   8.847   7.981   4.585
19977WAT     H160173   8.798   8.045   4.644
19977WAT     H260174   8.945   7.986   4.603
19978WAT      O60175   8.489   1.345   3.829
19978WAT     H160176   8.494   1.262   3.884
19978WAT     H260177   8.402   1.391   3.846
19979WAT      O60178   7.979   2.856   4.582
19979WAT     H160179   7.899   2.916   4.573
19979WAT     H260180   8.019   2.868   4.673
19980WAT      O60181   1.542   4.398   2.573
19980WAT     H160182   1.585   4.419   2.485
19980WAT     H260183   1.461   4.341   2.558
19981WAT      O60184   1.826   6.035   7.922
19981WAT     H160185   1.748   5.989   7.965
19981WAT     H260186   1.897   5.967   7.902
19982WAT      O60187   4.406   2.530   7.656
19982WAT     H160188   4.308   2.509   7.663
19982WAT     H260189   4.417   2.615   7.604
19983WAT      O60190   9.072   5.868   3.494
19983WAT     H160191   9.085   5.931   3.570
19983WAT     H260192   9.080   5.774   3.528
19984WAT      O60193   3.537   7.871   7.910
19984WAT     H160194   3.438   7.864   7.910
19984WAT     H260195   3.577   7.786   7.945
19985WAT      O60196   0.452   1.123   8.951
19985WAT     H160197   0.529   1.175   8.988
19985WAT     H260198   0.414   1.171   8.872
19986WAT      O60199   9.415   7.219   2.506
19986WAT     H160200   9.454   7.127   2.503
19986WAT     H260201   9.487   7.285   2.526
19987WAT      O60202   3.802   2.129   9.223
19987WAT     H160203   3.820   2.140   9.320
19987WAT     H260204   3.863   2.189   9.171
19988WAT      O60205   2.042   6.275   0.062
19988WAT     H160206   2.116   6.276   0.129
19988WAT     H260207   1.954   6.281   0.110
19989WAT      O60208   0.314  -0.001   6.363
19989WAT     H160209   0.264   0.083   6.342
19989WAT     H260210   0.250  -0.068   6.400
19990WAT      O60211   2.506   0.924   1.311
19990WAT     H160212   2.488   0.955   1.405
19990WAT     H260213   2.440   0.852   1.287
19991WAT      O60214   3.489   9.251   8.691
19991WAT     H160215   3.425   9.217   8.759
19991WAT     H260216   3.509   9.179   8.624
19992WAT      O60217   7.802   5.684   4.657
19992WAT     H160218   7.848   5.607   4.701
19992WAT     H260219   7.761   5.653   4.571
19993WAT      O60220   3.321   3.641   9.233
19993WAT     H160221   3.273   3.619   9.319
19993WAT     H260222   3.309   3.738   9.213
19994WAT      O60223   6.124   7.815   7.767
19994WAT     H160224   6.126   7.904   7.723
19994WAT     H260225   6.029   7.784   7.777
19995WAT      O60226   5.816   0.358   5.432
19995WAT     H160227   5.842   0.388   5.340
19995WAT     H260228   5.884   0.292   5.466
19996WAT      O60229   1.264   5.546   0.737
19996WAT     H160230   1.353   5.580   0.706
19996WAT     H260231   1.191   5.606   0.701
19997WAT      O60232   2.914   2.894   5.918
19997WAT     H160233   2.871   2.984   5.907
19997WAT     H260234   2.951   2.886   6.011
19998WAT      O60235   3.304   2.785   9.029
19998WAT     H160236   3.339   2.709   9.085
19998WAT     H260237   3.293   2.753   8.935
19999WAT      O60238   3.698   5.078   3.689
19999WAT     H160239   3.645   5.139   3.631
19999WAT     H260240   3.790   5.116   3.704
20000WAT      O60241   6.129   7.713   9.185
20000WAT     H160242   6.093   7.805   9.165
20000WAT     H260243   6.190   7.718   9.264
20001WAT      O60244   5.459   0.560   5.166
20001WAT     H160245   5.521   0.582   5.091
20001WAT     H260246   5.421   0.645   5.204
20002WAT      O60247   5.175   6.231   1.187
20002WAT     H160248   5.236   6.308   1.204
20002WAT     H260249   5.176   6.208   1.090
20003WAT      O60250   4.064   6.638   6.727
20003WAT     H160251   4.002   6.644   6.649
20003WAT     H260252   4.019   6.590   6.802
20004WAT      O60253   8.937   7.568   6.758
20004WAT     H160254   9.026   7.572   6.804
20004WAT     H260255   8.900   7.661   6.749
20005WAT      O60256   7.869   6.723   8.303
20005WAT     H160257   7.959   6.758   8.330
20005WAT     H260258   7.820   6.693   8.385
20006WAT      O60259   4.587   6.072   8.688
20006WAT     H160260   4.550   6.164   8.674
20006WAT     H260261   4.514   6.005   8.677
20007WAT      O60262   9.595   4.894   7.441
20007WAT     H160263   9.626   4.971   7.384
20007WAT     H260264   9.495   4.889   7.439
20008WAT      O60265   2.805   1.918   9.374
20008WAT     H160266   2.734   1.856   9.409
20008WAT     H260267   2.843   1.971   9.449
20009WAT      O60268   1.787   3.078   4.694
20009WAT     H160269   1.728   3.159   4.684
20009WAT     H260270   1.793   3.054   4.791
20010WAT      O60271   7.692   5.244   0.456
20010WAT     H160272   7.717   5.243   0.553
20010WAT     H260273   7.615   5.183   0.441
20011WAT      O60274   1.227   0.797   7.111
20011WAT     H160275   1.178   0.872   7.155
20011WAT     H260276   1.186   0.710   7.137
20012WAT      O60277   6.768   5.524   5.581
20012WAT     H160278   6.703   5.552   5.652
20012WAT     H260279   6.736   5.556   5.492
20013WAT      O60280   3.328   8.343   6.180
20013WAT     H160281   3.404   8.349   6.116
20013WAT     H260282   3.278   8.258   6.165
20014WAT      O60283   7.876   5.966   1.608
20014WAT     H160284   7.849   6.044   1.665
20014WAT     H260285   7.895   5.887   1.666
20015WAT      O60286   4.335   8.004   2.389
20015WAT     H160287   4.385   8.014   2.475
20015WAT     H260288   4.257   7.943   2.403
20016WAT      O60289   1.615   4.154   8.503
20016WAT     H160290   1.528   4.105   8.502
20016WAT     H260291   1.644   4.172   8.410
20017WAT      O60292   3.872   7.338   0.228
20017WAT     H160293   3.940   7.270   0.255
20017WAT     H260294   3.898   7.379   0.140
20018WAT      O60295   7.706   9.298   5.974
20018WAT     H160296   7.770   9.290   5.898
20018WAT     H260297   7.666   9.208   5.994
20019WAT      O60298   2.784   7.992   6.820
20019WAT     H160299   2.852   8.056   6.857
20019WAT     H260300   2.830   7.920   6.769
20020WAT      O60301   2.800   8.317   8.400
20020WAT     H160302   2.853   8.399   8.421
20020WAT     H260303   2.704   8.333   8.425
20021WAT      O60304   7.763   8.769   0.104
20021WAT     H160305   7.685   8.706   0.103
20021WAT     H260306   7.843   8.723   0.142
20022WAT      O60307   2.517   2.865   3.852
20022WAT     H160308   2.453   2.905   3.918
20022WAT     H260309   2.606   2.909   3.861
20023WAT      O60310   1.616   5.101   0.978
20023WAT     H160311   1.550   5.036   1.018
20023WAT     H260312   1.568   5.160   0.913
20024WAT      O60313   8.693   4.148   4.296
20024WAT     H160314   8.694   4.113   4.390
20024WAT     H260315   8.644   4.083   4.237
20025WAT      O60316   9.159   4.934   2.440
20025WAT     H160317   9.165   5.032   2.425
20025WAT     H260318   9.233   4.887   2.392
20026WAT      O60319   7.331   8.826   6.782
20026WAT     H160320   7.352   8.823   6.685
20026WAT     H260321   7.251   8.884   6.797
20027WAT      O60322   0.721   8.039   6.753
20027WAT     H160323   0.677   7.958   6.792
20027WAT     H260324   0.821   8.028   6.758
20028WAT      O60325   7.091   1.395   1.645
20028WAT     H160326   7.185   1.430   1.649
20028WAT     H260327   7.042   1.424   1.727
20029WAT      O60328   0.073   8.810   3.533
20029WAT     H160329   0.116   8.816   3.623
20029WAT     H260330   0.090   8.895   3.482
20030WAT      O60331   9.236   7.035   7.590
20030WAT     H160332   9.301   7.096   7.634
20030WAT     H260333   9.210   7.072   7.501
20031WAT      O60334   4.213   6.997   7.699
20031WAT     H160335   4.135   6.971   7.756
20031WAT     H260336   4.298   6.964   7.741
20032WAT      O60337   9.812   0.745   1.846
20032WAT     H160338   9.887   0.759   1.781
20032WAT     H260339   9.840   0.780   1.936
20033WAT      O60340   3.767   9.556   2.173
20033WAT     H160341   3.789   9.459   2.177
20033WAT     H260342   3.722   9.585   2.258
20034WAT      O60343   5.859   7.905   3.432
20034WAT     H160344   5.799   7.984   3.439
20034WAT     H260345   5.830   7.849   3.354
20035WAT      O60346   7.967   4.003   3.602
20035WAT     H160347   8.041   4.068   3.584
20035WAT     H260348   7.997   3.935   3.669
20036WAT      O60349   4.648   9.528   2.688
20036WAT     H160350   4.696   9.590   2.750
20036WAT     H260351   4.549   9.535   2.702
20037WAT      O60352   1.446   7.918   4.406
20037WAT     H160353   1.468   7.972   4.487
20037WAT     H260354   1.426   7.980   4.330
20038WAT      O60355   6.866   0.904   4.910
20038WAT     H160356   6.905   0.883   4.999
20038WAT     H260357   6.857   1.003   4.900
20039WAT      O60358   3.616   1.007   8.831
20039WAT     H160359   3.685   1.032   8.764
20039WAT     H260360   3.625   1.065   8.912
20040WAT      O60361   9.440   7.908   0.613
20040WAT     H160362   9.389   7.825   0.594
20040WAT     H260363   9.389   7.965   0.677
20041WAT      O60364   4.207   4.935   6.574
20041WAT     H160365   4.290   4.944   6.518
20041WAT     H260366   4.232   4.904   6.665
20042WAT      O60367   8.888   5.884   8.962
20042WAT     H160368   8.937   5.922   8.883
20042WAT     H260369   8.880   5.954   9.033
20043WAT      O60370   3.978   6.785   5.436
20043WAT     H160371   3.911   6.764   5.507
20043WAT     H260372   4.032   6.702   5.416
20044WAT      O60373   3.278   4.599   5.509
20044WAT     H160374   3.335   4.658   5.567
20044WAT     H260375   3.267   4.510   5.553
20045WAT      O60376   7.415   2.517   8.388
20045WAT     H160377   7.400   2.418   8.386
20045WAT     H260378   7.489   2.541   8.326
20046WAT      O60379   2.993   0.223   2.706
20046WAT     H160380   2.957   0.307   2.666
20046WAT     H260381   3.014   0.157   2.634
20047WAT      O60382   0.937   4.166   9.805
20047WAT     H160383   0.845   4.127   9.812
20047WAT     H260384   0.963   4.206   9.893
20048WAT      O60385   0.822   7.772   4.974
20048WAT     H160386   0.880   7.728   5.043
20048WAT     H260387   0.726   7.747   4.990
20049WAT      O60388   9.280   0.194   4.650
20049WAT     H160389   9.229   0.253   4.588
20049WAT     H260390   9.248   0.208   4.743
20050WAT      O60391   8.071   5.314   5.549
20050WAT     H160392   8.140   5.251   5.514
20050WAT     H260393   8.109   5.406   5.553
20051WAT      O60394   2.438   7.909   6.112
20051WAT     H160395   2.389   7.872   6.191
20051WAT     H260396   2.525   7.861   6.101
20052WAT      O60397   1.496   4.904   4.130
20052WAT     H160398   1.484   4.872   4.036
20052WAT     H260399   1.407   4.913   4.174
20053WAT      O60400   4.328   3.268   3.767
20053WAT     H160401   4.344   3.304   3.859
20053WAT     H260402   4.249   3.206   3.769
20054WAT      O60403   2.377   4.470   1.053
20054WAT     H160404   2.336   4.476   1.144
20054WAT     H260405   2.428   4.553   1.033
20055WAT      O60406   7.070   4.881   8.438
20055WAT     H160407   6.995   4.897   8.373
20055WAT     H260408   7.144   4.945   8.419
20056WAT      O60409   2.070   1.370   5.242
20056WAT     H160410   2.087   1.469   5.249
20056WAT     H260411   2.157   1.321   5.241
20057WAT      O60412   1.107   8.349   0.934
20057WAT     H160413   1.011   8.319   0.929
20057WAT     H260414   1.159   8.284   0.989
20058WAT      O60415   4.721   6.673   8.223
20058WAT     H160416   4.663   6.593   8.234
20058WAT     H260417   4.666   6.748   8.185
20059WAT      O60418   2.184   4.800   5.282
20059WAT     H160419   2.206   4.745   5.202
20059WAT     H260420   2.090   4.780   5.311
20060WAT      O60421   8.174   4.408   9.701
20060WAT     H160422   8.199   4.502   9.678
20060WAT     H260423   8.092   4.382   9.649
20061WAT      O60424   3.270   1.860   4.923
20061WAT     H160425   3.295   1.948   4.882
20061WAT     H260426   3.341   1.793   4.902
20062WAT      O60427   7.601   3.375   5.553
20062WAT     H160428   7.588   3.278   5.531
20062WAT     H260429   7.696   3.400   5.536
20063WAT      O60430   4.261   7.793   3.790
20063WAT     H160431   4.163   7.804   3.805
20063WAT     H260432   4.279   7.786   3.692
20064WAT      O60433   0.873   1.021   2.024
20064WAT     H160434   0.779   0.989   2.016
20064WAT     H260435   0.905   1.010   2.118
20065WAT      O60436   4.182   1.205   0.634
20065WAT     H160437   4.104   1.146   0.650
20065WAT     H260438   4.152   1.301   0.633
20066WAT      O60439   1.390   5.698   1.231
20066WAT     H160440   1.470   5.686   1.172
20066WAT     H260441   1.371   5.612   1.278
20067WAT      O60442   3.382   5.845   2.134
20067WAT     H160443   3.354   5.807   2.046
20067WAT     H260444   3.359   5.942   2.137
20068WAT      O60445   0.533   4.513   5.957
20068WAT     H160446   0.584   4.495   5.873
20068WAT     H260447   0.580   4.582   6.011
20069WAT      O60448   6.785   5.365   4.108
20069WAT     H160449   6.878   5.367   4.073
20069WAT     H260450   6.770   5.278   4.155
20070WAT      O60451   5.302   7.659   4.530
20070WAT     H160452   5.361   7.587   4.568
20070WAT     H260453   5.353   7.709   4.459
20071WAT      O60454   9.269   8.262   6.092
20071WAT     H160455   9.334   8.240   6.165
20071WAT     H260456   9.241   8.357   6.099
20072WAT      O60457   4.079   2.848   3.540
20072WAT     H160458   3.986   2.813   3.527
20072WAT     H260459   4.075   2.944   3.567
20073WAT      O60460   4.146   0.668   2.483
20073WAT     H160461   4.061   0.710   2.513
20073WAT     H260462   4.165   0.587   2.538
20074WAT      O60463   0.653   8.323   1.681
20074WAT     H160464   0.690   8.254   1.743
20074WAT     H260465   0.712   8.331   1.601
20075WAT      O60466   6.579   3.029   5.479
20075WAT     H160467   6.588   2.931   5.462
20075WAT     H260468   6.548   3.075   5.395
20076WAT      O60469   8.026   6.188   9.240
20076WAT     H160470   8.022   6.183   9.141
20076WAT     H260471   8.121   6.179   9.270
20077WAT      O60472   1.752   0.086   1.482
20077WAT     H160473   1.787   0.123   1.397
20077WAT     H260474   1.709   0.159   1.535
20078WAT      O60475   9.037   8.330   3.635
20078WAT     H160476   8.938   8.341   3.635
20078WAT     H260477   9.066   8.283   3.718
20079WAT      O60478   8.391   3.041   2.328
20079WAT     H160479   8.331   3.120   2.338
20079WAT     H260480   8.476   3.070   2.283
20080WAT      O60481   1.972   8.975   2.056
20080WAT     H160482   1.918   9.055   2.031
20080WAT     H260483   1.962   8.958   2.154
20081WAT      O60484   2.376   8.817   2.850
20081WAT     H160485   2.394   8.724   2.820
20081WAT     H260486   2.462   8.864   2.868
20082WAT      O60487   6.067   0.941   3.384
20082WAT     H160488   6.152   0.929   3.332
20082WAT     H260489   5.990   0.913   3.327
20083WAT      O60490   2.429   9.453   3.062
20083WAT     H160491   2.420   9.550   3.038
20083WAT     H260492   2.488   9.444   3.142
20084WAT      O60493   5.365   9.710   8.623
20084WAT     H160494   5.465   9.718   8.623
20084WAT     H260495   5.329   9.741   8.535
20085WAT      O60496   2.713   0.225   1.662
20085WAT     H160497   2.675   0.190   1.576
20085WAT     H260498   2.812   0.210   1.663
20086WAT      O60499   3.404   3.059   0.276
20086WAT     H160500   3.369   3.152   0.267
20086WAT     H260501   3.336   2.995   0.241
20087WAT      O60502   6.900   7.768   6.891
20087WAT     H160503   6.959   7.776   6.971
20087WAT     H260504   6.850   7.853   6.876
20088WAT      O60505   9.053   2.798   0.135
20088WAT     H160506   8.976   2.857   0.157
20088WAT     H260507   9.028   2.735   0.062
20089WAT      O60508   8.210   3.009   1.300
20089WAT     H160509   8.166   3.035   1.214
20089WAT     H260510   8.306   3.036   1.299
20090WAT      O60511   5.463   7.928   5.765
20090WAT     H160512   5.515   7.966   5.842
20090WAT     H260513   5.428   7.838   5.790
20091WAT      O60514   6.201   2.950   2.325
20091WAT     H160515   6.275   2.890   2.294
20091WAT     H260516   6.217   2.976   2.420
20092WAT      O60517   4.045   0.337   6.378
20092WAT     H160518   4.052   0.425   6.331
20092WAT     H260519   4.132   0.316   6.423
20093WAT      O60520   9.764   4.060   6.372
20093WAT     H160521   9.801   3.996   6.304
20093WAT     H260522   9.690   4.016   6.422
20094WAT      O60523   7.778   8.607   5.583
20094WAT     H160524   7.740   8.525   5.626
20094WAT     H260525   7.838   8.654   5.648
20095WAT      O60526   2.756   3.163   0.993
20095WAT     H160527   2.776   3.066   0.985
20095WAT     H260528   2.667   3.176   1.037
20096WAT      O60529   5.232   7.682   6.702
20096WAT     H160530   5.145   7.720   6.671
20096WAT     H260531   5.231   7.583   6.694
20097WAT      O60532   8.115   5.770   5.610
20097WAT     H160533   8.103   5.854   5.557
20097WAT     H260534   8.206   5.769   5.652
20098WAT      O60535   5.012   6.574   0.179
20098WAT     H160536   5.033   6.634   0.102
20098WAT     H260537   4.937   6.512   0.154
20099WAT      O60538   8.782   8.280   5.465
20099WAT     H160539   8.705   8.244   5.517
20099WAT     H260540   8.822   8.207   5.410
20100WAT      O60541   0.117   8.229   1.807
20100WAT     H160542   0.208   8.190   1.789
20100WAT     H260543   0.126   8.328   1.822
20101WAT      O60544   1.851   2.097   4.909
20101WAT     H160545   1.851   2.017   4.848
20101WAT     H260546   1.872   2.179   4.855
20102WAT      O60547   9.878   4.232   3.469
20102WAT     H160548   9.931   4.219   3.385
20102WAT     H260549   9.840   4.144   3.497
20103WAT      O60550   7.025   2.598   6.067
20103WAT     H160551   7.030   2.500   6.084
20103WAT     H260552   7.056   2.617   5.973
20104WAT      O60553   6.317   1.520   9.546
20104WAT     H160554   6.335   1.494   9.641
20104WAT     H260555   6.388   1.584   9.515
20105WAT      O60556   5.651   8.445   6.852
20105WAT     H160557   5.615   8.402   6.936
20105WAT     H260558   5.576   8.454   6.786
20106WAT      O60559   2.911   6.347   1.219
20106WAT     H160560   2.975   6.400   1.274
20106WAT     H260561   2.934   6.250   1.226
20107WAT      O60562   8.827   0.706   1.749
20107WAT     H160563   8.736   0.736   1.718
20107WAT     H260564   8.879   0.673   1.670
20108WAT      O60565   7.774   5.398   4.998
20108WAT     H160566   7.746   5.490   4.969
20108WAT     H260567   7.736   5.330   4.936
20109WAT      O60568   3.455   8.547   6.332
20109WAT     H160569   3.422   8.526   6.424
20109WAT     H260570   3.442   8.468   6.273
20110WAT      O60571   2.014   5.774   5.155
20110WAT     H160572   1.993   5.872   5.167
20110WAT     H260573   2.081   5.763   5.082
20111WAT      O60574   4.239   7.722   0.127
20111WAT     H160575   4.152   7.688   0.164
20111WAT     H260576   4.268   7.801   0.180
20112WAT      O60577   4.065   3.176   8.455
20112WAT     H160578   4.163   3.161   8.466
20112WAT     H260579   4.041   3.268   8.488
20113WAT      O60580   8.346   4.171   0.374
20113WAT     H160581   8.369   4.193   0.469
20113WAT     H260582   8.363   4.251   0.317
20114WAT      O60583   4.711   0.197   5.011
20114WAT     H160584   4.779   0.207   4.939
20114WAT     H260585   4.700   0.100   5.034
20115WAT      O60586   3.313   4.802   3.573
20115WAT     H160587   3.274   4.887   3.609
20115WAT     H260588   3.329   4.811   3.475
20116WAT      O60589   2.702   8.117   6.159
20116WAT     H160590   2.659   8.098   6.070
20116WAT     H260591   2.631   8.139   6.226
20117WAT      O60592   0.128   7.712   3.547
20117WAT     H160593   0.092   7.668   3.629
20117WAT     H260594   0.223   7.740   3.563
20118WAT      O60595   1.669   0.308   7.729
20118WAT     H160596   1.750   0.297   7.672
20118WAT     H260597   1.592   0.336   7.672
20119WAT      O60598   5.944   8.906   0.443
20119WAT     H160599   5.905   8.814   0.455
20119WAT     H260600   6.009   8.905   0.367
20120WAT      O60601   8.167   3.963   5.968
20120WAT     H160602   8.116   3.877   5.970
20120WAT     H260603   8.111   4.034   5.926
20121WAT      O60604   4.814   0.653   5.735
20121WAT     H160605   4.911   0.676   5.725
20121WAT     H260606   4.805   0.558   5.767
20122WAT      O60607   4.838   8.218   2.162
20122WAT     H160608   4.835   8.152   2.087
20122WAT     H260609   4.749   8.222   2.207
20123WAT      O60610   4.681   9.586   6.259
20123WAT     H160611   4.644   9.669   6.218
20123WAT     H260612   4.728   9.609   6.344
20124WAT      O60613   0.836   2.449   4.885
20124WAT     H160614   0.766   2.377   4.885
20124WAT     H260615   0.926   2.407   4.874
20125WAT      O60616   1.263   7.840   2.010
20125WAT     H160617   1.272   7.882   2.100
20125WAT     H260618   1.352   7.809   1.979
20126WAT      O60619   7.924   9.286   6.760
20126WAT     H160620   7.922   9.189   6.783
20126WAT     H260621   8.019   9.317   6.753
20127WAT      O60622   6.124   7.701   4.519
20127WAT     H160623   6.056   7.736   4.455
20127WAT     H260624   6.216   7.720   4.484
20128WAT      O60625   5.388   9.320   4.948
20128WAT     H160626   5.404   9.247   4.881
20128WAT     H260627   5.300   9.303   4.993
20129WAT      O60628   0.738   5.932   9.859
20129WAT     H160629   0.678   5.901   9.932
20129WAT     H260630   0.822   5.970   9.898
20130WAT      O60631   5.507   1.688   4.436
20130WAT     H160632   5.437   1.756   4.457
20130WAT     H260633   5.581   1.732   4.384
20131WAT      O60634   4.132   8.082   9.414
20131WAT     H160635   4.168   8.057   9.504
20131WAT     H260636   4.198   8.140   9.367
20132WAT      O60637   9.883   0.808   0.149
20132WAT     H160638   9.956   0.767   0.203
20132WAT     H260639   9.906   0.904   0.129
20133WAT      O60640   1.571   6.386   8.162
20133WAT     H160641   1.647   6.344   8.213
20133WAT     H260642   1.604   6.412   8.071
20134WAT      O60643   1.323   9.720   9.605
20134WAT     H160644   1.266   9.720   9.523
20134WAT     H260645   1.417   9.745   9.581
20135WAT      O60646   5.219   8.286   9.629
20135WAT     H160647   5.231   8.212   9.562
20135WAT     H260648   5.297   8.349   9.622
20136WAT      O60649   7.064   2.855   1.222
20136WAT     H160650   7.096   2.773   1.175
20136WAT     H260651   7.142   2.906   1.258
20137WAT      O60652   0.264   2.406   3.375
20137WAT     H160653   0.168   2.403   3.401
20137WAT     H260654   0.320   2.425   3.455
20138WAT      O60655   7.010   3.379   4.255
20138WAT     H160656   6.922   3.412   4.290
20138WAT     H260657   7.031   3.290   4.297
20139WAT      O60658   6.925   1.851   9.493
20139WAT     H160659   6.983   1.892   9.423
20139WAT     H260660   6.904   1.756   9.468
20140WAT      O60661   1.367   5.699   2.903
20140WAT     H160662   1.368   5.728   2.808
20140WAT     H260663   1.434   5.751   2.955
20141WAT      O60664   6.827   6.318   3.321
20141WAT     H160665   6.792   6.311   3.414
20141WAT     H260666   6.795   6.241   3.267
20142WAT      O60667   2.188   1.281   6.408
20142WAT     H160668   2.240   1.340   6.345
20142WAT     H260669   2.225   1.189   6.406
20143WAT      O60670   4.725   8.357   2.524
20143WAT     H160671   4.819   8.370   2.490
20143WAT     H260672   4.665   8.426   2.484
20144WAT      O60673   5.761   4.095   2.693
20144WAT     H160674   5.722   4.186   2.678
20144WAT     H260675   5.688   4.028   2.704
20145WAT      O60676   8.598   7.576   5.308
20145WAT     H160677   8.636   7.618   5.225
20145WAT     H260678   8.609   7.638   5.385
20146WAT      O60679   9.360   6.947   3.081
20146WAT     H160680   9.349   6.852   3.050
20146WAT     H260681   9.404   7.001   3.009
20147WAT      O60682   2.342   5.488   0.075
20147WAT     H160683   2.373   5.577   0.108
20147WAT     H260684   2.318   5.430   0.153
20148WAT      O60685   2.427   4.752   1.578
20148WAT     H160686   2.479   4.824   1.532
20148WAT     H260687   2.462   4.662   1.551
20149WAT      O60688   3.023   5.349   8.770
20149WAT     H160689   3.021   5.250   8.786
20149WAT     H260690   3.068   5.393   8.848
20150WAT      O60691   6.719   1.008   5.489
20150WAT     H160692   6.622   1.019   5.512
20150WAT     H260693   6.750   1.088   5.438
20151WAT      O60694   4.450   2.471   7.326
20151WAT     H160695   4.368   2.457   7.381
20151WAT     H260696   4.531   2.453   7.383
20152WAT      O60697   9.003   0.137   9.144
20152WAT     H160698   9.031   0.215   9.089
20152WAT     H260699   8.931   0.164   9.207
20153WAT      O60700   0.757   8.991   0.710
20153WAT     H160701   0.796   9.061   0.651
20153WAT     H260702   0.693   8.934   0.658
20154WAT      O60703   7.656   9.582   0.501
20154WAT     H160704   7.722   9.520   0.543
20154WAT     H260705   7.608   9.535   0.427
20155WAT      O60706   6.241   8.971   9.343
20155WAT     H160707   6.337   8.944   9.347
20155WAT     H260708   6.215   8.987   9.247
20156WAT      O60709   8.050   9.058   3.027
20156WAT     H160710   8.114   9.023   2.959
20156WAT     H260711   8.088   9.046   3.119
20157WAT      O60712   2.143   7.602   0.574
20157WAT     H160713   2.204   7.619   0.651
20157WAT     H260714   2.052   7.638   0.594
20158WAT      O60715   4.397   0.917   4.957
20158WAT     H160716   4.477   0.941   4.901
20158WAT     H260717   4.359   1.000   4.997
20159WAT      O60718   2.534   6.403   4.711
20159WAT     H160719   2.477   6.379   4.632
20159WAT     H260720   2.579   6.320   4.746
20160WAT      O60721   3.913   9.634   6.073
20160WAT     H160722   3.829   9.584   6.054
20160WAT     H260723   3.984   9.606   6.008
20161WAT      O60724   0.325   9.618   2.839
20161WAT     H160725   0.314   9.707   2.796
20161WAT     H260726   0.418   9.609   2.875
20162WAT      O60727   4.118   3.626   6.702
20162WAT     H160728   4.201   3.682   6.701
20162WAT     H260729   4.143   3.530   6.714
20163WAT      O60730   8.136   9.174   6.029
20163WAT     H160731   8.151   9.083   5.990
20163WAT     H260732   8.067   9.168   6.101
20164WAT      O60733   2.262   1.560   2.945
20164WAT     H160734   2.306   1.559   2.855
20164WAT     H260735   2.297   1.485   3.000
20165WAT      O60736   5.495   1.666   8.577
20165WAT     H160737   5.480   1.629   8.485
20165WAT     H260738   5.568   1.616   8.622
20166WAT      O60739   8.703   4.167   3.836
20166WAT     H160740   8.774   4.225   3.795
20166WAT     H260741   8.705   4.077   3.794
20167WAT      O60742   7.005   1.488   6.485
20167WAT     H160743   6.914   1.452   6.465
20167WAT     H260744   6.999   1.587   6.500
20168WAT      O60745   1.666   4.930   8.088
20168WAT     H160746   1.684   4.973   8.176
20168WAT     H260747   1.609   4.848   8.102
20169WAT      O60748   7.241   3.699   7.822
20169WAT     H160749   7.232   3.671   7.918
20169WAT     H260750   7.271   3.620   7.767
20170WAT      O60751   1.082   6.229   3.887
20170WAT     H160752   1.079   6.136   3.850
20170WAT     H260753   1.169   6.271   3.863
20171WAT      O60754   0.899   0.553   0.590
20171WAT     H160755   0.873   0.650   0.586
20171WAT     H260756   0.824   0.497   0.556
20172WAT      O60757   1.218   1.069   3.845
20172WAT     H160758   1.268   0.995   3.800
20172WAT     H260759   1.203   1.046   3.941
20173WAT      O60760   5.899   1.636   8.855
20173WAT     H160761   5.931   1.712   8.798
20173WAT     H260762   5.823   1.667   8.912
20174WAT      O60763   5.297   7.043   0.920
20174WAT     H160764   5.227   7.101   0.878
20174WAT     H260765   5.373   7.032   0.856
20175WAT      O60766   7.235   4.152   5.405
20175WAT     H160767   7.327   4.168   5.368
20175WAT     H260768   7.178   4.232   5.387
20176WAT      O60769   5.480   2.750   8.644
20176WAT     H160770   5.512   2.691   8.718
20176WAT     H260771   5.513   2.715   8.557
20177WAT      O60772   4.293   9.411   4.787
20177WAT     H160773   4.288   9.416   4.886
20177WAT     H260774   4.388   9.419   4.758
20178WAT      O60775   2.339   2.563   0.347
20178WAT     H160776   2.314   2.530   0.439
20178WAT     H260777   2.258   2.600   0.302
20179WAT      O60778   9.613   2.881   5.024
20179WAT     H160779   9.595   2.810   5.092
20179WAT     H260780   9.535   2.886   4.961
20180WAT      O60781   4.867   8.321   5.577
20180WAT     H160782   4.945   8.303   5.637
20180WAT     H260783   4.849   8.240   5.520
20181WAT      O60784   5.863   7.348   6.414
20181WAT     H160785   5.910   7.262   6.395
20181WAT     H260786   5.800   7.369   6.339
20182WAT      O60787   5.873   2.952   9.389
20182WAT     H160788   5.852   2.950   9.292
20182WAT     H260789   5.958   3.003   9.404
20183WAT      O60790   7.991   4.133   5.826
20183WAT     H160791   7.907   4.088   5.855
20183WAT     H260792   7.990   4.228   5.857
20184WAT      O60793   8.307   1.283   4.445
20184WAT     H160794   8.292   1.346   4.369
20184WAT     H260795   8.226   1.224   4.456
20185WAT      O60796   2.052   5.227   5.827
20185WAT     H160797   2.053   5.266   5.919
20185WAT     H260798   2.066   5.300   5.760
20186WAT      O60799   0.035   2.564   8.221
20186WAT     H160800   0.071   2.617   8.297
20186WAT     H260801   0.109   2.510   8.180
20187WAT      O60802   2.849   3.220   1.769
20187WAT     H160803   2.807   3.294   1.821
20187WAT     H260804   2.908   3.258   1.698
20188WAT      O60805   2.212   9.162   3.605
20188WAT     H160806   2.162   9.125   3.684
20188WAT     H260807   2.291   9.214   3.637
20189WAT      O60808   3.522   7.151   1.928
20189WAT     H160809   3.610   7.197   1.913
20189WAT     H260810   3.458   7.176   1.856
20190WAT      O60811   7.528   3.079   1.929
20190WAT     H160812   7.574   3.056   2.014
20190WAT     H260813   7.476   3.164   1.941
20191WAT      O60814   4.331   1.282   7.763
20191WAT     H160815   4.356   1.326   7.677
20191WAT     H260816   4.283   1.196   7.744
20192WAT      O60817   4.312   5.603   0.848
20192WAT     H160818   4.365   5.556   0.918
20192WAT     H260819   4.322   5.702   0.859
20193WAT      O60820   0.403   1.388   1.832
20193WAT     H160821   0.480   1.334   1.868
20193WAT     H260822   0.373   1.348   1.745
20194WAT      O60823   9.291   6.847   2.405
20194WAT     H160824   9.311   6.756   2.369
20194WAT     H260825   9.376   6.898   2.415
20195WAT      O60826   0.861   2.011   0.049
20195WAT     H160827   0.886   2.057   0.134
20195WAT     H260828   0.886   1.914   0.056
20196WAT      O60829   9.173   7.006   4.247
20196WAT     H160830   9.244   7.052   4.301
20196WAT     H260831   9.113   6.956   4.309
20197WAT      O60832   2.461   8.585   3.341
20197WAT     H160833   2.437   8.488   3.345
20197WAT     H260834   2.538   8.597   3.278
20198WAT      O60835   2.268   7.422   0.425
20198WAT     H160836   2.202   7.478   0.475
20198WAT     H260837   2.324   7.371   0.490
20199WAT      O60838   9.654   3.725   3.802
20199WAT     H160839   9.649   3.685   3.894
20199WAT     H260840   9.602   3.810   3.800
20200WAT      O60841   5.524   9.502   5.828
20200WAT     H160842   5.516   9.417   5.880
20200WAT     H260843   5.538   9.480   5.731
20201WAT      O60844   5.514   9.070   1.525
20201WAT     H160845   5.491   8.974   1.507
20201WAT     H260846   5.595   9.095   1.473
20202WAT      O60847   4.273   6.252   5.488
20202WAT     H160848   4.281   6.154   5.506
20202WAT     H260849   4.330   6.276   5.409
20203WAT      O60850   6.864   8.339   9.879
20203WAT     H160851   6.820   8.334   9.969
20203WAT     H260852   6.794   8.344   9.808
20204WAT      O60853   6.237   7.068   7.975
20204WAT     H160854   6.327   7.027   7.982
20204WAT     H260855   6.168   6.997   7.966
20205WAT      O60856   3.792   8.743   0.578
20205WAT     H160857   3.702   8.716   0.543
20205WAT     H260858   3.781   8.819   0.643
20206WAT      O60859   8.269   9.327   9.236
20206WAT     H160860   8.282   9.251   9.300
20206WAT     H260861   8.332   9.317   9.159
20207WAT      O60862   7.929   6.842   9.321
20207WAT     H160863   7.937   6.770   9.390
20207WAT     H260864   7.841   6.889   9.333
20208WAT      O60865   4.514   3.148   2.752
20208WAT     H160866   4.613   3.165   2.757
20208WAT     H260867   4.474   3.157   2.843
20209WAT      O60868   2.432   9.745   5.487
20209WAT     H160869   2.460   9.839   5.510
20209WAT     H260870   2.343   9.748   5.442
20210WAT      O60871   4.285   9.371   3.125
20210WAT     H160872   4.336   9.452   3.095
20210WAT     H260873   4.337   9.289   3.102
20211WAT      O60874   9.540   6.784   7.158
20211WAT     H160875   9.516   6.692   7.127
20211WAT     H260876   9.551   6.783   7.258
20212WAT      O60877   9.243   4.686   1.513
20212WAT     H160878   9.179   4.729   1.576
20212WAT     H260879   9.283   4.605   1.554
20213WAT      O60880   1.400   3.630   8.543
20213WAT     H160881   1.471   3.564   8.518
20213WAT     H260882   1.354   3.663   8.460
20214WAT      O60883   2.717   6.153   1.633
20214WAT     H160884   2.646   6.197   1.577
20214WAT     H260885   2.803   6.204   1.623
20215WAT      O60886   8.387   8.661   1.584
20215WAT     H160887   8.414   8.566   1.568
20215WAT     H260888   8.438   8.697   1.662
20216WAT      O60889   6.328   8.403   0.608
20216WAT     H160890   6.308   8.441   0.698
20216WAT     H260891   6.308   8.471   0.538
20217WAT      O60892   5.553   5.922   3.917
20217WAT     H160893   5.515   6.013   3.930
20217WAT     H260894   5.498   5.872   3.849
20218WAT      O60895   6.278   1.942   1.989
20218WAT     H160896   6.258   1.873   1.920
20218WAT     H260897   6.273   1.901   2.080
20219WAT      O60898   7.048   6.171   4.757
20219WAT     H160899   7.146   6.184   4.772
20219WAT     H260900   7.031   6.154   4.659
20220WAT      O60901   6.845   4.128   8.697
20220WAT     H160902   6.798   4.115   8.610
20220WAT     H260903   6.925   4.068   8.700
20221WAT      O60904   2.581   2.207   1.860
20221WAT     H160905   2.653   2.139   1.848
20221WAT     H260906   2.533   2.190   1.946
20222WAT      O60907   1.716   0.120   3.053
20222WAT     H160908   1.767   0.101   3.137
20222WAT     H260909   1.770   0.091   2.974
20223WAT      O60910   1.791   3.134   1.492
20223WAT     H160911   1.749   3.186   1.566
20223WAT     H260912   1.728   3.130   1.414
20224WAT      O60913   6.917   7.064   7.396
20224WAT     H160914   6.836   7.067   7.338
20224WAT     H260915   6.988   7.010   7.352
20225WAT      O60916   9.398   8.157   2.689
20225WAT     H160917   9.343   8.076   2.711
20225WAT     H260918   9.492   8.129   2.668
20226WAT      O60919   5.972   2.708   8.730
20226WAT     H160920   5.990   2.738   8.824
20226WAT     H260921   5.884   2.660   8.726
20227WAT      O60922   5.713   2.648   5.098
20227WAT     H160923   5.781   2.624   5.028
20227WAT     H260924   5.688   2.566   5.150
20228WAT      O60925   5.666   7.137   0.965
20228WAT     H160926   5.659   7.109   1.061
20228WAT     H260927   5.611   7.076   0.908
20229WAT      O60928   2.189   5.310   3.475
20229WAT     H160929   2.128   5.351   3.407
20229WAT     H260930   2.270   5.274   3.429
20230WAT      O60931   6.653   9.048   4.498
20230WAT     H160932   6.677   8.952   4.510
20230WAT     H260933   6.633   9.066   4.401
20231WAT      O60934   4.041   6.563   4.988
20231WAT     H160935   4.123   6.508   4.975
20231WAT     H260936   4.066   6.655   5.018
20232WAT      O60937   8.132   2.444   6.482
20232WAT     H160938   8.169   2.518   6.425
20232WAT     H260939   8.136   2.472   6.578
20233WAT      O60940   7.906   8.607   2.513
20233WAT     H160941   7.935   8.559   2.431
20233WAT     H260942   7.819   8.570   2.545
20234WAT      O60943   9.650   7.936   5.978
20234WAT     H160944   9.741   7.978   5.976
20234WAT     H260945   9.581   8.004   5.954
20235WAT      O60946   4.201   8.198   6.287
20235WAT     H160947   4.218   8.194   6.189
20235WAT     H260948   4.286   8.219   6.335
20236WAT      O60949   4.308   6.849   4.827
20236WAT     H160950   4.293   6.932   4.773
20236WAT     H260951   4.231   6.837   4.890
20237WAT      O60952   8.137   6.806   6.123
20237WAT     H160953   8.085   6.741   6.179
20237WAT     H260954   8.113   6.794   6.027
20238WAT      O60955   2.274   3.805   7.858
20238WAT     H160956   2.251   3.899   7.884
20238WAT     H260957   2.338   3.767   7.924
20239WAT      O60958   8.827   8.038   7.891
20239WAT     H160959   8.750   8.079   7.941
20239WAT     H260960   8.795   7.956   7.843
20240WAT      O60961   8.498   1.075   9.834
20240WAT     H160962   8.551   1.128   9.768
20240WAT     H260963   8.553   1.057   9.915
20241WAT      O60964   8.963   7.133   0.632
20241WAT     H160965   9.050   7.166   0.668
20241WAT     H260966   8.888   7.186   0.672
20242WAT      O60967   6.742   8.983   3.114
20242WAT     H160968   6.740   9.068   3.062
20242WAT     H260969   6.657   8.974   3.166
20243WAT      O60970   4.034   2.178   8.063
20243WAT     H160971   4.129   2.211   8.062
20243WAT     H260972   3.983   2.225   7.991
20244WAT      O60973   2.504   8.537   1.790
20244WAT     H160974   2.438   8.541   1.716
20244WAT     H260975   2.510   8.627   1.835
20245WAT      O60976   7.412   4.287   0.819
20245WAT     H160977   7.332   4.233   0.845
20245WAT     H260978   7.398   4.383   0.844
20246WAT      O60979   5.531   5.081   4.460
20246WAT     H160980   5.609   5.060   4.520
20246WAT     H260981   5.448   5.088   4.514
20247WAT      O60982   4.607   1.588   4.688
20247WAT     H160983   4.623   1.494   4.657
20247WAT     H260984   4.588   1.646   4.609
20248WAT      O60985   9.747   7.500   1.113
20248WAT     H160986   9.811   7.424   1.129
20248WAT     H260987   9.678   7.501   1.185
20249WAT      O60988   9.438   6.442   7.654
20249WAT     H160989   9.516   6.465   7.595
20249WAT     H260990   9.357   6.491   7.622
20250WAT      O60991   5.870   2.464   4.668
20250WAT     H160992   5.836   2.373   4.692
20250WAT     H260993   5.891   2.467   4.570
20251WAT      O60994   0.842   5.033   2.632
20251WAT     H160995   0.755   4.988   2.612
20251WAT     H260996   0.894   5.044   2.547
20252WAT      O60997   3.787   5.906   8.676
20252WAT     H160998   3.857   5.834   8.679
20252WAT     H260999   3.798   5.961   8.594
20253WAT      O61000   5.404   9.752   5.844
20253WAT     H161001   5.437   9.658   5.841
20253WAT     H261002   5.341   9.762   5.922
20254WAT      O61003   6.295   1.183   6.597
20254WAT     H161004   6.242   1.130   6.531
20254WAT     H261005   6.365   1.124   6.638
20255WAT      O61006   1.963   5.629   1.731
20255WAT     H161007   1.870   5.627   1.694
20255WAT     H261008   1.963   5.686   1.814
20256WAT      O61009   9.211   2.075   9.593
20256WAT     H161010   9.125   2.040   9.629
20256WAT     H261011   9.251   2.009   9.530
20257WAT      O61012   3.056   7.553   0.394
20257WAT     H161013   3.156   7.553   0.406
20257WAT     H261014   3.014   7.488   0.457
20258WAT      O61015   8.489   3.836   6.905
20258WAT     H161016   8.565   3.778   6.876
20258WAT     H261017   8.413   3.825   6.842
20259WAT      O61018   5.505   0.549   6.367
20259WAT     H161019   5.553   0.589   6.289
20259WAT     H261020   5.407   0.549   6.349
20260WAT      O61021   1.418   6.811   1.073
20260WAT     H161022   1.511   6.778   1.091
20260WAT     H261023   1.357   6.780   1.145
20261WAT      O61024   9.744   3.868   0.604
20261WAT     H161025   9.688   3.793   0.568
20261WAT     H261026   9.755   3.938   0.534
20262WAT      O61027   9.130   1.565   0.908
20262WAT     H161028   9.037   1.590   0.934
20262WAT     H261029   9.195   1.628   0.952
20263WAT      O61030   4.916   6.525   1.570
20263WAT     H161031   4.852   6.471   1.515
20263WAT     H261032   4.940   6.608   1.520
20264WAT      O61033   1.085   8.543   2.115
20264WAT     H161034   1.069   8.540   2.016
20264WAT     H261035   1.001   8.517   2.163
20265WAT      O61036   1.566   6.105   8.781
20265WAT     H161037   1.565   6.063   8.872
20265WAT     H261038   1.659   6.102   8.744
20266WAT      O61039   0.402   1.558   8.580
20266WAT     H161040   0.445   1.471   8.556
20266WAT     H261041   0.390   1.562   8.680
20267WAT      O61042   5.294   8.869   7.697
20267WAT     H161043   5.273   8.965   7.679
20267WAT     H261044   5.211   8.814   7.687
20268WAT      O61045   7.753   0.918   3.126
20268WAT     H161046   7.845   0.884   3.104
20268WAT     H261047   7.705   0.941   3.042
20269WAT      O61048   7.390   8.566   4.497
20269WAT     H161049   7.399   8.566   4.398
20269WAT     H261050   7.428   8.651   4.534
20270WAT      O61051   8.670   8.064   1.499
20270WAT     H161052   8.765   8.094   1.510
20270WAT     H261053   8.653   7.986   1.559
20271WAT      O61054   4.391   8.607   2.785
20271WAT     H161055   4.379   8.627   2.882
20271WAT     H261056   4.441   8.681   2.741
20272WAT      O61057   8.004   1.666   3.876
20272WAT     H161058   8.002   1.654   3.777
20272WAT     H261059   7.949   1.745   3.902
20273WAT      O61060   7.516   0.588   1.415
20273WAT     H161061   7.528   0.667   1.475
20273WAT     H261062   7.566   0.603   1.329
20274WAT      O61063   4.310   8.291   1.945
20274WAT     H161064   4.380   8.361   1.958
20274WAT     H261065   4.316   8.224   2.020
20275WAT      O61066   7.867   0.615   3.368
20275WAT     H161067   7.803   0.641   3.440
20275WAT     H261068   7.903   0.524   3.386
20276WAT      O61069   6.769   4.396   8.771
20276WAT     H161070   6.705   4.446   8.713
20276WAT     H261071   6.766   4.298   8.749
20277WAT      O61072   9.134   7.631   1.530
20277WAT     H161073   9.039   7.602   1.519
20277WAT     H261074   9.136   7.720   1.577
20278WAT      O61075   0.769   6.767   5.710
20278WAT     H161076   0.839   6.834   5.736
20278WAT     H261077   0.680   6.813   5.702
20279WAT      O61078   7.574   2.427   5.010
20279WAT     H161079   7.478   2.415   5.032
20279WAT     H261080   7.586   2.510   4.955
20280WAT      O61081   4.188   0.794   3.393
20280WAT     H161082   4.167   0.776   3.489
20280WAT     H261083   4.285   0.820   3.385
20281WAT      O61084   5.532   8.589   0.311
20281WAT     H161085   5.572   8.533   0.238
20281WAT     H261086   5.559   8.684   0.298
20282WAT      O61087   7.087   7.821   7.086
20282WAT     H161088   7.154   7.873   7.033
20282WAT     H261089   7.125   7.731   7.109
20283WAT      O61090   2.662   6.032   1.186
20283WAT     H161091   2.574   5.996   1.154
20283WAT     H261092   2.648   6.123   1.225
20284WAT      O61093   5.370   1.858   3.254
20284WAT     H161094   5.462   1.879   3.289
20284WAT     H261095   5.371   1.770   3.208
20285WAT      O61096   0.366   3.592   5.934
20285WAT     H161097   0.423   3.614   6.014
20285WAT     H261098   0.406   3.632   5.852
20286WAT      O61099   5.109   1.084   3.851
20286WAT     H161100   5.193   1.054   3.896
20286WAT     H261101   5.132   1.135   3.768
20287WAT      O61102   0.373   8.573   5.173
20287WAT     H161103   0.378   8.488   5.225
20287WAT     H261104   0.388   8.554   5.076
20288WAT      O61105   8.021   1.538   9.080
20288WAT     H161106   8.027   1.471   9.006
20288WAT     H261107   7.946   1.513   9.141
20289WAT      O61108   6.392   6.252   9.259
20289WAT     H161109   6.408   6.278   9.354
20289WAT     H261110   6.309   6.197   9.253
20290WAT      O61111   6.935   7.912   5.700
20290WAT     H161112   7.005   7.842   5.683
20290WAT     H261113   6.849   7.867   5.724
20291WAT      O61114   2.489   0.614   6.627
20291WAT     H161115   2.522   0.520   6.633
20291WAT     H261116   2.539   0.663   6.555
20292WAT      O61117   9.622   2.643   1.902
20292WAT     H161118   9.598   2.582   1.827
20292WAT     H261119   9.576   2.731   1.890
20293WAT      O61120   9.750   4.124   4.190
20293WAT     H161121   9.804   4.186   4.247
20293WAT     H261122   9.810   4.073   4.129
20294WAT      O61123   6.426   5.725   8.533
20294WAT     H161124   6.506   5.723   8.593
20294WAT     H261125   6.453   5.754   8.442
20295WAT      O61126   6.472   6.629   2.754
20295WAT     H161127   6.522   6.543   2.760
20295WAT     H261128   6.470   6.672   2.844
20296WAT      O61129   5.145   8.048   6.417
20296WAT     H161130   5.156   8.068   6.515
20296WAT     H261131   5.192   8.118   6.364
20297WAT      O61132   3.736   2.605   5.310
20297WAT     H161133   3.649   2.581   5.354
20297WAT     H261134   3.718   2.643   5.219
20298WAT      O61135   0.197   4.023   9.824
20298WAT     H161136   0.265   4.096   9.827
20298WAT     H261137   0.119   4.047   9.881
20299WAT      O61138   5.205   3.118   2.223
20299WAT     H161139   5.123   3.087   2.272
20299WAT     H261140   5.228   3.210   2.252
20300WAT      O61141   0.280   3.630   7.901
20300WAT     H161142   0.202   3.625   7.839
20300WAT     H261143   0.355   3.576   7.864
20301WAT      O61144   8.391   6.801   4.587
20301WAT     H161145   8.415   6.792   4.490
20301WAT     H261146   8.292   6.815   4.596
20302WAT      O61147   2.566   4.028   2.108
20302WAT     H161148   2.480   4.067   2.074
20302WAT     H261149   2.560   4.014   2.206
20303WAT      O61150   2.369   3.257   1.209
20303WAT     H161151   2.372   3.237   1.306
20303WAT     H261152   2.456   3.233   1.166
20304WAT      O61153   0.470   4.189   6.863
20304WAT     H161154   0.464   4.106   6.806
20304WAT     H261155   0.435   4.267   6.811
20305WAT      O61156   6.154   8.298   7.085
20305WAT     H161157   6.220   8.288   7.160
20305WAT     H261158   6.144   8.211   7.037
20306WAT      O61159   2.250   6.920   9.804
20306WAT     H161160   2.261   7.008   9.759
20306WAT     H261161   2.301   6.850   9.753
20307WAT      O61162   5.356   7.740   8.862
20307WAT     H161163   5.450   7.765   8.888
20307WAT     H261164   5.359   7.664   8.797
20308WAT      O61165   0.448   1.567   3.824
20308WAT     H161166   0.394   1.512   3.761
20308WAT     H261167   0.397   1.650   3.848
20309WAT      O61168   4.825   0.608   6.057
20309WAT     H161169   4.856   0.536   5.995
20309WAT     H261170   4.726   0.600   6.070
20310WAT      O61171   9.023   7.083   6.527
20310WAT     H161172   8.926   7.059   6.527
20310WAT     H261173   9.033   7.182   6.515
20311WAT      O61174   3.803   3.731   2.173
20311WAT     H161175   3.732   3.668   2.207
20311WAT     H261176   3.794   3.741   2.074
20312WAT      O61177   1.648   6.093   1.699
20312WAT     H161178   1.741   6.080   1.734
20312WAT     H261179   1.598   6.154   1.761
20313WAT      O61180   3.866   0.257   1.286
20313WAT     H161181   3.861   0.184   1.218
20313WAT     H261182   3.802   0.238   1.361
20314WAT      O61183   3.505   7.044   6.877
20314WAT     H161184   3.494   7.073   6.972
20314WAT     H261185   3.479   6.948   6.868
20315WAT      O61186   9.321   2.592   4.090
20315WAT     H161187   9.345   2.689   4.097
20315WAT     H261188   9.402   2.536   4.109
20316WAT      O61189   9.582   6.720   1.358
20316WAT     H161190   9.621   6.670   1.281
20316WAT     H261191   9.627   6.809   1.366
20317WAT      O61192   1.819   4.052   9.193
20317WAT     H161193   1.805   4.094   9.103
20317WAT     H261194   1.779   3.961   9.194
20318WAT      O61195   9.161   3.937   7.001
20318WAT     H161196   9.171   3.948   7.100
20318WAT     H261197   9.065   3.921   6.978
20319WAT      O61198   0.841   9.260   1.664
20319WAT     H161199   0.857   9.240   1.761
20319WAT     H261200   0.751   9.227   1.638
20320WAT      O61201   9.215   8.371   2.730
20320WAT     H161202   9.285   8.319   2.681
20320WAT     H261203   9.258   8.444   2.783
20321WAT      O61204   6.175   0.339   9.759
20321WAT     H161205   6.155   0.413   9.823
20321WAT     H261206   6.229   0.374   9.683
20322WAT      O61207   3.209   1.046   9.350
20322WAT     H161208   3.302   1.047   9.386
20322WAT     H261209   3.145   1.076   9.421
20323WAT      O61210   2.154   9.286   7.678
20323WAT     H161211   2.155   9.385   7.667
20323WAT     H261212   2.133   9.264   7.773
20324WAT      O61213   3.889   1.927   2.771
20324WAT     H161214   3.933   1.860   2.831
20324WAT     H261215   3.806   1.961   2.816
20325WAT      O61216   1.484   0.471   4.591
20325WAT     H161217   1.475   0.522   4.676
20325WAT     H261218   1.425   0.511   4.521
20326WAT      O61219   4.986   5.012   3.133
20326WAT     H161220   5.062   4.971   3.184
20326WAT     H261221   5.020   5.050   3.047
20327WAT      O61222   9.474   5.592   8.085
20327WAT     H161223   9.436   5.522   8.146
20327WAT     H261224   9.415   5.600   8.005
20328WAT      O61225   5.042   5.318   4.917
20328WAT     H161226   5.010   5.230   4.881
20328WAT     H261227   5.094   5.366   4.846
20329WAT      O61228   0.116   7.585   0.099
20329WAT     H161229   0.169   7.669   0.113
20329WAT     H261230   0.057   7.568   0.178
20330WAT      O61231   6.920   1.714   7.313
20330WAT     H161232   6.910   1.617   7.333
20330WAT     H261233   6.876   1.768   7.385
20331WAT      O61234   7.743   1.303   4.353
20331WAT     H161235   7.700   1.329   4.439
20331WAT     H261236   7.749   1.383   4.294
20332WAT      O61237   6.430   6.988   0.892
20332WAT     H161238   6.440   6.910   0.954
20332WAT     H261239   6.366   7.054   0.932
20333WAT      O61240   4.883   8.941   9.446
20333WAT     H161241   4.851   8.884   9.522
20333WAT     H261242   4.888   8.885   9.363
20334WAT      O61243   6.667   4.554   8.054
20334WAT     H161244   6.686   4.460   8.027
20334WAT     H261245   6.675   4.614   7.975
20335WAT      O61246   7.376   5.942   7.774
20335WAT     H161247   7.401   5.900   7.687
20335WAT     H261248   7.280   5.922   7.794
20336WAT      O61249   0.022   8.738   0.235
20336WAT     H161250   0.004   8.652   0.186
20336WAT     H261251  -0.046   8.749   0.308
20337WAT      O61252   1.876   1.931   8.499
20337WAT     H161253   1.873   1.883   8.412
20337WAT     H261254   1.798   1.993   8.506
20338WAT      O61255   4.943   8.178   9.441
20338WAT     H161256   4.924   8.254   9.503
20338WAT     H261257   4.866   8.165   9.379
20339WAT      O61258   7.675   7.961   0.053
20339WAT     H161259   7.648   7.917  -0.033
20339WAT     H261260   7.607   7.940   0.124
20340WAT      O61261   4.105   3.495   4.174
20340WAT     H161262   4.083   3.434   4.250
20340WAT     H261263   4.178   3.455   4.119
20341WAT      O61264   9.418   7.786   5.051
20341WAT     H161265   9.473   7.704   5.034
20341WAT     H261266   9.428   7.850   4.975
20342WAT      O61267   9.380   9.086   0.573
20342WAT     H161268   9.289   9.122   0.554
20342WAT     H261269   9.419   9.135   0.651
20343WAT      O61270   9.383   6.377   8.129
20343WAT     H161271   9.415   6.364   8.035
20343WAT     H261272   9.293   6.336   8.139
20344WAT      O61273   8.395   0.602   2.663
20344WAT     H161274   8.443   0.534   2.718
20344WAT     H261275   8.422   0.594   2.567
20345WAT      O61276   0.957   8.493   2.454
20345WAT     H161277   1.021   8.566   2.431
20345WAT     H261278   0.910   8.516   2.540
20346WAT      O61279   2.612   9.438   3.291
20346WAT     H161280   2.705   9.456   3.258
20346WAT     H261281   2.612   9.353   3.344
20347WAT      O61282   6.825   2.909   3.719
20347WAT     H161283   6.918   2.929   3.752
20347WAT     H261284   6.803   2.814   3.738
20348WAT      O61285   1.793   2.605   7.321
20348WAT     H161286   1.804   2.586   7.224
20348WAT     H261287   1.880   2.589   7.368
20349WAT      O61288   9.524   8.572   1.685
20349WAT     H161289   9.595   8.642   1.674
20349WAT     H261290   9.458   8.602   1.753
20350WAT      O61291   3.949   3.836   1.069
20350WAT     H161292   3.973   3.744   1.039
20350WAT     H261293   4.029   3.895   1.062
20351WAT      O61294   8.845   8.927   7.114
20351WAT     H161295   8.772   8.992   7.091
20351WAT     H261296   8.908   8.920   7.036
20352WAT      O61297   7.505   1.509   0.414
20352WAT     H161298   7.546   1.585   0.464
20352WAT     H261299   7.490   1.535   0.319
20353WAT      O61300   1.782   1.172   7.408
20353WAT     H161301   1.806   1.265   7.380
20353WAT     H261302   1.805   1.159   7.505
20354WAT      O61303   0.327   8.437   0.111
20354WAT     H161304   0.263   8.394   0.174
20354WAT     H261305   0.410   8.381   0.105
20355WAT      O61306   2.016   2.906   4.642
20355WAT     H161307   2.064   2.898   4.554
20355WAT     H261308   1.942   2.972   4.633
20356WAT      O61309   9.419   0.234   1.719
20356WAT     H161310   9.418   0.300   1.794
20356WAT     H261311   9.493   0.257   1.656
20357WAT      O61312   7.180   7.559   7.218
20357WAT     H161313   7.203   7.581   7.313
20357WAT     H261314   7.204   7.463   7.199
20358WAT      O61315   9.615   2.115   9.697
20358WAT     H161316   9.642   2.101   9.602
20358WAT     H261317   9.594   2.211   9.712
20359WAT      O61318   6.101   1.011   4.653
20359WAT     H161319   6.140   0.993   4.743
20359WAT     H261320   6.025   1.075   4.662
20360WAT      O61321   5.015   0.015   5.304
20360WAT     H161322   5.046  -0.067   5.257
20360WAT     H261323   4.922   0.002   5.337
20361WAT      O61324   8.432   5.610   3.500
20361WAT     H161325   8.347   5.574   3.463
20361WAT     H261326   8.463   5.552   3.576
20362WAT      O61327   3.258   1.089   4.266
20362WAT     H161328   3.185   1.065   4.202
20362WAT     H261329   3.324   1.150   4.221
20363WAT      O61330   6.259   1.314   1.157
20363WAT     H161331   6.267   1.368   1.241
20363WAT     H261332   6.193   1.358   1.095
20364WAT      O61333   2.013   7.340   5.917
20364WAT     H161334   1.920   7.332   5.951
20364WAT     H261335   2.077   7.336   5.995
20365WAT      O61336   9.567   6.950   7.813
20365WAT     H161337   9.506   6.912   7.744
20365WAT     H261338   9.642   6.886   7.830
20366WAT      O61339   4.792   5.476   6.833
20366WAT     H161340   4.884   5.471   6.872
20366WAT     H261341   4.740   5.547   6.880
20367WAT      O61342   5.661   6.581   6.437
20367WAT     H161343   5.677   6.555   6.342
20367WAT     H261344   5.616   6.670   6.440
20368WAT      O61345   0.599   9.249   3.291
20368WAT     H161346   0.589   9.159   3.247
20368WAT     H261347   0.659   9.307   3.236
20369WAT      O61348   7.606   1.129   7.313
20369WAT     H161349   7.595   1.066   7.390
20369WAT     H261350   7.516   1.166   7.288
20370WAT      O61351   0.589   2.769   6.539
20370WAT     H161352   0.551   2.809   6.456
20370WAT     H261353   0.533   2.794   6.618
20371WAT      O61354   7.285   0.524   0.085
20371WAT     H161355   7.366   0.578   0.108
20371WAT     H261356   7.264   0.536  -0.012
20372WAT      O61357   4.639   2.077   0.188
20372WAT     H161358   4.618   1.980   0.205
20372WAT     H261359   4.557   2.124   0.157
20373WAT      O61360   1.773   6.963   6.796
20373WAT     H161361   1.707   6.899   6.758
20373WAT     H261362   1.742   7.057   6.780
20374WAT      O61363   8.882   1.525   9.636
20374WAT     H161364   8.853   1.545   9.729
20374WAT     H261365   8.957   1.459   9.638
20375WAT      O61366   3.270   2.065   9.308
20375WAT     H161367   3.186   2.030   9.350
20375WAT     H261368   3.345   2.000   9.323
20376WAT      O61369   6.724   6.387   9.509
20376WAT     H161370   6.770   6.302   9.536
20376WAT     H261371   6.756   6.415   9.418
20377WAT      O61372   8.897   1.722   8.372
20377WAT     H161373   8.849   1.643   8.411
20377WAT     H261374   8.885   1.722   8.273
20378WAT      O61375   3.986   9.621   7.137
20378WAT     H161376   3.919   9.689   7.168
20378WAT     H261377   4.011   9.562   7.214
20379WAT      O61378   3.040   4.792   4.273
20379WAT     H161379   3.027   4.891   4.274
20379WAT     H261380   3.137   4.772   4.286
20380WAT      O61381   1.594   8.807   7.185
20380WAT     H161382   1.586   8.855   7.097
20380WAT     H261383   1.542   8.856   7.255
20381WAT      O61384   8.503   9.800   6.270
20381WAT     H161385   8.498   9.850   6.183
20381WAT     H261386   8.411   9.780   6.303
20382WAT      O61387   8.274   2.301   0.584
20382WAT     H161388   8.320   2.357   0.516
20382WAT     H261389   8.341   2.266   0.650
20383WAT      O61390   0.845   0.089   7.392
20383WAT     H161391   0.855   0.182   7.356
20383WAT     H261392   0.863   0.023   7.319
20384WAT      O61393   1.597   3.686   8.984
20384WAT     H161394   1.655   3.722   9.058
20384WAT     H261395   1.510   3.654   9.023
20385WAT      O61396   4.329   8.157   4.480
20385WAT     H161397   4.264   8.216   4.527
20385WAT     H261398   4.402   8.132   4.543
20386WAT      O61399   5.657   5.948   7.032
20386WAT     H161400   5.634   6.025   6.973
20386WAT     H261401   5.756   5.931   7.027
20387WAT      O61402   2.655   6.100   1.888
20387WAT     H161403   2.740   6.079   1.935
20387WAT     H261404   2.674   6.117   1.791
20388WAT      O61405   7.176   3.500   2.754
20388WAT     H161406   7.207   3.496   2.849
20388WAT     H261407   7.089   3.451   2.745
20389WAT      O61408   8.887   7.557   8.618
20389WAT     H161409   8.882   7.461   8.588
20389WAT     H261410   8.901   7.615   8.538
20390WAT      O61411   6.503   2.564   3.903
20390WAT     H161412   6.418   2.540   3.856
20390WAT     H261413   6.535   2.486   3.956
20391WAT      O61414   4.440   0.925   9.186
20391WAT     H161415   4.401   0.924   9.278
20391WAT     H261416   4.496   0.843   9.172
20392WAT      O61417   7.088   0.675   1.882
20392WAT     H161418   7.158   0.745   1.895
20392WAT     H261419   7.002   0.706   1.923
20393WAT      O61420   5.537   4.049   8.738
20393WAT     H161421   5.511   4.134   8.693
20393WAT     H261422   5.583   4.069   8.825
20394WAT      O61423   6.120   6.035   2.865
20394WAT     H161424   6.113   5.963   2.796
20394WAT     H261425   6.164   5.999   2.947
20395WAT      O61426   8.333   2.821   9.635
20395WAT     H161427   8.281   2.767   9.702
20395WAT     H261428   8.348   2.765   9.553
20396WAT      O61429   4.505   3.047   0.546
20396WAT     H161430   4.416   3.001   0.536
20396WAT     H261431   4.559   2.999   0.615
20397WAT      O61432   9.702   2.687   4.147
20397WAT     H161433   9.666   2.735   4.067
20397WAT     H261434   9.745   2.753   4.209
20398WAT      O61435   2.042   9.423   8.799
20398WAT     H161436   1.999   9.504   8.838
20398WAT     H261437   2.064   9.439   8.703
20399WAT      O61438   4.009   5.057   7.229
20399WAT     H161439   4.043   4.964   7.220
20399WAT     H261440   3.911   5.059   7.210
20400WAT      O61441   3.100   6.698   0.431
20400WAT     H161442   3.150   6.612   0.415
20400WAT     H261443   3.162   6.766   0.469
20401WAT      O61444   2.434   9.287   8.845
20401WAT     H161445   2.478   9.273   8.757
20401WAT     H261446   2.400   9.381   8.851
20402WAT      O61447   8.900   2.693   4.096
20402WAT     H161448   8.818   2.655   4.054
20402WAT     H261449   8.961   2.619   4.124
20403WAT      O61450   7.371   6.935   1.028
20403WAT     H161451   7.288   6.899   0.986
20403WAT     H261452   7.347   7.009   1.090
20404WAT      O61453   8.811   1.430   4.273
20404WAT     H161454   8.715   1.405   4.260
20404WAT     H261455   8.847   1.470   4.189
20405WAT      O61456   6.630   7.473   3.776
20405WAT     H161457   6.626   7.374   3.788
20405WAT     H261458   6.619   7.496   3.680
20406WAT      O61459   7.653   0.176   4.765
20406WAT     H161460   7.719   0.235   4.718
20406WAT     H261461   7.649   0.201   4.862
20407WAT      O61462   2.869   3.060   3.437
20407WAT     H161463   2.818   3.142   3.464
20407WAT     H261464   2.875   3.055   3.337
20408WAT      O61465   4.024   1.966   5.246
20408WAT     H161466   4.028   1.989   5.149
20408WAT     H261467   4.109   1.924   5.275
20409WAT      O61468   9.249   4.810   3.930
20409WAT     H161469   9.253   4.738   3.999
20409WAT     H261470   9.174   4.872   3.951
20410WAT      O61471   5.412   2.405   1.102
20410WAT     H161472   5.392   2.384   1.006
20410WAT     H261473   5.511   2.413   1.113
20411WAT      O61474   6.041   1.412   3.461
20411WAT     H161475   6.097   1.330   3.467
20411WAT     H261476   6.090   1.482   3.408
20412WAT      O61477   6.908   7.068   1.972
20412WAT     H161478   6.816   7.106   1.962
20412WAT     H261479   6.953   7.110   2.051
20413WAT      O61480   1.290   6.909   0.437
20413WAT     H161481   1.336   6.822   0.419
20413WAT     H261482   1.276   6.957   0.350
20414WAT      O61483   8.995   1.022   4.087
20414WAT     H161484   9.070   0.958   4.068
20414WAT     H261485   9.011   1.067   4.175
20415WAT      O61486   4.331   8.145   8.358
20415WAT     H161487   4.327   8.244   8.366
20415WAT     H261488   4.369   8.120   8.269
20416WAT      O61489   7.920   9.254   1.068
20416WAT     H161490   7.834   9.288   1.032
20416WAT     H261491   7.927   9.278   1.165
20417WAT      O61492   0.340   8.653   7.209
20417WAT     H161493   0.354   8.626   7.304
20417WAT     H261494   0.249   8.693   7.198
20418WAT      O61495   6.949   6.627   3.589
20418WAT     H161496   7.048   6.642   3.584
20418WAT     H261497   6.911   6.677   3.666
20419WAT      O61498   5.047   0.930   8.221
20419WAT     H161499   5.038   0.831   8.211
20419WAT     H261500   4.964   0.968   8.261
20420WAT      O61501   6.983   2.920   9.466
20420WAT     H161502   6.970   2.956   9.374
20420WAT     H261503   7.081   2.915   9.487
20421WAT      O61504   9.728   1.701   4.340
20421WAT     H161505   9.688   1.639   4.407
20421WAT     H261506   9.745   1.790   4.383
20422WAT      O61507   6.622   1.975   4.720
20422WAT     H161508   6.534   1.930   4.709
20422WAT     H261509   6.642   2.030   4.638
20423WAT      O61510   2.056   9.653   8.599
20423WAT     H161511   1.978   9.711   8.624
20423WAT     H261512   2.129   9.665   8.666
20424WAT      O61513   0.776   8.940   5.867
20424WAT     H161514   0.834   9.021   5.868
20424WAT     H261515   0.822   8.866   5.819
20425WAT      O61516   6.844   7.704   8.433
20425WAT     H161517   6.813   7.798   8.428
20425WAT     H261518   6.813   7.654   8.352
20426WAT      O61519   6.979   1.736   9.091
20426WAT     H161520   7.064   1.683   9.092
20426WAT     H261521   6.987   1.814   9.154
20427WAT      O61522   8.094   8.881   8.233
20427WAT     H161523   8.003   8.840   8.247
20427WAT     H261524   8.164   8.809   8.236
20428WAT      O61525   2.917   7.640   9.583
20428WAT     H161526   2.954   7.681   9.499
20428WAT     H261527   2.842   7.578   9.558
20429WAT      O61528   6.923   2.980   3.491
20429WAT     H161529   6.850   2.955   3.428
20429WAT     H261530   6.897   2.955   3.584
20430WAT      O61531   8.440   3.948   3.867
20430WAT     H161532   8.499   3.954   3.786
20430WAT     H261533   8.421   3.852   3.887
20431WAT      O61534   6.091   2.085   6.491
20431WAT     H161535   6.072   2.146   6.567
20431WAT     H261536   6.042   1.998   6.504
20432WAT      O61537   0.333   4.752   0.247
20432WAT     H161538   0.313   4.663   0.290
20432WAT     H261539   0.251   4.809   0.250
20433WAT      O61540   4.752   0.724   3.978
20433WAT     H161541   4.708   0.791   4.038
20433WAT     H261542   4.684   0.681   3.919
20434WAT      O61543   1.209   3.847   4.184
20434WAT     H161544   1.306   3.863   4.204
20434WAT     H261545   1.174   3.923   4.129
20435WAT      O61546   4.615   5.812   0.950
20435WAT     H161547   4.631   5.758   1.033
20435WAT     H261548   4.629   5.754   0.869
20436WAT      O61549   8.402   1.341   7.712
20436WAT     H161550   8.357   1.339   7.801
20436WAT     H261551   8.481   1.281   7.713
20437WAT      O61552   8.030   0.063   9.372
20437WAT     H161553   8.068  -0.025   9.400
20437WAT     H261554   7.933   0.053   9.350
20438WAT      O61555   6.172   7.479   2.981
20438WAT     H161556   6.231   7.476   3.061
20438WAT     H261557   6.177   7.392   2.932
20439WAT      O61558   1.071   3.095   6.787
20439WAT     H161559   1.072   3.016   6.849
20439WAT     H261560   1.015   3.168   6.826
20440WAT      O61561   9.031   1.060   7.365
20440WAT     H161562   9.028   0.997   7.442
20440WAT     H261563   8.980   1.021   7.288
20441WAT      O61564   9.786   0.086   6.365
20441WAT     H161565   9.761   0.132   6.450
20441WAT     H261566   9.814  -0.008   6.385
20442WAT      O61567   0.744   0.182   6.554
20442WAT     H161568   0.679   0.116   6.516
20442WAT     H261569   0.836   0.159   6.523
20443WAT      O61570   2.524   6.681   1.308
20443WAT     H161571   2.622   6.694   1.291
20443WAT     H261572   2.493   6.600   1.259
20444WAT      O61573   3.337   6.503   0.212
20444WAT     H161574   3.316   6.590   0.167
20444WAT     H261575   3.302   6.427   0.157
20445WAT      O61576   8.779   4.859   0.637
20445WAT     H161577   8.831   4.858   0.551
20445WAT     H261578   8.776   4.767   0.676
20446WAT      O61579   1.026   6.945   3.181
20446WAT     H161580   1.029   6.883   3.102
20446WAT     H261581   1.011   7.038   3.150
20447WAT      O61582   2.908   5.044   3.641
20447WAT     H161583   2.823   5.083   3.606
20447WAT     H261584   2.897   5.020   3.737
20448WAT      O61585   3.320   5.866   3.478
20448WAT     H161586   3.345   5.800   3.549
20448WAT     H261587   3.349   5.831   3.388
20449WAT      O61588   4.526   8.818   6.061
20449WAT     H161589   4.433   8.784   6.073
20449WAT     H261590   4.544   8.832   5.963
20450WAT      O61591   7.456   5.309   1.686
20450WAT     H161592   7.553   5.316   1.667
20450WAT     H261593   7.404   5.312   1.600
20451WAT      O61594   8.562   0.733   3.164
20451WAT     H161595   8.553   0.676   3.245
20451WAT     H261596   8.488   0.800   3.162
20452WAT      O61597   5.622   4.837   4.155
20452WAT     H161598   5.558   4.761   4.146
20452WAT     H261599   5.581   4.920   4.118
20453WAT      O61600   3.146   3.568   4.407
20453WAT     H161601   3.125   3.475   4.436
20453WAT     H261602   3.095   3.632   4.464
20454WAT      O61603   1.679   3.742   7.284
20454WAT     H161604   1.589   3.736   7.326
20454WAT     H261605   1.750   3.730   7.354
20455WAT      O61606   3.499   3.251   7.474
20455WAT     H161607   3.556   3.248   7.392
20455WAT     H261608   3.518   3.171   7.531
20456WAT      O61609   4.008   3.080   2.347
20456WAT     H161610   3.913   3.056   2.365
20456WAT     H261611   4.055   3.096   2.433
20457WAT      O61612   2.481   1.711   0.330
20457WAT     H161613   2.519   1.636   0.276
20457WAT     H261614   2.528   1.716   0.418
20458WAT      O61615   1.404   7.454   9.873
20458WAT     H161616   1.361   7.393   9.806
20458WAT     H261617   1.337   7.477   9.944
20459WAT      O61618   5.747   6.345   5.527
20459WAT     H161619   5.797   6.432   5.537
20459WAT     H261620   5.796   6.285   5.465
20460WAT      O61621   7.328   9.314   4.400
20460WAT     H161622   7.382   9.389   4.437
20460WAT     H261623   7.243   9.350   4.360
20461WAT      O61624   5.381   7.577   7.098
20461WAT     H161625   5.424   7.509   7.039
20461WAT     H261626   5.444   7.602   7.172
20462WAT      O61627   6.260   5.901   2.060
20462WAT     H161628   6.291   5.894   1.965
20462WAT     H261629   6.275   5.994   2.093
20463WAT      O61630   0.841   2.593   7.357
20463WAT     H161631   0.764   2.584   7.420
20463WAT     H261632   0.830   2.529   7.281
20464WAT      O61633   8.769   5.113   3.417
20464WAT     H161634   8.731   5.101   3.325
20464WAT     H261635   8.861   5.149   3.410
20465WAT      O61636   3.278   6.813   0.939
20465WAT     H161637   3.226   6.847   0.861
20465WAT     H261638   3.362   6.865   0.949
20466WAT      O61639   6.514   2.754   7.665
20466WAT     H161640   6.558   2.683   7.611
20466WAT     H261641   6.434   2.788   7.615
20467WAT      O61642   9.761   9.607   0.362
20467WAT     H161643   9.816   9.680   0.322
20467WAT     H261644   9.690   9.579   0.297
20468WAT      O61645   6.194   0.515   5.340
20468WAT     H161646   6.248   0.555   5.266
20468WAT     H261647   6.252   0.503   5.420
20469WAT      O61648   8.674   9.504   5.401
20469WAT     H161649   8.614   9.467   5.330
20469WAT     H261650   8.713   9.429   5.454
20470WAT      O61651   5.058   1.200   9.440
20470WAT     H161652   4.998   1.236   9.511
20470WAT     H261653   5.125   1.270   9.414
20471WAT      O61654   7.347   4.282   6.635
20471WAT     H161655   7.446   4.287   6.619
20471WAT     H261656   7.300   4.349   6.578
20472WAT      O61657   4.428   6.339   3.417
20472WAT     H161658   4.460   6.252   3.455
20472WAT     H261659   4.406   6.402   3.491
20473WAT      O61660   9.850   0.346   0.043
20473WAT     H161661   9.815   0.349  -0.051
20473WAT     H261662   9.945   0.314   0.042
20474WAT      O61663   0.515   0.894   6.956
20474WAT     H161664   0.583   0.844   7.010
20474WAT     H261665   0.428   0.845   6.957
20475WAT      O61666   0.029   2.658   3.272
20475WAT     H161667   0.103   2.700   3.325
20475WAT     H261668   0.010   2.713   3.191
20476WAT      O61669   0.826   1.507   8.864
20476WAT     H161670   0.852   1.603   8.871
20476WAT     H261671   0.899   1.455   8.821
20477WAT      O61672   4.526   3.265   4.216
20477WAT     H161673   4.609   3.209   4.221
20477WAT     H261674   4.532   3.339   4.284
20478WAT      O61675   5.556   3.106   6.271
20478WAT     H161676   5.572   3.014   6.235
20478WAT     H261677   5.643   3.154   6.282
20479WAT      O61678   3.206   3.648   3.086
20479WAT     H161679   3.243   3.556   3.069
20479WAT     H261680   3.281   3.708   3.115
20480WAT      O61681   8.506   3.262   3.874
20480WAT     H161682   8.433   3.267   3.805
20480WAT     H261683   8.470   3.221   3.957
20481WAT      O61684   0.580   4.831   9.654
20481WAT     H161685   0.599   4.820   9.557
20481WAT     H261686   0.483   4.812   9.671
20482WAT      O61687   1.490   9.352   1.524
20482WAT     H161688   1.547   9.431   1.546
20482WAT     H261689   1.419   9.379   1.459
20483WAT      O61690   4.966   3.646   4.205
20483WAT     H161691   5.058   3.651   4.167
20483WAT     H261692   4.899   3.657   4.130
20484WAT      O61693   7.589   1.825   6.744
20484WAT     H161694   7.654   1.812   6.819
20484WAT     H261695   7.640   1.846   6.660
20485WAT      O61696   3.443   0.803   0.337
20485WAT     H161697   3.388   0.721   0.322
20485WAT     H261698   3.527   0.780   0.386
20486WAT      O61699   4.597   6.096   3.256
20486WAT     H161700   4.637   6.124   3.343
20486WAT     H261701   4.638   6.149   3.182
20487WAT      O61702   7.445   4.409   6.160
20487WAT     H161703   7.363   4.358   6.186
20487WAT     H261704   7.420   4.503   6.137
20488WAT      O61705   8.852   1.437   0.788
20488WAT     H161706   8.831   1.528   0.825
20488WAT     H261707   8.846   1.369   0.861
20489WAT      O61708   2.328   1.064   7.826
20489WAT     H161709   2.243   1.020   7.855
20489WAT     H261710   2.327   1.077   7.727
20490WAT      O61711   0.656   1.865   0.191
20490WAT     H161712   0.751   1.884   0.169
20490WAT     H261713   0.648   1.771   0.224
20491WAT      O61714   8.619   7.301   2.097
20491WAT     H161715   8.652   7.209   2.115
20491WAT     H261716   8.529   7.314   2.140
20492WAT      O61717   8.546   6.651   0.801
20492WAT     H161718   8.487   6.655   0.882
20492WAT     H261719   8.521   6.572   0.746
20493WAT      O61720   2.299   1.376   3.530
20493WAT     H161721   2.254   1.407   3.614
20493WAT     H261722   2.397   1.398   3.535
20494WAT      O61723   5.591   0.147   0.946
20494WAT     H161724   5.657   0.083   0.905
20494WAT     H261725   5.607   0.239   0.909
20495WAT      O61726   9.306   7.392   7.959
20495WAT     H161727   9.352   7.333   7.893
20495WAT     H261728   9.283   7.339   8.041
20496WAT      O61729   7.687   9.322   7.402
20496WAT     H161730   7.746   9.338   7.323
20496WAT     H261731   7.592   9.340   7.377
20497WAT      O61732   0.327   7.986   1.222
20497WAT     H161733   0.366   7.894   1.226
20497WAT     H261734   0.300   8.014   1.314
20498WAT      O61735   4.550   6.273   1.865
20498WAT     H161736   4.613   6.197   1.847
20498WAT     H261737   4.581   6.323   1.946
20499WAT      O61738   7.185   0.693   2.764
20499WAT     H161739   7.225   0.783   2.748
20499WAT     H261740   7.218   0.629   2.694
20500WAT      O61741   5.476   7.291   3.921
20500WAT     H161742   5.561   7.269   3.873
20500WAT     H261743   5.419   7.349   3.863
20501WAT      O61744   2.150   2.019   4.730
20501WAT     H161745   2.156   2.103   4.784
20501WAT     H261746   2.076   2.028   4.663
20502WAT      O61747   8.535   5.808   4.845
20502WAT     H161748   8.618   5.857   4.870
20502WAT     H261749   8.528   5.724   4.899
20503WAT      O61750   1.042   6.912   9.341
20503WAT     H161751   1.103   6.916   9.261
20503WAT     H261752   1.080   6.849   9.409
20504WAT      O61753   6.238   4.464   3.599
20504WAT     H161754   6.176   4.395   3.636
20504WAT     H261755   6.232   4.547   3.654
20505WAT      O61756   0.884   0.436   7.677
20505WAT     H161757   0.842   0.379   7.747
20505WAT     H261758   0.934   0.379   7.612
20506WAT      O61759   7.419   7.314   6.062
20506WAT     H161760   7.431   7.353   6.153
20506WAT     H261761   7.505   7.320   6.012
20507WAT      O61762   4.993   9.314   9.738
20507WAT     H161763   5.045   9.390   9.700
20507WAT     H261764   5.026   9.228   9.698
20508WAT      O61765   6.407   9.227   3.692
20508WAT     H161766   6.394   9.166   3.614
20508WAT     H261767   6.321   9.236   3.743
20509WAT      O61768   8.801   4.282   6.222
20509WAT     H161769   8.720   4.264   6.277
20509WAT     H261770   8.805   4.216   6.146
20510WAT      O61771   2.160   6.934   5.389
20510WAT     H161772   2.250   6.942   5.433
20510WAT     H261773   2.088   6.946   5.458
20511WAT      O61774   6.916   9.138   0.506
20511WAT     H161775   6.964   9.193   0.574
20511WAT     H261776   6.820   9.164   0.504
20512WAT      O61777   6.485   6.370   5.155
20512WAT     H161778   6.585   6.366   5.157
20512WAT     H261779   6.455   6.405   5.067
20513WAT      O61780   8.133   3.889   4.677
20513WAT     H161781   8.181   3.801   4.671
20513WAT     H261782   8.057   3.880   4.741
20514WAT      O61783   9.625   4.235   0.142
20514WAT     H161784   9.560   4.311   0.151
20514WAT     H261785   9.678   4.227   0.227
20515WAT      O61786   5.024   2.433   9.448
20515WAT     H161787   4.930   2.466   9.450
20515WAT     H261788   5.032   2.350   9.504
20516WAT      O61789   8.986   4.890   4.239
20516WAT     H161790   8.892   4.908   4.267
20516WAT     H261791   9.048   4.909   4.315
20517WAT      O61792   1.345   1.601   9.324
20517WAT     H161793   1.347   1.579   9.422
20517WAT     H261794   1.290   1.683   9.310
20518WAT      O61795   5.000   4.397   5.975
20518WAT     H161796   5.093   4.362   5.959
20518WAT     H261797   5.005   4.488   6.014
20519WAT      O61798   2.254   8.185   8.903
20519WAT     H161799   2.159   8.154   8.912
20519WAT     H261800   2.254   8.281   8.873
20520WAT      O61801   3.322   9.363   8.132
20520WAT     H161802   3.385   9.327   8.064
20520WAT     H261803   3.364   9.357   8.223
20521WAT      O61804   0.496   0.206   4.161
20521WAT     H161805   0.477   0.116   4.122
20521WAT     H261806   0.572   0.248   4.112
20522WAT      O61807   0.406   1.793   3.206
20522WAT     H161808   0.440   1.850   3.280
20522WAT     H261809   0.431   1.834   3.118
20523WAT      O61810   3.467   3.228   6.049
20523WAT     H161811   3.426   3.284   5.977
20523WAT     H261812   3.551   3.272   6.082
20524WAT      O61813   3.997   2.311   9.085
20524WAT     H161814   4.024   2.404   9.108
20524WAT     H261815   3.949   2.311   8.997
20525WAT      O61816   2.251   0.199   6.714
20525WAT     H161817   2.193   0.140   6.660
20525WAT     H261818   2.323   0.145   6.758
20526WAT      O61819   0.168   7.770   1.858
20526WAT     H161820   0.113   7.702   1.907
20526WAT     H261821   0.148   7.861   1.894
20527WAT      O61822   1.587   4.230   9.611
20527WAT     H161823   1.610   4.300   9.679
20527WAT     H261824   1.657   4.228   9.540
20528WAT      O61825   2.003   4.999   0.399
20528WAT     H161826   2.006   5.000   0.499
20528WAT     H261827   1.926   4.943   0.368
20529WAT      O61828   4.676   4.115   6.488
20529WAT     H161829   4.647   4.074   6.574
20529WAT     H261830   4.663   4.050   6.413
20530WAT      O61831   9.534   9.221   3.880
20530WAT     H161832   9.529   9.146   3.946
20530WAT     H261833   9.578   9.189   3.796
20531WAT      O61834   4.126   4.287   5.053
20531WAT     H161835   4.101   4.225   5.128
20531WAT     H261836   4.153   4.233   4.973
20532WAT      O61837   5.109   1.230   2.385
20532WAT     H161838   5.191   1.247   2.438
20532WAT     H261839   5.049   1.167   2.435
20533WAT      O61840   6.123   4.064   6.949
20533WAT     H161841   6.156   3.989   7.006
20533WAT     H261842   6.083   4.135   7.007
20534WAT      O61843   8.411   2.365   6.099
20534WAT     H161844   8.478   2.424   6.054
20534WAT     H261845   8.353   2.322   6.029
20535WAT      O61846   2.992   6.838   6.302
20535WAT     H161847   2.978   6.779   6.381
20535WAT     H261848   3.037   6.786   6.229
20536WAT      O61849   0.438   7.384   7.461
20536WAT     H161850   0.346   7.357   7.432
20536WAT     H261851   0.505   7.324   7.418
20537WAT      O61852   3.018   6.835   5.627
20537WAT     H161853   2.980   6.819   5.536
20537WAT     H261854   3.058   6.750   5.661
20538WAT      O61855   1.305   5.205   2.728
20538WAT     H161856   1.347   5.205   2.818
20538WAT     H261857   1.374   5.228   2.659
20539WAT      O61858   3.346   9.079   6.672
20539WAT     H161859   3.257   9.076   6.717
20539WAT     H261860   3.403   9.004   6.706
20540WAT      O61861   2.766   1.142   8.276
20540WAT     H161862   2.696   1.149   8.205
20540WAT     H261863   2.727   1.165   8.365
20541WAT      O61864   8.537   2.597   9.482
20541WAT     H161865   8.616   2.649   9.515
20541WAT     H261866   8.472   2.660   9.439
20542WAT      O61867   3.212   8.575   4.095
20542WAT     H161868   3.167   8.502   4.043
20542WAT     H261869   3.268   8.534   4.168
20543WAT      O61870   3.781   1.288   7.466
20543WAT     H161871   3.770   1.355   7.540
20543WAT     H261872   3.874   1.251   7.468
20544WAT      O61873   8.438   4.783   7.445
20544WAT     H161874   8.409   4.819   7.356
20544WAT     H261875   8.480   4.693   7.432
20545WAT      O61876   0.464   3.965   1.774
20545WAT     H161877   0.374   3.991   1.740
20545WAT     H261878   0.463   3.964   1.874
20546WAT      O61879   7.813   4.059   4.095
20546WAT     H161880   7.743   4.129   4.112
20546WAT     H261881   7.835   4.013   4.182
20547WAT      O61882   8.336   5.101   1.627
20547WAT     H161883   8.365   5.017   1.581
20547WAT     H261884   8.411   5.137   1.682
20548WAT      O61885   1.756   6.925   5.010
20548WAT     H161886   1.710   6.936   4.921
20548WAT     H261887   1.849   6.893   4.995
20549WAT      O61888   1.713   9.659   6.622
20549WAT     H161889   1.713   9.579   6.682
20549WAT     H261890   1.657   9.640   6.541
20550WAT      O61891   1.979   0.520   2.968
20550WAT     H161892   1.895   0.476   3.001
20550WAT     H261893   2.055   0.497   3.029
20551WAT      O61894   1.585   3.339   7.145
20551WAT     H161895   1.616   3.268   7.209
20551WAT     H261896   1.660   3.402   7.126
20552WAT      O61897   8.998   2.301   7.668
20552WAT     H161898   9.087   2.271   7.633
20552WAT     H261899   8.947   2.348   7.596
20553WAT      O61900   3.951   2.404   5.532
20553WAT     H161901   3.995   2.347   5.602
20553WAT     H261902   3.924   2.491   5.573
20554WAT      O61903   0.060   6.654   3.391
20554WAT     H161904  -0.033   6.685   3.411
20554WAT     H261905   0.125   6.704   3.448
20555WAT      O61906   5.733   2.219   5.443
20555WAT     H161907   5.759   2.298   5.498
20555WAT     H261908   5.799   2.145   5.458
20556WAT      O61909   5.750   3.387   7.594
20556WAT     H161910   5.708   3.416   7.680
20556WAT     H261911   5.699   3.427   7.518
20557WAT      O61912   2.081   2.924   5.417
20557WAT     H161913   2.163   2.896   5.367
20557WAT     H261914   2.002   2.874   5.382
20558WAT      O61915   0.463   9.819   4.041
20558WAT     H161916   0.467   9.735   4.095
20558WAT     H261917   0.518   9.808   3.958
20559WAT      O61918   3.295   8.540   5.805
20559WAT     H161919   3.288   8.481   5.886
20559WAT     H261920   3.298   8.635   5.834
20560WAT      O61921   7.331   8.750   3.194
20560WAT     H161922   7.389   8.732   3.274
20560WAT     H261923   7.282   8.667   3.168
20561WAT      O61924   3.493   3.429   2.550
20561WAT     H161925   3.580   3.385   2.527
20561WAT     H261926   3.469   3.494   2.478
20562WAT      O61927   5.664   2.314   7.539
20562WAT     H161928   5.711   2.402   7.527
20562WAT     H261929   5.732   2.242   7.553
20563WAT      O61930   7.343   7.347   7.142
20563WAT     H161931   7.397   7.265   7.160
20563WAT     H261932   7.404   7.425   7.125
20564WAT      O61933   5.869   2.592   0.956
20564WAT     H161934   5.920   2.560   0.877
20564WAT     H261935   5.930   2.596   1.036
20565WAT      O61936   7.994   0.382   9.539
20565WAT     H161937   7.952   0.427   9.619
20565WAT     H261938   7.935   0.395   9.460
20566WAT      O61939   8.504   6.505   0.014
20566WAT     H161940   8.554   6.592   0.018
20566WAT     H261941   8.411   6.518   0.046
20567WAT      O61942   9.844   0.929   4.208
20567WAT     H161943   9.881   1.021   4.221
20567WAT     H261944   9.919   0.866   4.187
20568WAT      O61945   2.766   2.761   5.226
20568WAT     H161946   2.861   2.740   5.206
20568WAT     H261947   2.754   2.861   5.227
20569WAT      O61948   0.231   7.324   4.561
20569WAT     H161949   0.170   7.350   4.486
20569WAT     H261950   0.181   7.266   4.626
20570WAT      O61951   8.850   8.654   6.347
20570WAT     H161952   8.918   8.581   6.343
20570WAT     H261953   8.848   8.703   6.260
20571WAT      O61954   3.933   0.998   4.991
20571WAT     H161955   3.885   1.085   4.985
20571WAT     H261956   3.972   0.975   4.902
20572WAT      O61957   5.640   7.709   2.184
20572WAT     H161958   5.697   7.718   2.265
20572WAT     H261959   5.626   7.799   2.143
20573WAT      O61960   8.662   9.495   6.774
20573WAT     H161961   8.705   9.421   6.721
20573WAT     H261962   8.732   9.559   6.805
20574WAT      O61963   9.133   5.236   0.365
20574WAT     H161964   9.228   5.261   0.382
20574WAT     H261965   9.116   5.143   0.399
20575WAT      O61966   8.471   3.490   5.422
20575WAT     H161967   8.385   3.525   5.384
20575WAT     H261968   8.544   3.501   5.355
20576WAT      O61969   1.552   5.535   4.930
20576WAT     H161970   1.476   5.567   4.874
20576WAT     H261971   1.548   5.578   5.020
20577WAT      O61972   9.845   5.505   7.336
20577WAT     H161973   9.887   5.437   7.397
20577WAT     H261974   9.747   5.509   7.352
20578WAT      O61975   4.016   3.868   3.081
20578WAT     H161976   4.007   3.859   3.180
20578WAT     H261977   4.039   3.963   3.059
20579WAT      O61978   2.947   7.905   2.996
20579WAT     H161979   3.046   7.911   3.001
20579WAT     H261980   2.917   7.817   3.034
20580WAT      O61981   5.985   1.699   3.998
20580WAT     H161982   5.975   1.720   3.900
20580WAT     H261983   6.010   1.783   4.046
20581WAT      O61984   0.158   4.955   4.073
20581WAT     H161985   0.135   4.983   4.166
20581WAT     H261986   0.093   4.996   4.008
20582WAT      O61987   6.066   8.540   2.470
20582WAT     H161988   6.121   8.621   2.489
20582WAT     H261989   6.070   8.520   2.372
20583WAT      O61990   2.990   7.660   1.598
20583WAT     H161991   2.972   7.633   1.693
20583WAT     H261992   2.910   7.640   1.542
20584WAT      O61993   1.759   6.555   0.016
20584WAT     H161994   1.822   6.514  -0.050
20584WAT     H261995   1.759   6.655   0.004
20585WAT      O61996   3.626   8.647   4.272
20585WAT     H161997   3.654   8.581   4.341
20585WAT     H261998   3.707   8.692   4.234
20586WAT      O61999   5.557   2.660   0.579
20586WAT     H162000   5.622   2.725   0.539
20586WAT     H262001   5.529   2.594   0.509
20587WAT      O62002   6.605   6.772   7.428
20587WAT     H162003   6.590   6.734   7.519
20587WAT     H262004   6.699   6.752   7.399
20588WAT      O62005   0.421   8.811   8.708
20588WAT     H162006   0.511   8.823   8.665
20588WAT     H262007   0.392   8.716   8.699
20589WAT      O62008   0.010   9.808   0.155
20589WAT     H162009   0.070   9.883   0.182
20589WAT     H262010   0.064   9.739   0.106
20590WAT      O62011   8.019   9.641   6.653
20590WAT     H162012   8.021   9.709   6.726
20590WAT     H262013   7.990   9.685   6.568
20591WAT      O62014   0.534   3.296   4.855
20591WAT     H162015   0.583   3.211   4.839
20591WAT     H262016   0.435   3.279   4.856
20592WAT      O62017   1.253   1.591   1.670
20592WAT     H162018   1.333   1.536   1.648
20592WAT     H262019   1.187   1.535   1.720
20593WAT      O62020   1.065   9.392   0.854
20593WAT     H162021   1.107   9.414   0.766
20593WAT     H262022   1.060   9.475   0.910
20594WAT      O62023   7.679   7.391   0.767
20594WAT     H162024   7.741   7.465   0.790
20594WAT     H262025   7.679   7.378   0.668
20595WAT      O62026   3.779   6.360   6.366
20595WAT     H162027   3.828   6.434   6.319
20595WAT     H262028   3.780   6.377   6.464
20596WAT      O62029   0.935   0.907   5.785
20596WAT     H162030   0.968   0.945   5.699
20596WAT     H262031   0.835   0.909   5.786
20597WAT      O62032   0.978   9.426   1.234
20597WAT     H162033   1.030   9.492   1.179
20597WAT     H262034   0.899   9.393   1.181
20598WAT      O62035   9.648   5.810   8.437
20598WAT     H162036   9.603   5.721   8.447
20598WAT     H262037   9.615   5.854   8.353
20599WAT      O62038   9.239   8.084   8.623
20599WAT     H162039   9.338   8.073   8.631
20599WAT     H262040   9.194   8.037   8.699
20600WAT      O62041   4.363   3.150   0.861
20600WAT     H162042   4.449   3.113   0.897
20600WAT     H262043   4.381   3.195   0.773
20601WAT      O62044   3.599   0.211   5.603
20601WAT     H162045   3.505   0.179   5.605
20601WAT     H262046   3.626   0.231   5.509
20602WAT      O62047   5.238   4.578   0.361
20602WAT     H162048   5.154   4.545   0.320
20602WAT     H262049   5.217   4.634   0.441
20603WAT      O62050   3.039   1.662   5.885
20603WAT     H162051   2.973   1.587   5.882
20603WAT     H262052   3.068   1.677   5.980
20604WAT      O62053   6.565   1.528   2.955
20604WAT     H162054   6.630   1.470   2.906
20604WAT     H262055   6.561   1.618   2.911
20605WAT      O62056   3.020   8.754   4.123
20605WAT     H162057   3.034   8.850   4.145
20605WAT     H262058   3.108   8.707   4.120
20606WAT      O62059   4.733   7.379   8.691
20606WAT     H162060   4.728   7.279   8.688
20606WAT     H262061   4.674   7.417   8.620
20607WAT      O62062   3.893   9.784   2.831
20607WAT     H162063   3.821   9.842   2.869
20607WAT     H262064   3.888   9.786   2.731
20608WAT      O62065   4.863   7.592   4.047
20608WAT     H162066   4.838   7.505   4.089
20608WAT     H262067   4.792   7.660   4.065
20609WAT      O62068   4.316   3.164   1.363
20609WAT     H162069   4.302   3.256   1.325
20609WAT     H262070   4.366   3.171   1.450
20610WAT      O62071   0.107   5.355   5.519
20610WAT     H162072   0.053   5.320   5.442
20610WAT     H262073   0.153   5.440   5.492
20611WAT      O62074   1.632   6.960   2.952
20611WAT     H162075   1.702   6.890   2.938
20611WAT     H262076   1.555   6.919   3.001
20612WAT      O62077   1.295   2.530   4.944
20612WAT     H162078   1.275   2.626   4.924
20612WAT     H262079   1.218   2.473   4.913
20613WAT      O62080   0.643   4.709   6.116
20613WAT     H162081   0.700   4.696   6.197
20613WAT     H262082   0.658   4.801   6.079
20614WAT      O62083   2.365   3.152   3.628
20614WAT     H162084   2.303   3.073   3.632
20614WAT     H262085   2.434   3.145   3.699
20615WAT      O62086   1.373   4.199   4.000
20615WAT     H162087   1.402   4.103   4.001
20615WAT     H262088   1.453   4.259   4.000
20616WAT      O62089   8.509   1.732   6.017
20616WAT     H162090   8.460   1.722   5.931
20616WAT     H262091   8.545   1.643   6.046
20617WAT      O62092   5.905   1.206   0.249
20617WAT     H162093   5.857   1.289   0.277
20617WAT     H262094   5.881   1.183   0.155
20618WAT      O62095   5.480   9.708   0.416
20618WAT     H162096   5.458   9.801   0.385
20618WAT     H262097   5.482   9.707   0.516
20619WAT      O62098   8.295   0.940   5.258
20619WAT     H162099   8.273   0.996   5.338
20619WAT     H262100   8.212   0.897   5.223
20620WAT      O62101   3.385   2.792   9.807
20620WAT     H162102   3.452   2.862   9.781
20620WAT     H262103   3.343   2.753   9.725
20621WAT      O62104   3.869   9.817   3.437
20621WAT     H162105   3.918   9.861   3.512
20621WAT     H262106   3.781   9.863   3.423
20622WAT      O62107   2.529   5.998   8.175
20622WAT     H162108   2.613   6.046   8.197
20622WAT     H262109   2.465   6.007   8.251
20623WAT      O62110   6.314   4.207   9.840
20623WAT     H162111   6.280   4.288   9.793
20623WAT     H262112   6.366   4.234   9.921
20624WAT      O62113   7.923   9.769   7.162
20624WAT     H162114   7.965   9.794   7.249
20624WAT     H262115   7.877   9.680   7.172
20625WAT      O62116   4.027   1.920   1.416
20625WAT     H162117   4.020   1.964   1.505
20625WAT     H262118   4.122   1.927   1.383
20626WAT      O62119   1.893   6.887   2.539
20626WAT     H162120   1.928   6.964   2.594
20626WAT     H262121   1.802   6.862   2.571
20627WAT      O62122   1.473   6.808   9.730
20627WAT     H162123   1.461   6.727   9.788
20627WAT     H262124   1.566   6.843   9.740
20628WAT      O62125   9.867   0.609   7.336
20628WAT     H162126   9.824   0.661   7.262
20628WAT     H262127   9.825   0.519   7.342
20629WAT      O62128   7.087   2.839   8.347
20629WAT     H162129   7.016   2.816   8.413
20629WAT     H262130   7.097   2.939   8.342
20630WAT      O62131   0.175   9.797   7.798
20630WAT     H162132   0.246   9.727   7.785
20630WAT     H262133   0.139   9.824   7.708
20631WAT      O62134   7.811   5.346   4.235
20631WAT     H162135   7.847   5.325   4.144
20631WAT     H262136   7.759   5.268   4.269
20632WAT      O62137   2.113   7.081   0.075
20632WAT     H162138   2.170   7.006   0.040
20632WAT     H262139   2.171   7.161   0.092
20633WAT      O62140   1.778   2.218   6.284
20633WAT     H162141   1.726   2.147   6.332
20633WAT     H262142   1.794   2.295   6.346
20634WAT      O62143   5.015   6.742   9.810
20634WAT     H162144   4.946   6.709   9.746
20634WAT     H262145   5.099   6.689   9.801
20635WAT      O62146   4.813   9.793   0.717
20635WAT     H162147   4.871   9.869   0.748
20635WAT     H262148   4.840   9.710   0.765
20636WAT      O62149   9.591   8.139   7.417
20636WAT     H162150   9.660   8.158   7.347
20636WAT     H262151   9.555   8.226   7.453
20637WAT      O62152   1.275   0.114   1.965
20637WAT     H162153   1.276   0.045   2.037
20637WAT     H262154   1.180   0.136   1.940
20638WAT      O62155   0.366   2.521   1.528
20638WAT     H162156   0.326   2.609   1.553
20638WAT     H262157   0.300   2.448   1.546
20639WAT      O62158   9.858   6.018   7.064
20639WAT     H162159   9.937   6.035   7.005
20639WAT     H262160   9.815   5.932   7.037
20640WAT      O62161   8.496   1.763   4.377
20640WAT     H162162   8.468   1.854   4.406
20640WAT     H262163   8.595   1.762   4.360
20641WAT      O62164   2.197   3.364   1.453
20641WAT     H162165   2.190   3.353   1.552
20641WAT     H262166   2.196   3.461   1.430
20642WAT      O62167   8.085   9.528   6.957
20642WAT     H162168   8.089   9.461   6.882
20642WAT     H262169   8.008   9.590   6.942
20643WAT      O62170   4.565   9.294   5.928
20643WAT     H162171   4.467   9.302   5.944
20643WAT     H262172   4.581   9.243   5.843
20644WAT      O62173   9.288   2.397   3.545
20644WAT     H162174   9.322   2.353   3.628
20644WAT     H262175   9.247   2.328   3.485
20645WAT      O62176   6.099   7.812   1.511
20645WAT     H162177   6.180   7.790   1.457
20645WAT     H262178   6.116   7.788   1.607
20646WAT      O62179   7.125   0.333   5.123
20646WAT     H162180   7.225   0.342   5.130
20646WAT     H262181   7.102   0.239   5.096
20647WAT      O62182   0.263   0.571   1.890
20647WAT     H162183   0.226   0.510   1.820
20647WAT     H262184   0.354   0.602   1.862
20648WAT      O62185   5.871   9.327   5.763
20648WAT     H162186   5.791   9.371   5.803
20648WAT     H262187   5.946   9.393   5.757
20649WAT      O62188   0.971   9.843   6.421
20649WAT     H162189   1.043   9.853   6.353
20649WAT     H262190   0.954   9.746   6.438
20650WAT      O62191   7.238   4.864   3.148
20650WAT     H162192   7.161   4.804   3.170
20650WAT     H262193   7.314   4.846   3.209
20651WAT      O62194   9.286   2.858   9.616
20651WAT     H162195   9.275   2.876   9.714
20651WAT     H262196   9.260   2.763   9.597
20652WAT      O62197   9.642   8.430   7.415
20652WAT     H162198   9.726   8.415   7.362
20652WAT     H262199   9.582   8.493   7.366
20653WAT      O62200   2.549   2.529   4.915
20653WAT     H162201   2.597   2.595   4.857
20653WAT     H262202   2.485   2.578   4.975
20654WAT      O62203   3.061   0.152   0.842
20654WAT     H162204   2.975   0.145   0.791
20654WAT     H262205   3.044   0.192   0.932
20655WAT      O62206   2.768   2.916   3.967
20655WAT     H162207   2.845   2.855   3.949
20655WAT     H262208   2.762   2.934   4.065
20656WAT      O62209   6.639   7.487   2.410
20656WAT     H162210   6.663   7.563   2.471
20656WAT     H262211   6.715   7.423   2.404
20657WAT      O62212   8.542   3.468   4.979
20657WAT     H162213   8.569   3.486   5.073
20657WAT     H262214   8.517   3.372   4.969
20658WAT      O62215   4.762   0.063   8.172
20658WAT     H162216   4.677   0.076   8.121
20658WAT     H262217   4.837   0.047   8.108
20659WAT      O62218   1.386   3.272   5.828
20659WAT     H162219   1.322   3.197   5.841
20659WAT     H262220   1.338   3.359   5.836
20660WAT      O62221   2.380   8.919   6.404
20660WAT     H162222   2.346   8.860   6.478
20660WAT     H262223   2.331   9.006   6.405
20661WAT      O62224   5.001   1.076   9.814
20661WAT     H162225   5.068   1.134   9.860
20661WAT     H262226   4.964   1.125   9.735
20662WAT      O62227   2.566   0.237   7.371
20662WAT     H162228   2.641   0.282   7.421
20662WAT     H262229   2.544   0.151   7.415
20663WAT      O62230   8.514   0.069   5.970
20663WAT     H162231   8.443   0.136   5.947
20663WAT     H262232   8.599   0.116   5.993
20664WAT      O62233   1.014   4.220   4.205
20664WAT     H162234   1.004   4.164   4.123
20664WAT     H262235   1.111   4.237   4.222
20665WAT      O62236   8.495   4.514   3.702
20665WAT     H162237   8.465   4.432   3.750
20665WAT     H262238   8.577   4.494   3.648
20666WAT      O62239   0.732   0.705   2.782
20666WAT     H162240   0.792   0.694   2.860
20666WAT     H262241   0.664   0.631   2.781
20667WAT      O62242   0.738   6.533   7.662
20667WAT     H162243   0.714   6.437   7.677
20667WAT     H262244   0.795   6.540   7.580
20668WAT      O62245   9.404   8.811   0.446
20668WAT     H162246   9.392   8.892   0.503
20668WAT     H262247   9.331   8.807   0.378
20669WAT      O62248   5.750   9.312   2.793
20669WAT     H162249   5.779   9.229   2.842
20669WAT     H262250   5.664   9.345   2.833
20670WAT      O62251   9.273   3.886   0.748
20670WAT     H162252   9.313   3.942   0.675
20670WAT     H262253   9.341   3.821   0.781
20671WAT      O62254   0.907   7.142   7.570
20671WAT     H162255   0.894   7.232   7.529
20671WAT     H262256   0.826   7.119   7.626
20672WAT      O62257   5.241   0.030   2.677
20672WAT     H162258   5.312   0.051   2.609
20672WAT     H262259   5.283   0.020   2.767
20673WAT      O62260   1.007   5.292   3.325
20673WAT     H162261   1.089   5.346   3.311
20673WAT     H262262   0.937   5.347   3.371
20674WAT      O62263   3.118   1.077   2.293
20674WAT     H162264   3.068   1.030   2.365
20674WAT     H262265   3.104   1.175   2.301
20675WAT      O62266   7.330   6.486   9.767
20675WAT     H162267   7.248   6.488   9.709
20675WAT     H262268   7.343   6.577   9.808
20676WAT      O62269   2.406   6.424   1.957
20676WAT     H162270   2.408   6.503   2.019
20676WAT     H262271   2.496   6.382   1.954
20677WAT      O62272   9.144   0.312   5.782
20677WAT     H162273   9.099   0.224   5.801
20677WAT     H262274   9.235   0.312   5.824
20678WAT      O62275   6.008   4.244   9.196
20678WAT     H162276   5.961   4.155   9.203
20678WAT     H262277   5.999   4.279   9.103
20679WAT      O62278   2.613   8.837   3.991
20679WAT     H162279   2.604   8.898   4.070
20679WAT     H262280   2.609   8.890   3.907
20680WAT      O62281   7.823   7.030   2.949
20680WAT     H162282   7.881   7.111   2.958
20680WAT     H262283   7.879   6.948   2.949
20681WAT      O62284   1.709   9.729   4.841
20681WAT     H162285   1.756   9.674   4.771
20681WAT     H262286   1.613   9.702   4.846
20682WAT      O62287   1.751   2.298   5.805
20682WAT     H162288   1.669   2.243   5.790
20682WAT     H262289   1.751   2.377   5.744
20683WAT      O62290   2.066   7.527   3.961
20683WAT     H162291   2.003   7.461   4.002
20683WAT     H262292   2.039   7.543   3.865
20684WAT      O62293   7.397   8.180   1.411
20684WAT     H162294   7.444   8.179   1.323
20684WAT     H262295   7.309   8.227   1.402
20685WAT      O62296   1.573   8.019   1.621
20685WAT     H162297   1.521   7.982   1.543
20685WAT     H262298   1.512   8.029   1.700
20686WAT      O62299   0.151   8.509   1.826
20686WAT     H162300   0.104   8.573   1.766
20686WAT     H262301   0.246   8.499   1.796
20687WAT      O62302   3.920   6.919   0.154
20687WAT     H162303   3.994   6.853   0.167
20687WAT     H262304   3.943   7.004   0.202
20688WAT      O62305   1.868   7.593   4.566
20688WAT     H162306   1.848   7.616   4.471
20688WAT     H262307   1.839   7.668   4.625
20689WAT      O62308   4.034   5.313   2.705
20689WAT     H162309   4.117   5.355   2.740
20689WAT     H262310   3.955   5.371   2.725
20690WAT      O62311   8.684   3.878   3.729
20690WAT     H162312   8.735   3.828   3.798
20690WAT     H262313   8.680   3.825   3.644
20691WAT      O62314   6.275   8.086   9.363
20691WAT     H162315   6.236   8.019   9.426
20691WAT     H262316   6.301   8.040   9.278
20692WAT      O62317   3.018   7.558   6.098
20692WAT     H162318   2.981   7.465   6.093
20692WAT     H262319   3.116   7.556   6.075
20693WAT      O62320   2.468   1.725   2.262
20693WAT     H162321   2.509   1.777   2.187
20693WAT     H262322   2.536   1.707   2.333
20694WAT      O62323   5.849   2.015   4.445
20694WAT     H162324   5.946   1.988   4.449
20694WAT     H262325   5.794   1.949   4.496
20695WAT      O62326   9.690   9.819   8.704
20695WAT     H162327   9.709   9.838   8.608
20695WAT     H262328   9.724   9.895   8.760
20696WAT      O62329   1.304   4.238   6.106
20696WAT     H162330   1.254   4.285   6.034
20696WAT     H262331   1.403   4.244   6.088
20697WAT      O62332   4.604   3.925   2.126
20697WAT     H162333   4.515   3.960   2.099
20697WAT     H262334   4.601   3.825   2.132
20698WAT      O62335   2.467   9.543   9.444
20698WAT     H162336   2.517   9.473   9.495
20698WAT     H262337   2.371   9.517   9.438
20699WAT      O62338   0.307   7.529   5.059
20699WAT     H162339   0.247   7.490   4.989
20699WAT     H262340   0.336   7.621   5.030
20700WAT      O62341   7.081   2.710   0.380
20700WAT     H162342   7.094   2.807   0.400
20700WAT     H262343   7.017   2.700   0.304
20701WAT      O62344   1.217   1.217   6.124
20701WAT     H162345   1.201   1.204   6.026
20701WAT     H262346   1.178   1.140   6.175
20702WAT      O62347   5.011   2.808   6.156
20702WAT     H162348   4.971   2.745   6.089
20702WAT     H262349   5.022   2.898   6.114
20703WAT      O62350   1.709   2.610   8.437
20703WAT     H162351   1.614   2.605   8.409
20703WAT     H262352   1.722   2.686   8.500
20704WAT      O62353   9.274   7.620   7.258
20704WAT     H162354   9.342   7.586   7.193
20704WAT     H262355   9.307   7.607   7.351
20705WAT      O62356   2.880   2.266   1.045
20705WAT     H162357   2.882   2.290   0.948
20705WAT     H262358   2.813   2.192   1.059
20706WAT      O62359   4.875   6.778   4.801
20706WAT     H162360   4.954   6.756   4.858
20706WAT     H262361   4.874   6.720   4.720
20707WAT      O62362   8.008   1.943   3.246
20707WAT     H162363   8.095   1.913   3.285
20707WAT     H262364   7.966   1.867   3.196
20708WAT      O62365   0.764   8.978   9.627
20708WAT     H162366   0.734   8.899   9.573
20708WAT     H262367   0.859   8.966   9.654
20709WAT      O62368   2.387   4.863   2.604
20709WAT     H162369   2.309   4.917   2.633
20709WAT     H262370   2.438   4.832   2.685
20710WAT      O62371   8.312   6.012   5.638
20710WAT     H162372   8.265   6.033   5.723
20710WAT     H262373   8.346   6.096   5.596
20711WAT      O62374   9.074   6.343   4.588
20711WAT     H162375   9.110   6.359   4.680
20711WAT     H262376   9.129   6.273   4.542
20712WAT      O62377   7.161   8.564   9.265
20712WAT     H162378   7.163   8.652   9.313
20712WAT     H262379   7.073   8.520   9.279
20713WAT      O62380   8.977   0.865   1.955
20713WAT     H162381   8.918   0.812   1.895
20713WAT     H262382   8.968   0.963   1.933
20714WAT      O62383   5.549   0.034   7.270
20714WAT     H162384   5.469   0.094   7.271
20714WAT     H262385   5.604   0.052   7.189
20715WAT      O62386   4.663   9.174   5.185
20715WAT     H162387   4.689   9.081   5.213
20715WAT     H262388   4.667   9.180   5.085
20716WAT      O62389   9.698   5.750   0.749
20716WAT     H162390   9.797   5.745   0.761
20716WAT     H262391   9.653   5.702   0.824
20717WAT      O62392   7.715   2.454   2.070
20717WAT     H162393   7.621   2.459   2.037
20717WAT     H262394   7.773   2.407   2.003
20718WAT      O62395   1.569   6.856   8.231
20718WAT     H162396   1.565   6.763   8.267
20718WAT     H262397   1.548   6.921   8.305
20719WAT      O62398   4.173   5.545   9.005
20719WAT     H162399   4.189   5.543   9.104
20719WAT     H262400   4.221   5.469   8.962
20720WAT      O62401   0.170   8.059   7.333
20720WAT     H162402   0.084   8.085   7.287
20720WAT     H262403   0.167   7.962   7.357
20721WAT      O62404   5.701   2.444   2.315
20721WAT     H162405   5.731   2.362   2.267
20721WAT     H262406   5.649   2.503   2.252
20722WAT      O62407   1.285   2.606   9.050
20722WAT     H162408   1.272   2.611   8.951
20722WAT     H262409   1.260   2.694   9.092
20723WAT      O62410   4.306   8.954   0.006
20723WAT     H162411   4.235   8.915   0.065
20723WAT     H262412   4.374   9.000   0.063
20724WAT      O62413   8.594   7.745   1.343
20724WAT     H162414   8.547   7.779   1.262
20724WAT     H262415   8.692   7.738   1.324
20725WAT      O62416   5.339   9.296   2.606
20725WAT     H162417   5.399   9.296   2.526
20725WAT     H262418   5.268   9.226   2.595
20726WAT      O62419   7.997   7.193   4.730
20726WAT     H162420   8.065   7.139   4.780
20726WAT     H262421   7.996   7.164   4.634
20727WAT      O62422   0.418   4.158   9.852
20727WAT     H162423   0.462   4.156   9.941
20727WAT     H262424   0.423   4.250   9.814
20728WAT      O62425   0.682   9.068   7.829
20728WAT     H162426   0.672   9.099   7.923
20728WAT     H262427   0.624   8.989   7.813
20729WAT      O62428   3.336   1.533   8.944
20729WAT     H162429   3.410   1.503   8.884
20729WAT     H262430   3.307   1.625   8.917
20730WAT      O62431   0.891   7.306   8.569
20730WAT     H162432   0.955   7.254   8.626
20730WAT     H262433   0.835   7.366   8.627
20731WAT      O62434   2.077   0.384   5.358
20731WAT     H162435   2.066   0.354   5.264
20731WAT     H262436   2.157   0.444   5.366
20732WAT      O62437   4.478   3.713   9.798
20732WAT     H162438   4.528   3.758   9.724
20732WAT     H262439   4.461   3.778   9.871
20733WAT      O62440   1.286   9.795   5.869
20733WAT     H162441   1.219   9.869   5.873
20733WAT     H262442   1.372   9.830   5.832
20734WAT      O62443   2.746   0.117   9.058
20734WAT     H162444   2.811   0.090   9.129
20734WAT     H262445   2.788   0.103   8.968
20735WAT      O62446   6.255   3.177   9.091
20735WAT     H162447   6.184   3.247   9.080
20735WAT     H262448   6.223   3.091   9.053
20736WAT      O62449   5.301   4.950   8.815
20736WAT     H162450   5.340   5.033   8.855
20736WAT     H262451   5.368   4.876   8.822
20737WAT      O62452   8.695   1.628   8.178
20737WAT     H162453   8.619   1.644   8.115
20737WAT     H262454   8.665   1.566   8.251
20738WAT      O62455   4.234   1.485   3.740
20738WAT     H162456   4.245   1.555   3.670
20738WAT     H262457   4.261   1.396   3.702
20739WAT      O62458   9.861   4.081   0.084
20739WAT     H162459   9.862   4.084   0.184
20739WAT     H262460   9.766   4.079   0.052
20740WAT      O62461   5.189   7.306   1.389
20740WAT     H162462   5.239   7.389   1.413
20740WAT     H262463   5.215   7.277   1.296
20741WAT      O62464   0.603   8.042   7.466
20741WAT     H162465   0.688   8.074   7.423
20741WAT     H262466   0.589   7.945   7.444
20742WAT      O62467   4.506   8.168   8.768
20742WAT     H162468   4.482   8.264   8.777
20742WAT     H262469   4.424   8.114   8.748
20743WAT      O62470   8.801   3.316   7.382
20743WAT     H162471   8.834   3.367   7.461
20743WAT     H262472   8.829   3.363   7.298
20744WAT      O62473   3.654   3.531   1.215
20744WAT     H162474   3.625   3.575   1.130
20744WAT     H262475   3.698   3.443   1.194
20745WAT      O62476   6.868   0.408   9.428
20745WAT     H162477   6.844   0.312   9.439
20745WAT     H262478   6.948   0.416   9.369
20746WAT      O62479   4.969   7.024   3.354
20746WAT     H162480   5.036   7.098   3.354
20746WAT     H262481   4.898   7.044   3.286
20747WAT      O62482   3.091   3.579   0.707
20747WAT     H162483   3.024   3.600   0.779
20747WAT     H262484   3.124   3.485   0.720
20748WAT      O62485   7.422   3.810   2.099
20748WAT     H162486   7.498   3.858   2.144
20748WAT     H262487   7.335   3.851   2.128
20749WAT      O62488   5.968   6.816   8.650
20749WAT     H162489   5.988   6.912   8.631
20749WAT     H262490   6.022   6.758   8.589
20750WAT      O62491   6.784   6.285   9.854
20750WAT     H162492   6.819   6.263   9.763
20750WAT     H262493   6.785   6.385   9.866
20751WAT      O62494   3.081   0.554   7.688
20751WAT     H162495   3.159   0.596   7.734
20751WAT     H262496   3.103   0.460   7.662
20752WAT      O62497   8.707   7.523   1.700
20752WAT     H162498   8.641   7.470   1.753
20752WAT     H262499   8.799   7.507   1.736
20753WAT      O62500   0.852   1.916   7.839
20753WAT     H162501   0.782   1.862   7.885
20753WAT     H262502   0.943   1.881   7.861
20754WAT      O62503   7.646   8.808   5.780
20754WAT     H162504   7.642   8.908   5.784
20754WAT     H262505   7.740   8.778   5.798
20755WAT      O62506   0.721   5.406   8.468
20755WAT     H162507   0.667   5.473   8.417
20755WAT     H262508   0.695   5.314   8.441
20756WAT      O62509   4.136   1.217   8.957
20756WAT     H162510   4.213   1.154   8.964
20756WAT     H262511   4.166   1.310   8.980
20757WAT      O62512   5.864   2.365   3.278
20757WAT     H162513   5.898   2.391   3.188
20757WAT     H262514   5.939   2.372   3.345
20758WAT      O62515   2.488   2.676   1.117
20758WAT     H162516   2.575   2.714   1.148
20758WAT     H262517   2.421   2.681   1.192
20759WAT      O62518   1.632   7.732   6.192
20759WAT     H162519   1.667   7.825   6.203
20759WAT     H262520   1.620   7.691   6.283
20760WAT      O62521   4.759   1.851   5.356
20760WAT     H162522   4.722   1.943   5.347
20760WAT     H262523   4.699   1.796   5.414
20761WAT      O62524   8.049   4.867   6.823
20761WAT     H162525   7.982   4.913   6.881
20761WAT     H262526   8.032   4.891   6.727
20762WAT      O62527   0.073   1.610   2.272
20762WAT     H162528   0.056   1.625   2.369
20762WAT     H262529   0.006   1.544   2.236
20763WAT      O62530   8.802   7.793   2.284
20763WAT     H162531   8.792   7.741   2.200
20763WAT     H262532   8.799   7.891   2.264
20764WAT      O62533   4.505   2.467   9.253
20764WAT     H162534   4.474   2.559   9.276
20764WAT     H262535   4.492   2.450   9.155
20765WAT      O62536   9.468   7.792   3.074
20765WAT     H162537   9.396   7.859   3.061
20765WAT     H262538   9.434   7.716   3.130
20766WAT      O62539   5.805   4.393   3.113
20766WAT     H162540   5.830   4.340   3.032
20766WAT     H262541   5.888   4.425   3.158
20767WAT      O62542   9.156   3.269   5.029
20767WAT     H162543   9.204   3.352   5.001
20767WAT     H262544   9.223   3.198   5.051
20768WAT      O62545   7.351   3.382   9.762
20768WAT     H162546   7.396   3.348   9.680
20768WAT     H262547   7.294   3.461   9.739
20769WAT      O62548   5.978   8.880   7.369
20769WAT     H162549   5.884   8.857   7.344
20769WAT     H262550   5.979   8.919   7.461
20770WAT      O62551   8.437   5.474   0.937
20770WAT     H162552   8.515   5.530   0.910
20770WAT     H262553   8.388   5.442   0.855
20771WAT      O62554   2.234   3.455   8.014
20771WAT     H162555   2.144   3.490   8.042
20771WAT     H262556   2.231   3.355   8.013
20772WAT      O62557   0.771   8.902   3.112
20772WAT     H162558   0.751   8.916   3.209
20772WAT     H262559   0.790   8.806   3.095
20773WAT      O62560   8.821   0.067   4.753
20773WAT     H162561   8.787   0.095   4.663
20773WAT     H262562   8.900   0.006   4.741
20774WAT      O62563   7.423   6.101   6.396
20774WAT     H162564   7.411   6.002   6.399
20774WAT     H262565   7.469   6.132   6.480
20775WAT      O62566   3.189   8.917   8.935
20775WAT     H162567   3.139   8.838   8.899
20775WAT     H262568   3.179   8.920   9.035
20776WAT      O62569   5.123   5.594   1.076
20776WAT     H162570   5.167   5.668   1.026
20776WAT     H262571   5.141   5.603   1.173
20777WAT      O62572   8.059   1.826   1.756
20777WAT     H162573   8.007   1.748   1.720
20777WAT     H262574   8.149   1.795   1.786
20778WAT      O62575   3.600   9.707   8.090
20778WAT     H162576   3.527   9.657   8.137
20778WAT     H262577   3.585   9.805   8.099
20779WAT      O62578   8.311   7.554   3.807
20779WAT     H162579   8.327   7.458   3.830
20779WAT     H262580   8.363   7.578   3.725
20780WAT      O62581   8.464   9.274   2.192
20780WAT     H162582   8.366   9.254   2.201
20780WAT     H262583   8.476   9.364   2.149
20781WAT      O62584   7.751   4.362   9.360
20781WAT     H162585   7.658   4.374   9.394
20781WAT     H262586   7.759   4.404   9.269
20782WAT      O62587   4.968   1.476   8.895
20782WAT     H162588   5.051   1.439   8.937
20782WAT     H262589   4.976   1.470   8.796
20783WAT      O62590   7.599   2.454   7.943
20783WAT     H162591   7.514   2.491   7.980
20783WAT     H262592   7.594   2.354   7.941
20784WAT      O62593   5.853   4.057   0.426
20784WAT     H162594   5.830   4.055   0.524
20784WAT     H262595   5.836   4.148   0.390
20785WAT      O62596   2.094   4.082   5.876
20785WAT     H162597   2.186   4.119   5.890
20785WAT     H262598   2.038   4.149   5.829
20786WAT      O62599   9.844   3.710   7.866
20786WAT     H162600   9.826   3.660   7.781
20786WAT     H262601   9.821   3.651   7.944
20787WAT      O62602   2.457   1.437   8.578
20787WAT     H162603   2.508   1.361   8.537
20787WAT     H262604   2.369   1.446   8.532
20788WAT      O62605   0.047   6.778   6.321
20788WAT     H162606   0.021   6.683   6.337
20788WAT     H262607  -0.018   6.839   6.366
20789WAT      O62608   5.057   4.419   9.649
20789WAT     H162609   5.009   4.493   9.696
20789WAT     H262610   5.131   4.384   9.708
20790WAT      O62611   7.857   8.152   7.517
20790WAT     H162612   7.849   8.158   7.417
20790WAT     H262613   7.772   8.186   7.559
20791WAT      O62614   4.736   1.577   3.974
20791WAT     H162615   4.830   1.544   3.967
20791WAT     H262616   4.687   1.523   4.042
20792WAT      O62617   6.177   9.039   2.302
20792WAT     H162618   6.125   9.101   2.360
20792WAT     H262619   6.119   8.963   2.273
20793WAT      O62620   2.096   8.883   0.268
20793WAT     H162621   2.040   8.802   0.285
20793WAT     H262622   2.059   8.960   0.319
20794WAT      O62623   6.397   2.150   7.328
20794WAT     H162624   6.425   2.244   7.307
20794WAT     H262625   6.478   2.091   7.330
20795WAT      O62626   7.812   1.777   1.251
20795WAT     H162627   7.851   1.823   1.171
20795WAT     H262628   7.773   1.846   1.313
20796WAT      O62629   7.341   1.144   7.597
20796WAT     H162630   7.271   1.143   7.526
20796WAT     H262631   7.417   1.086   7.569
20797WAT      O62632   4.620   8.688   5.655
20797WAT     H162633   4.704   8.737   5.633
20797WAT     H262634   4.565   8.743   5.719
20798WAT      O62635   3.989   7.071   8.919
20798WAT     H162636   4.021   7.059   9.014
20798WAT     H262637   3.902   7.024   8.907
20799WAT      O62638   2.505   0.138   5.581
20799WAT     H162639   2.597   0.152   5.619
20799WAT     H262640   2.438   0.185   5.639
20800WAT      O62641   1.486   2.771   9.839
20800WAT     H162642   1.400   2.813   9.809
20800WAT     H262643   1.516   2.704   9.771
20801WAT      O62644   1.097   1.587   6.883
20801WAT     H162645   1.156   1.648   6.937
20801WAT     H262646   1.051   1.522   6.944
20802WAT      O62647   3.315   4.834   2.289
20802WAT     H162648   3.260   4.916   2.307
20802WAT     H262649   3.369   4.849   2.206
20803WAT      O62650   7.181   7.425   9.283
20803WAT     H162651   7.250   7.356   9.306
20803WAT     H262652   7.140   7.460   9.368
20804WAT      O62653   7.442   8.239   3.586
20804WAT     H162654   7.444   8.275   3.679
20804WAT     H262655   7.465   8.142   3.587
20805WAT      O62656   8.102   8.602   5.538
20805WAT     H162657   8.151   8.650   5.610
20805WAT     H262658   8.132   8.635   5.449
20806WAT      O62659   6.786   0.523   8.216
20806WAT     H162660   6.745   0.614   8.222
20806WAT     H262661   6.864   0.518   8.279
20807WAT      O62662   4.967   8.167   8.113
20807WAT     H162663   4.920   8.137   8.030
20807WAT     H262664   5.060   8.131   8.114
20808WAT      O62665   4.671   4.891   7.466
20808WAT     H162666   4.590   4.885   7.408
20808WAT     H262667   4.687   4.802   7.510
20809WAT      O62668   6.906   6.347   1.043
20809WAT     H162669   6.883   6.383   1.133
20809WAT     H262670   6.833   6.368   0.979
20810WAT      O62671   1.878   5.248   3.690
20810WAT     H162672   1.885   5.178   3.618
20810WAT     H262673   1.970   5.276   3.717
20811WAT      O62674   0.722   9.599   7.884
20811WAT     H162675   0.656   9.529   7.911
20811WAT     H262676   0.760   9.577   7.794
20812WAT      O62677   4.160   2.887   3.222
20812WAT     H162678   4.134   2.791   3.219
20812WAT     H262679   4.215   2.909   3.141
20813WAT      O62680   9.105   1.755   9.841
20813WAT     H162681   9.037   1.816   9.801
20813WAT     H262682   9.183   1.747   9.779
20814WAT      O62683   9.672   0.263   7.836
20814WAT     H162684   9.573   0.250   7.848
20814WAT     H262685   9.689   0.355   7.801
20815WAT      O62686   6.449   5.292   8.766
20815WAT     H162687   6.545   5.269   8.750
20815WAT     H262688   6.437   5.327   8.859
20816WAT      O62689   4.629   6.598   5.131
20816WAT     H162690   4.724   6.593   5.102
20816WAT     H262691   4.569   6.583   5.052
20817WAT      O62692   5.455   2.945   7.420
20817WAT     H162693   5.414   2.920   7.508
20817WAT     H262694   5.481   3.042   7.422
20818WAT      O62695   8.990   3.175   8.783
20818WAT     H162696   8.917   3.119   8.821
20818WAT     H262697   8.963   3.208   8.692
20819WAT      O62698   7.434   7.186   8.352
20819WAT     H162699   7.516   7.242   8.343
20819WAT     H262700   7.459   7.089   8.342
20820WAT      O62701   1.247   2.784   5.704
20820WAT     H162702   1.322   2.722   5.724
20820WAT     H262703   1.182   2.740   5.642
20821WAT      O62704   9.699   3.082   1.485
20821WAT     H162705   9.795   3.094   1.461
20821WAT     H262706   9.646   3.063   1.402
20822WAT      O62707   1.396   6.569   7.849
20822WAT     H162708   1.304   6.575   7.811
20822WAT     H262709   1.419   6.656   7.893
20823WAT      O62710   2.611   1.131   4.900
20823WAT     H162711   2.552   1.058   4.934
20823WAT     H262712   2.556   1.204   4.861
20824WAT      O62713   4.091   4.041   5.471
20824WAT     H162714   4.114   3.944   5.472
20824WAT     H262715   4.169   4.095   5.503
20825WAT      O62716   5.496   4.270   1.057
20825WAT     H162717   5.414   4.214   1.045
20825WAT     H262718   5.576   4.212   1.065
20826WAT      O62719   9.661   8.149   4.328
20826WAT     H162720   9.678   8.051   4.330
20826WAT     H262721   9.625   8.175   4.239
20827WAT      O62722   1.674   3.443   0.417
20827WAT     H162723   1.731   3.373   0.460
20827WAT     H262724   1.690   3.531   0.461
20828WAT      O62725   7.997   8.202   4.094
20828WAT     H162726   8.096   8.191   4.093
20828WAT     H262727   7.963   8.204   4.000
20829WAT      O62728   3.367   5.063   7.886
20829WAT     H162729   3.380   5.146   7.941
20829WAT     H262730   3.282   5.018   7.913
20830WAT      O62731   7.681   6.673   1.058
20830WAT     H162732   7.710   6.768   1.047
20830WAT     H262733   7.738   6.629   1.127
20831WAT      O62734   7.623   6.782   5.107
20831WAT     H162735   7.651   6.875   5.086
20831WAT     H262736   7.524   6.773   5.095
20832WAT      O62737   0.532   0.474   2.797
20832WAT     H162738   0.474   0.439   2.723
20832WAT     H262739   0.607   0.409   2.813
20833WAT      O62740   7.698   8.322   9.216
20833WAT     H162741   7.651   8.405   9.188
20833WAT     H262742   7.650   8.242   9.180
20834WAT      O62743   7.103   5.056   8.969
20834WAT     H162744   7.084   5.139   9.022
20834WAT     H262745   7.107   5.079   8.872
20835WAT      O62746   8.635   4.450   3.185
20835WAT     H162747   8.551   4.460   3.238
20835WAT     H262748   8.613   4.415   3.094
20836WAT      O62749   5.833   6.737   6.987
20836WAT     H162750   5.870   6.819   7.030
20836WAT     H262751   5.809   6.670   7.057
20837WAT      O62752   2.283   1.375   1.804
20837WAT     H162753   2.282   1.475   1.800
20837WAT     H262754   2.319   1.345   1.892
20838WAT      O62755   3.533   6.286   3.489
20838WAT     H162756   3.597   6.343   3.540
20838WAT     H262757   3.470   6.344   3.437
20839WAT      O62758   7.164   0.969   4.313
20839WAT     H162759   7.071   0.992   4.283
20839WAT     H262760   7.160   0.908   4.392
20840WAT      O62761   0.327   5.750   2.993
20840WAT     H162762   0.281   5.677   3.043
20840WAT     H262763   0.294   5.839   3.025
20841WAT      O62764   3.493   3.963   7.748
20841WAT     H162765   3.525   4.010   7.666
20841WAT     H262766   3.405   4.002   7.776
20842WAT      O62767   8.213   9.467   3.534
20842WAT     H162768   8.157   9.491   3.613
20842WAT     H262769   8.310   9.482   3.555
20843WAT      O62770   4.054   0.441   8.401
20843WAT     H162771   4.036   0.519   8.461
20843WAT     H262772   4.148   0.447   8.367
20844WAT      O62773   0.169   0.801   0.572
20844WAT     H162774   0.266   0.824   0.567
20844WAT     H262775   0.115   0.885   0.565
20845WAT      O62776   4.679   5.863   7.877
20845WAT     H162777   4.658   5.960   7.891
20845WAT     H262778   4.594   5.813   7.865
20846WAT      O62779   6.287   5.834   9.327
20846WAT     H162780   6.336   5.860   9.411
20846WAT     H262781   6.340   5.863   9.247
20847WAT      O62782   1.906   4.229   8.876
20847WAT     H162783   1.884   4.274   8.790
20847WAT     H262784   1.875   4.134   8.873
20848WAT      O62785   0.116   5.617   3.906
20848WAT     H162786   0.120   5.521   3.932
20848WAT     H262787   0.133   5.626   3.808
20849WAT      O62788   5.630   7.906   6.715
20849WAT     H162789   5.723   7.940   6.727
20849WAT     H262790   5.629   7.806   6.718
20850WAT      O62791   2.218   2.910   1.240
20850WAT     H162792   2.273   2.838   1.282
20850WAT     H262793   2.159   2.951   1.310
20851WAT      O62794   3.307   4.082   6.392
20851WAT     H162795   3.264   4.017   6.329
20851WAT     H262796   3.395   4.045   6.422
20852WAT      O62797   4.414   1.597   3.920
20852WAT     H162798   4.331   1.574   3.870
20852WAT     H262799   4.490   1.606   3.855
20853WAT      O62800   6.300   1.094   4.459
20853WAT     H162801   6.239   1.092   4.539
20853WAT     H262802   6.271   1.024   4.394
20854WAT      O62803   1.498   5.489   7.488
20854WAT     H162804   1.475   5.452   7.398
20854WAT     H262805   1.551   5.422   7.540
20855WAT      O62806   3.276   3.763   1.015
20855WAT     H162807   3.249   3.671   1.044
20855WAT     H262808   3.194   3.819   1.003
20856WAT      O62809   8.895   4.072   7.988
20856WAT     H162810   8.950   4.154   7.971
20856WAT     H262811   8.956   3.995   8.009
20857WAT      O62812   0.136   3.851   6.475
20857WAT     H162813   0.104   3.941   6.444
20857WAT     H262814   0.226   3.860   6.518
20858WAT      O62815   8.113   2.306   2.283
20858WAT     H162816   8.015   2.289   2.294
20858WAT     H262817   8.128   2.403   2.264
20859WAT      O62818   3.259   4.648   1.651
20859WAT     H162819   3.221   4.580   1.589
20859WAT     H262820   3.348   4.679   1.615
20860WAT      O62821   2.481   2.378   2.967
20860WAT     H162822   2.413   2.342   2.904
20860WAT     H262823   2.547   2.435   2.918
20861WAT      O62824   2.865   3.336   5.340
20861WAT     H162825   2.855   3.265   5.410
20861WAT     H262826   2.874   3.425   5.383
20862WAT      O62827   2.277   7.893   0.231
20862WAT     H162828   2.317   7.905   0.140
20862WAT     H262829   2.331   7.945   0.298
20863WAT      O62830   1.896   8.104   8.010
20863WAT     H162831   1.864   8.197   8.031
20863WAT     H262832   1.844   8.038   8.064
20864WAT      O62833   5.818   9.038   6.290
20864WAT     H162834   5.918   9.034   6.277
20864WAT     H262835   5.798   9.086   6.375
20865WAT      O62836   3.156   5.559   0.642
20865WAT     H162837   3.075   5.565   0.583
20865WAT     H262838   3.127   5.546   0.736
20866WAT      O62839   0.181   5.880   1.507
20866WAT     H162840   0.128   5.919   1.432
20866WAT     H262841   0.271   5.853   1.474
20867WAT      O62842   8.313   4.628   8.202
20867WAT     H162843   8.231   4.663   8.248
20867WAT     H262844   8.370   4.704   8.173
20868WAT      O62845   6.171   1.908   0.402
20868WAT     H162846   6.213   1.863   0.481
20868WAT     H262847   6.221   1.882   0.319
20869WAT      O62848   6.847   0.427   1.459
20869WAT     H162849   6.883   0.450   1.369
20869WAT     H262850   6.900   0.475   1.529
20870WAT      O62851   3.171   1.495   1.892
20870WAT     H162852   3.188   1.463   1.799
20870WAT     H262853   3.258   1.513   1.938
20871WAT      O62854   8.970   2.573   1.330
20871WAT     H162855   8.918   2.656   1.347
20871WAT     H262856   8.912   2.493   1.348
20872WAT      O62857   5.342   8.157   0.946
20872WAT     H162858   5.351   8.220   0.869
20872WAT     H262859   5.428   8.156   0.998
20873WAT      O62860   9.776   1.565   9.203
20873WAT     H162861   9.813   1.628   9.135
20873WAT     H262862   9.847   1.543   9.269
20874WAT      O62863   8.178   9.501   1.551
20874WAT     H162864   8.110   9.543   1.490
20874WAT     H262865   8.132   9.438   1.613
20875WAT      O62866   1.777   0.192   1.211
20875WAT     H162867   1.707   0.258   1.237
20875WAT     H262868   1.735   0.114   1.165
20876WAT      O62869   6.430   9.406   9.782
20876WAT     H162870   6.360   9.429   9.714
20876WAT     H262871   6.472   9.318   9.759
20877WAT      O62872   8.272   8.519   6.136
20877WAT     H162873   8.227   8.582   6.199
20877WAT     H262874   8.248   8.425   6.160
20878WAT      O62875   7.338   2.577   0.245
20878WAT     H162876   7.313   2.545   0.336
20878WAT     H262877   7.263   2.556   0.181
20879WAT      O62878   5.372   3.353   3.084
20879WAT     H162879   5.310   3.426   3.112
20879WAT     H262880   5.448   3.346   3.149
20880WAT      O62881   5.157   6.046   8.559
20880WAT     H162882   5.255   6.058   8.574
20880WAT     H262883   5.110   6.042   8.647
20881WAT      O62884   9.340   1.750   4.569
20881WAT     H162885   9.279   1.753   4.648
20881WAT     H262886   9.285   1.744   4.485
20882WAT      O62887   4.786   0.196   6.938
20882WAT     H162888   4.849   0.273   6.954
20882WAT     H262889   4.838   0.113   6.921
20883WAT      O62890   6.447   2.087   9.194
20883WAT     H162891   6.378   2.091   9.266
20883WAT     H262892   6.500   2.002   9.202
20884WAT      O62893   7.938   5.070   4.100
20884WAT     H162894   7.963   5.023   4.185
20884WAT     H262895   7.841   5.057   4.083
20885WAT      O62896   8.204   2.009   9.324
20885WAT     H162897   8.112   2.018   9.287
20885WAT     H262898   8.269   1.993   9.249
20886WAT      O62899   5.647   4.064   9.579
20886WAT     H162900   5.662   3.975   9.536
20886WAT     H262901   5.685   4.063   9.672
20887WAT      O62902   0.007   7.914   5.720
20887WAT     H162903   0.091   7.873   5.684
20887WAT     H262904   0.021   7.937   5.817
20888WAT      O62905   5.687   8.620   5.103
20888WAT     H162906   5.718   8.666   5.187
20888WAT     H262907   5.640   8.686   5.044
20889WAT      O62908   4.635   9.755   0.179
20889WAT     H162909   4.704   9.734   0.110
20889WAT     H262910   4.552   9.789   0.135
20890WAT      O62911   6.283   1.624   3.072
20890WAT     H162912   6.367   1.577   3.043
20890WAT     H262913   6.216   1.622   2.998
20891WAT      O62914   1.213   3.622   7.194
20891WAT     H162915   1.139   3.558   7.212
20891WAT     H262916   1.271   3.586   7.121
20892WAT      O62917   1.769   3.241   9.391
20892WAT     H162918   1.702   3.204   9.456
20892WAT     H262919   1.784   3.175   9.318
20893WAT      O62920   0.090   3.959   9.403
20893WAT     H162921   0.110   3.909   9.487
20893WAT     H262922  -0.004   3.941   9.375
20894WAT      O62923   5.548   2.328   8.064
20894WAT     H162924   5.469   2.336   8.125
20894WAT     H262925   5.617   2.271   8.108
20895WAT      O62926   7.356   2.163   0.258
20895WAT     H162927   7.268   2.207   0.243
20895WAT     H262928   7.416   2.224   0.310
20896WAT      O62929   2.716   1.905   0.728
20896WAT     H162930   2.757   1.928   0.816
20896WAT     H262931   2.786   1.910   0.656
20897WAT      O62932   9.524   2.631   2.729
20897WAT     H162933   9.621   2.609   2.719
20897WAT     H262934   9.469   2.560   2.687
20898WAT      O62935   1.638   7.657   0.917
20898WAT     H162936   1.721   7.713   0.911
20898WAT     H262937   1.662   7.566   0.952
20899WAT      O62938   5.582   6.645   1.219
20899WAT     H162939   5.592   6.628   1.317
20899WAT     H262940   5.515   6.581   1.181
20900WAT      O62941   5.577   5.393   9.877
20900WAT     H162942   5.631   5.375   9.959
20900WAT     H262943   5.501   5.453   9.900
20901WAT      O62944   4.743   2.899   9.523
20901WAT     H162945   4.654   2.944   9.532
20901WAT     H262946   4.815   2.961   9.556
20902WAT      O62947   1.925   1.357   9.126
20902WAT     H162948   1.862   1.350   9.050
20902WAT     H262949   1.876   1.346   9.212
20903WAT      O62950   4.027   2.353   3.163
20903WAT     H162951   4.020   2.299   3.247
20903WAT     H262952   4.094   2.312   3.102
20904WAT      O62953   7.684   5.495   5.243
20904WAT     H162954   7.750   5.483   5.318
20904WAT     H262955   7.717   5.447   5.162
20905WAT      O62956   6.065   1.599   9.649
20905WAT     H162957   6.161   1.571   9.649
20905WAT     H262958   6.015   1.545   9.716
20906WAT      O62959   0.095   0.804   4.981
20906WAT     H162960   0.128   0.720   4.938
20906WAT     H262961   0.061   0.784   5.073
20907WAT      O62962   6.489   8.186   2.635
20907WAT     H162963   6.409   8.197   2.693
20907WAT     H262964   6.493   8.261   2.569
20908WAT      O62965   6.356   3.716   6.028
20908WAT     H162966   6.321   3.793   6.082
20908WAT     H262967   6.350   3.633   6.083
20909WAT      O62968   4.206   5.425   7.125
20909WAT     H162969   4.131   5.487   7.149
20909WAT     H262970   4.276   5.428   7.196
20910WAT      O62971   6.967   7.298   1.281
20910WAT     H162972   6.874   7.314   1.248
20910WAT     H262973   6.980   7.200   1.297
20911WAT      O62974   8.543   5.394   8.560
20911WAT     H162975   8.641   5.388   8.546
20911WAT     H262976   8.503   5.302   8.558
20912WAT      O62977   1.115   2.715   9.236
20912WAT     H162978   1.078   2.800   9.273
20912WAT     H262979   1.151   2.659   9.310
20913WAT      O62980   2.377   3.012   4.030
20913WAT     H162981   2.409   3.017   4.125
20913WAT     H262982   2.335   2.923   4.014
20914WAT      O62983   8.861   0.205   5.623
20914WAT     H162984   8.826   0.144   5.552
20914WAT     H262985   8.887   0.151   5.704
20915WAT      O62986   5.373   1.060   3.844
20915WAT     H162987   5.370   1.112   3.759
20915WAT     H262988   5.468   1.050   3.874
20916WAT      O62989   3.269   2.247   8.880
20916WAT     H162990   3.248   2.307   8.957
20916WAT     H262991   3.322   2.297   8.811
20917WAT      O62992   9.533   4.711   8.396
20917WAT     H162993   9.592   4.645   8.350
20917WAT     H262994   9.586   4.764   8.461
20918WAT      O62995   8.346   6.501   3.514
20918WAT     H162996   8.440   6.469   3.509
20918WAT     H262997   8.343   6.587   3.566
20919WAT      O62998   0.799   3.332   5.649
20919WAT     H162999   0.765   3.352   5.557
20919WAT     H263000   0.766   3.243   5.679
20920WAT      O63001   4.978   9.468   3.915
20920WAT     H163002   5.017   9.520   3.991
20920WAT     H263003   4.964   9.373   3.944
20921WAT      O63004   2.758   3.535   1.571
20921WAT     H163005   2.765   3.578   1.481
20921WAT     H263006   2.675   3.567   1.616
20922WAT      O63007   1.325   9.343   9.512
20922WAT     H163008   1.325   9.370   9.608
20922WAT     H263009   1.231   9.326   9.482
20923WAT      O63010   9.445   5.010   6.127
20923WAT     H163011   9.513   4.946   6.091
20923WAT     H263012   9.423   4.985   6.222
20924WAT      O63013   1.781   1.709   7.739
20924WAT     H163014   1.722   1.628   7.736
20924WAT     H263015   1.853   1.695   7.807
20925WAT      O63016   5.389   7.845   1.046
20925WAT     H163017   5.309   7.807   1.092
20925WAT     H263018   5.384   7.823   0.949
20926WAT      O63019   5.564   2.189   0.711
20926WAT     H163020   5.618   2.107   0.693
20926WAT     H263021   5.574   2.252   0.634
20927WAT      O63022   1.368   1.269   9.135
20927WAT     H163023   1.325   1.246   9.048
20927WAT     H263024   1.463   1.295   9.120
20928WAT      O63025   1.129   8.561   6.004
20928WAT     H163026   1.137   8.631   5.933
20928WAT     H263027   1.217   8.552   6.052
20929WAT      O63028   9.524   9.492   3.876
20929WAT     H163029   9.540   9.394   3.890
20929WAT     H263030   9.448   9.505   3.813
20930WAT      O63031   9.551   1.501   6.844
20930WAT     H163032   9.463   1.467   6.811
20930WAT     H263033   9.616   1.504   6.768
20931WAT      O63034   3.468   2.313   7.055
20931WAT     H163035   3.560   2.276   7.067
20931WAT     H263036   3.414   2.251   6.998
20932WAT      O63037   2.078   1.795   3.853
20932WAT     H163038   2.001   1.739   3.885
20932WAT     H263039   2.137   1.817   3.930
20933WAT      O63040   0.692   4.451   0.518
20933WAT     H163041   0.743   4.531   0.549
20933WAT     H263042   0.666   4.463   0.422
20934WAT      O63043   8.322   9.523   1.241
20934WAT     H163044   8.228   9.523   1.274
20934WAT     H263045   8.357   9.430   1.239
20935WAT      O63046   9.304   0.866   9.760
20935WAT     H163047   9.343   0.782   9.722
20935WAT     H263048   9.244   0.908   9.692
20936WAT      O63049   2.712   3.249   7.185
20936WAT     H163050   2.684   3.343   7.200
20936WAT     H263051   2.768   3.244   7.102
20937WAT      O63052   4.296   4.406   9.772
20937WAT     H163053   4.259   4.392   9.680
20937WAT     H263054   4.309   4.318   9.817
20938WAT      O63055   3.593   6.078   5.299
20938WAT     H163056   3.557   6.136   5.373
20938WAT     H263057   3.689   6.103   5.281
20939WAT      O63058   5.291   4.956   7.854
20939WAT     H163059   5.352   5.032   7.879
20939WAT     H263060   5.220   4.946   7.924
20940WAT      O63061   9.190   8.554   3.542
20940WAT     H163062   9.289   8.551   3.527
20940WAT     H263063   9.157   8.461   3.561
20941WAT      O63064   8.841   5.746   5.107
20941WAT     H163065   8.819   5.787   5.196
20941WAT     H263066   8.853   5.819   5.039
20942WAT      O63067   5.885   9.809   2.198
20942WAT     H163068   5.956   9.815   2.268
20942WAT     H263069   5.795   9.813   2.240
20943WAT      O63070   2.651   1.211   4.330
20943WAT     H163071   2.745   1.184   4.349
20943WAT     H263072   2.648   1.309   4.310
20944WAT      O63073   6.090   5.459   2.682
20944WAT     H163074   6.066   5.540   2.736
20944WAT     H263075   6.069   5.476   2.586
20945WAT      O63076   6.723   7.352   9.029
20945WAT     H163077   6.629   7.359   9.064
20945WAT     H263078   6.787   7.376   9.102
20946WAT      O63079   4.780   6.054   2.518
20946WAT     H163080   4.856   6.057   2.453
20946WAT     H263081   4.749   5.959   2.528
20947WAT      O63082   0.477   5.298   3.613
20947WAT     H163083   0.477   5.213   3.666
20947WAT     H263084   0.439   5.280   3.522
20948WAT      O63085   3.789   0.689   8.929
20948WAT     H163086   3.711   0.653   8.878
20948WAT     H263087   3.758   0.759   8.994
20949WAT      O63088   8.318   1.640   3.265
20949WAT     H163089   8.341   1.643   3.168
20949WAT     H263090   8.384   1.582   3.313
20950WAT      O63091   4.784   3.321   0.415
20950WAT     H163092   4.760   3.225   0.433
20950WAT     H263093   4.819   3.328   0.321
20951WAT      O63094   8.991   0.305   1.734
20951WAT     H163095   9.019   0.361   1.812
20951WAT     H263096   9.071   0.281   1.680
20952WAT      O63097   4.505   7.065   2.063
20952WAT     H163098   4.571   6.992   2.045
20952WAT     H263099   4.482   7.111   1.977
20953WAT      O63100   5.662   8.520   1.302
20953WAT     H163101   5.753   8.515   1.342
20953WAT     H263102   5.619   8.429   1.305
20954WAT      O63103   8.633   6.694   9.586
20954WAT     H163104   8.541   6.704   9.549
20954WAT     H263105   8.642   6.749   9.669
20955WAT      O63106   7.246   8.526   2.688
20955WAT     H163107   7.181   8.595   2.657
20955WAT     H263108   7.198   8.456   2.740
20956WAT      O63109   5.746   3.092   5.146
20956WAT     H163110   5.745   3.192   5.139
20956WAT     H263111   5.835   3.058   5.115
20957WAT      O63112   0.843   6.859   7.528
20957WAT     H163113   0.818   6.821   7.439
20957WAT     H263114   0.871   6.955   7.516
20958WAT      O63115   8.711   5.113   7.899
20958WAT     H163116   8.653   5.165   7.962
20958WAT     H263117   8.772   5.176   7.850
20959WAT      O63118   6.739   5.911   8.309
20959WAT     H163119   6.751   5.898   8.407
20959WAT     H263120   6.782   5.836   8.259
20960WAT      O63121   9.273   2.021   8.549
20960WAT     H163122   9.362   1.982   8.522
20960WAT     H263123   9.203   1.949   8.546
20961WAT      O63124   4.246   1.217   3.191
20961WAT     H163125   4.291   1.207   3.280
20961WAT     H263126   4.315   1.223   3.119
20962WAT      O63127   0.573   5.260   8.853
20962WAT     H163128   0.481   5.289   8.879
20962WAT     H263129   0.567   5.197   8.775
20963WAT      O63130   7.788   4.224   7.954
20963WAT     H163131   7.716   4.191   7.893
20963WAT     H263132   7.764   4.201   8.049
20964WAT      O63133   5.963   1.211   6.301
20964WAT     H163134   5.884   1.215   6.240
20964WAT     H263135   6.043   1.176   6.250
20965WAT      O63136   8.937   8.615   4.457
20965WAT     H163137   8.886   8.649   4.378
20965WAT     H263138   8.919   8.673   4.536
20966WAT      O63139   8.966   0.466   5.899
20966WAT     H163140   8.996   0.561   5.903
20966WAT     H263141   9.041   0.410   5.863
20967WAT      O63142   0.595   1.986   5.984
20967WAT     H163143   0.693   1.964   5.980
20967WAT     H263144   0.543   1.902   6.002
20968WAT      O63145   4.835   7.598   3.790
20968WAT     H163146   4.852   7.695   3.776
20968WAT     H263147   4.835   7.578   3.888
20969WAT      O63148   7.560   0.298   8.917
20969WAT     H163149   7.556   0.381   8.973
20969WAT     H263150   7.470   0.256   8.913
20970WAT      O63151   1.462   5.683   0.606
20970WAT     H163152   1.452   5.782   0.602
20970WAT     H263153   1.447   5.645   0.514
20971WAT      O63154   8.559   2.668   0.356
20971WAT     H163155   8.598   2.651   0.265
20971WAT     H263156   8.564   2.765   0.377
20972WAT      O63157   4.297   2.354   1.898
20972WAT     H163158   4.342   2.354   1.987
20972WAT     H263159   4.304   2.263   1.857
20973WAT      O63160   3.092   3.315   0.833
20973WAT     H163161   3.099   3.279   0.926
20973WAT     H263162   2.999   3.301   0.798
20974WAT      O63163   2.131   1.483   2.124
20974WAT     H163164   2.114   1.386   2.144
20974WAT     H263165   2.222   1.508   2.154
20975WAT      O63166   3.409   4.972   9.348
20975WAT     H163167   3.323   5.017   9.327
20975WAT     H263168   3.393   4.897   9.411
20976WAT      O63169   1.857   6.593   9.391
20976WAT     H163170   1.920   6.535   9.443
20976WAT     H263171   1.830   6.672   9.447
20977WAT      O63172   6.201   3.744   2.718
20977WAT     H163173   6.245   3.814   2.661
20977WAT     H263174   6.122   3.784   2.765
20978WAT      O63175   8.470   2.472   2.661
20978WAT     H163176   8.484   2.465   2.562
20978WAT     H263177   8.558   2.465   2.708
20979WAT      O63178   5.379   6.538   1.928
20979WAT     H163179   5.434   6.469   1.882
20979WAT     H263180   5.360   6.614   1.865
20980WAT      O63181   1.349   2.839   4.233
20980WAT     H163182   1.378   2.744   4.222
20980WAT     H263183   1.368   2.869   4.327
20981WAT      O63184   7.051   3.205   6.057
20981WAT     H163185   6.979   3.205   6.126
20981WAT     H263186   7.129   3.259   6.088
20982WAT      O63187   6.299   8.640   9.681
20982WAT     H163188   6.355   8.584   9.743
20982WAT     H263189   6.216   8.589   9.656
20983WAT      O63190   9.291   8.037   3.046
20983WAT     H163191   9.366   8.103   3.053
20983WAT     H263192   9.209   8.074   3.091
20984WAT      O63193   4.708   4.890   1.930
20984WAT     H163194   4.627   4.874   1.874
20984WAT     H263195   4.768   4.955   1.885
20985WAT      O63196   0.728   0.319   0.534
20985WAT     H163197   0.668   0.353   0.607
20985WAT     H263198   0.795   0.256   0.573
20986WAT      O63199   5.981   0.000   5.398
20986WAT     H163200   5.995   0.058   5.479
20986WAT     H263201   6.040   0.033   5.324
20987WAT      O63202   1.889   7.465   8.315
20987WAT     H163203   1.897   7.365   8.322
20987WAT     H263204   1.839   7.488   8.232
20988WAT      O63205   6.289   3.951   6.194
20988WAT     H163206   6.366   4.012   6.211
20988WAT     H263207   6.203   4.003   6.203
20989WAT      O63208   9.339   5.209   6.563
20989WAT     H163209   9.281   5.134   6.594
20989WAT     H263210   9.428   5.205   6.608
20990WAT      O63211   7.652   6.707   7.095
20990WAT     H163212   7.612   6.635   7.151
20990WAT     H263213   7.668   6.673   7.002
20991WAT      O63214   2.864   6.727   2.626
20991WAT     H163215   2.904   6.684   2.706
20991WAT     H263216   2.867   6.827   2.636
20992WAT      O63217   8.218   9.761   8.442
20992WAT     H163218   8.161   9.794   8.517
20992WAT     H263219   8.285   9.696   8.477
20993WAT      O63220   6.696   8.285   7.431
20993WAT     H163221   6.679   8.254   7.338
20993WAT     H263222   6.764   8.225   7.474
20994WAT      O63223   5.718   1.506   6.962
20994WAT     H163224   5.700   1.458   6.876
20994WAT     H263225   5.635   1.506   7.018
20995WAT      O63226   6.138   3.145   4.542
20995WAT     H163227   6.174   3.098   4.462
20995WAT     H263228   6.039   3.154   4.533
20996WAT      O63229   2.780   3.690   5.735
20996WAT     H163230   2.727   3.730   5.810
20996WAT     H263231   2.798   3.594   5.754
20997WAT      O63232   6.965   4.918   0.066
20997WAT     H163233   6.949   4.863   0.148
20997WAT     H263234   6.983   4.858  -0.011
20998WAT      O63235   1.342   6.562   3.357
20998WAT     H163236   1.353   6.652   3.314
20998WAT     H263237   1.250   6.554   3.394
20999WAT      O63238   4.134   0.700   9.855
20999WAT     H163239   4.062   0.633   9.837
20999WAT     H263240   4.193   0.667   9.929
21000WAT      O63241   6.918   0.551   6.892
21000WAT     H163242   6.878   0.588   6.976
21000WAT     H263243   6.845   0.528   6.827
21001WAT      O63244   1.190   4.545   6.835
21001WAT     H163245   1.259   4.567   6.766
21001WAT     H263246   1.140   4.463   6.806
21002WAT      O63247   0.614   4.249   2.251
21002WAT     H163248   0.671   4.313   2.200
21002WAT     H263249   0.520   4.283   2.253
21003WAT      O63250   8.023   8.355   3.373
21003WAT     H163251   7.969   8.394   3.299
21003WAT     H263252   8.107   8.316   3.337
21004WAT      O63253   5.391   1.216   7.660
21004WAT     H163254   5.489   1.195   7.661
21004WAT     H263255   5.346   1.173   7.738
21005WAT      O63256   2.837   6.348   2.728
21005WAT     H163257   2.845   6.250   2.743
21005WAT     H263258   2.858   6.369   2.632
21006WAT      O63259   5.569   2.975   3.478
21006WAT     H163260   5.666   2.949   3.480
21006WAT     H263261   5.532   2.958   3.386
21007WAT      O63262   7.292   6.813   6.894
21007WAT     H163263   7.354   6.866   6.951
21007WAT     H263264   7.255   6.736   6.946
21008WAT      O63265   9.375   7.593   3.226
21008WAT     H163266   9.430   7.512   3.208
21008WAT     H263267   9.279   7.566   3.238
21009WAT      O63268   2.224   8.202   3.503
21009WAT     H163269   2.160   8.129   3.479
21009WAT     H263270   2.227   8.269   3.429
21010WAT      O63271   0.616   0.994   6.702
21010WAT     H163272   0.586   0.971   6.795
21010WAT     H263273   0.695   0.939   6.677
21011WAT      O63274   1.919   3.401   4.972
21011WAT     H163275   1.876   3.338   5.037
21011WAT     H263276   1.954   3.349   4.894
21012WAT      O63277   1.080   7.702   6.405
21012WAT     H163278   1.144   7.723   6.331
21012WAT     H263279   1.070   7.603   6.413
21013WAT      O63280   0.674   4.487   4.189
21013WAT     H163281   0.605   4.559   4.191
21013WAT     H263282   0.662   4.428   4.268
21014WAT      O63283   7.743   2.730   3.613
21014WAT     H163284   7.744   2.748   3.515
21014WAT     H263285   7.831   2.755   3.653
21015WAT      O63286   7.387   4.963   3.927
21015WAT     H163287   7.346   4.969   3.836
21015WAT     H263288   7.317   4.939   3.994
21016WAT      O63289   7.891   7.898   0.191
21016WAT     H163290   7.813   7.929   0.137
21016WAT     H263291   7.896   7.798   0.188
21017WAT      O63292   0.029   0.543   6.057
21017WAT     H163293   0.122   0.553   6.021
21017WAT     H263294  -0.019   0.472   6.006
21018WAT      O63295   7.344   5.127   9.399
21018WAT     H163296   7.431   5.174   9.383
21018WAT     H263297   7.270   5.194   9.403
21019WAT      O63298   0.585   0.375   9.503
21019WAT     H163299   0.597   0.365   9.602
21019WAT     H263300   0.487   0.378   9.482
21020WAT      O63301   0.155   4.355   4.937
21020WAT     H163302   0.242   4.402   4.925
21020WAT     H263303   0.137   4.342   5.035
21021WAT      O63304   0.075   5.838   0.799
21021WAT     H163305   0.074   5.845   0.700
21021WAT     H263306   0.130   5.911   0.838
21022WAT      O63307   5.253   5.916   6.101
21022WAT     H163308   5.338   5.968   6.104
21022WAT     H263309   5.176   5.978   6.121
21023WAT      O63310   5.720   9.574   3.779
21023WAT     H163311   5.644   9.509   3.786
21023WAT     H263312   5.802   9.527   3.746
21024WAT      O63313   9.134   1.379   8.979
21024WAT     H163314   9.201   1.452   8.976
21024WAT     H263315   9.174   1.299   9.024
21025WAT      O63316   9.742   7.444   9.055
21025WAT     H163317   9.818   7.382   9.075
21025WAT     H263318   9.778   7.529   9.016
21026WAT      O63319   3.859   6.768   3.502
21026WAT     H163320   3.955   6.751   3.525
21026WAT     H263321   3.843   6.867   3.495
21027WAT      O63322   5.470   6.468   8.465
21027WAT     H163323   5.424   6.386   8.431
21027WAT     H263324   5.409   6.547   8.454
21028WAT      O63325   3.081   6.977   0.027
21028WAT     H163326   3.056   6.898   0.082
21028WAT     H263327   3.107   7.053   0.086
21029WAT      O63328   3.592   3.504   2.019
21029WAT     H163329   3.661   3.540   1.956
21029WAT     H263330   3.618   3.411   2.046
21030WAT      O63331   5.199   9.136   7.618
21030WAT     H163332   5.267   9.205   7.594
21030WAT     H263333   5.127   9.135   7.548
21031WAT      O63334   6.405   9.230   4.122
21031WAT     H163335   6.353   9.151   4.089
21031WAT     H263336   6.350   9.313   4.111
21032WAT      O63337   9.025   8.686   9.883
21032WAT     H163338   9.032   8.597   9.839
21032WAT     H263339   9.108   8.739   9.863
21033WAT      O63340   8.540   2.655   2.933
21033WAT     H163341   8.527   2.558   2.954
21033WAT     H263342   8.596   2.697   3.004
21034WAT      O63343   4.843   7.944   1.274
21034WAT     H163344   4.922   7.991   1.314
21034WAT     H263345   4.763   7.958   1.332
21035WAT      O63346   3.415   5.380   6.395
21035WAT     H163347   3.388   5.386   6.299
21035WAT     H263348   3.364   5.447   6.448
21036WAT      O63349   2.342   0.820   5.527
21036WAT     H163350   2.431   0.849   5.491
21036WAT     H263351   2.302   0.752   5.465
21037WAT      O63352   2.058   9.463   3.605
21037WAT     H163353   2.038   9.561   3.599
21037WAT     H263354   2.157   9.449   3.609
21038WAT      O63355   6.752   2.503   6.644
21038WAT     H163356   6.724   2.593   6.610
21038WAT     H263357   6.811   2.459   6.577
21039WAT      O63358   1.429   6.006   7.930
21039WAT     H163359   1.480   6.002   8.016
21039WAT     H263360   1.422   6.101   7.899
21040WAT      O63361   8.112   5.400   2.535
21040WAT     H163362   8.014   5.416   2.537
21040WAT     H263363   8.158   5.479   2.495
21041WAT      O63364   1.416   2.616   7.875
21041WAT     H163365   1.390   2.686   7.808
21041WAT     H263366   1.511   2.590   7.861
21042WAT      O63367   9.005   7.579   9.321
21042WAT     H163368   9.068   7.515   9.366
21042WAT     H263369   9.034   7.673   9.340
21043WAT      O63370   1.586   1.514   2.827
21043WAT     H163371   1.649   1.458   2.879
21043WAT     H263372   1.498   1.520   2.875
21044WAT      O63373   8.310   2.723   1.716
21044WAT     H163374   8.379   2.729   1.788
21044WAT     H263375   8.229   2.777   1.742
21045WAT      O63376   4.855   0.039   2.781
21045WAT     H163377   4.788   0.017   2.711
21045WAT     H263378   4.910   0.118   2.752
21046WAT      O63379   5.402   2.886   0.089
21046WAT     H163380   5.439   2.937   0.011
21046WAT     H263381   5.377   2.950   0.162
21047WAT      O63382   9.602   3.562   2.514
21047WAT     H163383   9.670   3.632   2.494
21047WAT     H263384   9.518   3.605   2.545
21048WAT      O63385   6.357   9.313   2.819
21048WAT     H163386   6.343   9.225   2.865
21048WAT     H263387   6.287   9.378   2.848
21049WAT      O63388   9.531   9.335   1.807
21049WAT     H163389   9.444   9.319   1.761
21049WAT     H263390   9.537   9.279   1.889
21050WAT      O63391   4.474   1.735   0.039
21050WAT     H163392   4.533   1.768   0.113
21050WAT     H263393   4.382   1.719   0.075
21051WAT      O63394   4.187   3.124   1.840
21051WAT     H163395   4.125   3.063   1.791
21051WAT     H263396   4.148   3.148   1.928
21052WAT      O63397   8.907   9.761   7.335
21052WAT     H163398   8.923   9.680   7.392
21052WAT     H263399   8.882   9.732   7.243
21053WAT      O63400   0.661   6.101   6.500
21053WAT     H163401   0.584   6.111   6.436
21053WAT     H263402   0.730   6.041   6.458
21054WAT      O63403   3.086   8.050   3.884
21054WAT     H163404   3.110   7.957   3.859
21054WAT     H263405   3.113   8.068   3.979
21055WAT      O63406   2.583   9.741   8.751
21055WAT     H163407   2.623   9.715   8.664
21055WAT     H263408   2.634   9.816   8.792
21056WAT      O63409   4.437   0.089   6.270
21056WAT     H163410   4.501   0.092   6.347
21056WAT     H263411   4.475   0.030   6.198
21057WAT      O63412   9.714   8.855   2.295
21057WAT     H163413   9.736   8.798   2.215
21057WAT     H263414   9.780   8.930   2.301
21058WAT      O63415   7.808   3.496   2.148
21058WAT     H163416   7.827   3.431   2.222
21058WAT     H263417   7.887   3.555   2.134
21059WAT      O63418   4.461   4.562   0.233
21059WAT     H163419   4.532   4.503   0.195
21059WAT     H263420   4.471   4.654   0.194
21060WAT      O63421   9.847   5.765   5.229
21060WAT     H163422   9.763   5.720   5.260
21060WAT     H263423   9.837   5.864   5.240
21061WAT      O63424   6.007   2.600   8.382
21061WAT     H163425   6.083   2.540   8.408
21061WAT     H263426   5.928   2.545   8.356
21062WAT      O63427   5.268   2.351   1.736
21062WAT     H163428   5.283   2.414   1.660
21062WAT     H263429   5.255   2.403   1.820
21063WAT      O63430   9.780   4.883   2.776
21063WAT     H163431   9.714   4.840   2.715
21063WAT     H263432   9.779   4.837   2.865
21064WAT      O63433   5.122   0.436   7.855
21064WAT     H163434   5.117   0.528   7.815
21064WAT     H263435   5.047   0.423   7.920
21065WAT      O63436   8.644   0.077   9.218
21065WAT     H163437   8.545   0.061   9.217
21065WAT     H263438   8.683   0.045   9.132
21066WAT      O63439   0.236   6.583   2.969
21066WAT     H163440   0.309   6.624   2.914
21066WAT     H263441   0.208   6.647   3.040
21067WAT      O63442   2.524   5.025   1.491
21067WAT     H163443   2.465   5.092   1.537
21067WAT     H263444   2.612   5.067   1.470
21068WAT      O63445   3.257   4.375   8.632
21068WAT     H163446   3.331   4.310   8.646
21068WAT     H263447   3.209   4.392   8.718
21069WAT      O63448   6.652   7.807   5.715
21069WAT     H163449   6.610   7.847   5.796
21069WAT     H263450   6.657   7.707   5.725
21070WAT      O63451   7.486   5.311   2.320
21070WAT     H163452   7.463   5.290   2.415
21070WAT     H263453   7.469   5.231   2.263
21071WAT      O63454   6.034   7.518   1.292
21071WAT     H163455   5.958   7.569   1.332
21071WAT     H263456   6.082   7.575   1.226
21072WAT      O63457   8.966   3.582   9.867
21072WAT     H163458   8.941   3.504   9.810
21072WAT     H263459   8.884   3.623   9.907
21073WAT      O63460   6.224   9.679   7.526
21073WAT     H163461   6.257   9.765   7.486
21073WAT     H263462   6.240   9.604   7.462
21074WAT      O63463   1.236   4.841   4.278
21074WAT     H163464   1.187   4.828   4.192
21074WAT     H263465   1.196   4.919   4.327
21075WAT      O63466   1.974   3.115   8.171
21075WAT     H163467   1.982   3.166   8.256
21075WAT     H263468   1.887   3.137   8.127
21076WAT      O63469   8.270   4.128   4.698
21076WAT     H163470   8.235   4.036   4.681
21076WAT     H263471   8.347   4.147   4.637
21077WAT      O63472   0.866   7.043   6.494
21077WAT     H163473   0.811   7.006   6.419
21077WAT     H263474   0.952   7.079   6.458
21078WAT      O63475   4.262   7.801   0.433
21078WAT     H163476   4.216   7.851   0.506
21078WAT     H263477   4.325   7.862   0.385
21079WAT      O63478   7.228   6.281   5.777
21079WAT     H163479   7.301   6.339   5.741
21079WAT     H263480   7.140   6.325   5.763
21080WAT      O63481   7.850   5.535   1.524
21080WAT     H163482   7.936   5.539   1.574
21080WAT     H263483   7.816   5.628   1.510
21081WAT      O63484   5.388   4.709   9.537
21081WAT     H163485   5.347   4.618   9.541
21081WAT     H263486   5.372   4.748   9.446
21082WAT      O63487   6.850   1.271   1.641
21082WAT     H163488   6.849   1.197   1.708
21082WAT     H263489   6.941   1.311   1.637
21083WAT      O63490   1.315   6.217   9.082
21083WAT     H163491   1.313   6.161   8.999
21083WAT     H263492   1.408   6.251   9.097
21084WAT      O63493   5.689   1.106   8.848
21084WAT     H163494   5.654   1.145   8.933
21084WAT     H263495   5.653   1.158   8.770
21085WAT      O63496   1.799   0.516   9.697
21085WAT     H163497   1.860   0.443   9.729
21085WAT     H263498   1.773   0.574   9.775
21086WAT      O63499   4.339   8.647   3.050
21086WAT     H163500   4.309   8.596   3.130
21086WAT     H263501   4.404   8.718   3.077
21087WAT      O63502   6.755   0.119   5.091
21087WAT     H163503   6.775   0.115   5.189
21087WAT     H263504   6.689   0.192   5.074
21088WAT      O63505   3.251   5.042   3.748
21088WAT     H163506   3.218   5.102   3.675
21088WAT     H263507   3.174   5.014   3.805
21089WAT      O63508   2.457   1.128   5.301
21089WAT     H163509   2.394   1.178   5.360
21089WAT     H263510   2.548   1.169   5.307
21090WAT      O63511   6.814   2.321   0.166
21090WAT     H163512   6.800   2.222   0.159
21090WAT     H263513   6.741   2.368   0.117
21091WAT      O63514   9.367   0.303   9.329
21091WAT     H163515   9.297   0.370   9.354
21091WAT     H263516   9.454   0.328   9.370
21092WAT      O63517   9.322   6.013   8.721
21092WAT     H163518   9.333   6.017   8.821
21092WAT     H263519   9.323   5.918   8.691
21093WAT      O63520   8.481   0.071   8.088
21093WAT     H163521   8.522   0.116   8.167
21093WAT     H263522   8.420  -0.002   8.120
21094WAT      O63523   6.208   5.200   1.094
21094WAT     H163524   6.110   5.194   1.080
21094WAT     H263525   6.248   5.261   1.025
21095WAT      O63526   6.453   8.848   8.327
21095WAT     H163527   6.377   8.874   8.268
21095WAT     H263528   6.538   8.882   8.288
21096WAT      O63529   1.383   3.581   0.222
21096WAT     H163530   1.334   3.496   0.244
21096WAT     H263531   1.474   3.559   0.186
21097WAT      O63532   3.226   7.277   4.933
21097WAT     H163533   3.316   7.268   4.890
21097WAT     H263534   3.224   7.361   4.987
21098WAT      O63535   9.048   4.430   9.499
21098WAT     H163536   9.053   4.523   9.535
21098WAT     H263537   8.954   4.398   9.501
21099WAT      O63538   2.987   6.568   2.827
21099WAT     H163539   2.940   6.484   2.802
21099WAT     H263540   2.968   6.590   2.923
21100WAT      O63541   1.870   1.070   2.946
21100WAT     H163542   1.819   1.118   2.874
21100WAT     H263543   1.806   1.035   3.015
21101WAT      O63544   0.396   0.583   4.395
21101WAT     H163545   0.392   0.571   4.296
21101WAT     H263546   0.426   0.676   4.416
21102WAT      O63547   9.405   2.599   8.764
21102WAT     H163548   9.428   2.524   8.826
21102WAT     H263549   9.325   2.573   8.710
21103WAT      O63550   3.663   5.993   6.483
21103WAT     H163551   3.619   6.072   6.525
21103WAT     H263552   3.709   6.021   6.399
21104WAT      O63553   4.014   7.595   0.179
21104WAT     H163554   4.051   7.508   0.212
21104WAT     H263555   3.929   7.578   0.129
21105WAT      O63556   5.733   5.192   7.651
21105WAT     H163557   5.689   5.103   7.665
21105WAT     H263558   5.812   5.199   7.711
21106WAT      O63559   7.132   8.360   2.460
21106WAT     H163560   7.221   8.404   2.465
21106WAT     H263561   7.068   8.419   2.411
21107WAT      O63562   0.998   6.170   1.779
21107WAT     H163563   0.910   6.215   1.793
21107WAT     H263564   1.018   6.166   1.682
21108WAT      O63565   0.043   9.770   3.377
21108WAT     H163566   0.096   9.685   3.376
21108WAT     H263567  -0.005   9.779   3.289
21109WAT      O63568   7.514   5.683   4.073
21109WAT     H163569   7.459   5.602   4.054
21109WAT     H263570   7.592   5.658   4.131
21110WAT      O63571   7.676   4.537   0.823
21110WAT     H163572   7.726   4.540   0.737
21110WAT     H263573   7.713   4.604   0.886
21111WAT      O63574   0.707   4.293   6.531
21111WAT     H163575   0.726   4.272   6.627
21111WAT     H263576   0.790   4.326   6.486
21112WAT      O63577   1.065   6.473   2.845
21112WAT     H163578   1.154   6.514   2.865
21112WAT     H263579   1.076   6.399   2.779
21113WAT      O63580   2.401   5.031   8.771
21113WAT     H163581   2.437   5.022   8.678
21113WAT     H263582   2.301   5.036   8.767
21114WAT      O63583   4.054   7.967   2.206
21114WAT     H163584   4.117   8.025   2.155
21114WAT     H263585   4.051   7.996   2.302
21115WAT      O63586   7.588   2.825   4.265
21115WAT     H163587   7.660   2.831   4.196
21115WAT     H263588   7.529   2.746   4.244
21116WAT      O63589   7.899   0.679   8.078
21116WAT     H163590   7.828   0.616   8.047
21116WAT     H263591   7.858   0.755   8.127
21117WAT      O63592   7.844   6.542   1.218
21117WAT     H163593   7.910   6.517   1.289
21117WAT     H263594   7.824   6.462   1.161
21118WAT      O63595   7.474   8.268   3.898
21118WAT     H163596   7.545   8.228   3.840
21118WAT     H263597   7.516   8.319   3.973
21119WAT      O63598   7.499   2.862   0.489
21119WAT     H163599   7.512   2.793   0.418
21119WAT     H263600   7.476   2.950   0.446
21120WAT      O63601   0.939   4.570   8.085
21120WAT     H163602   1.016   4.541   8.029
21120WAT     H263603   0.973   4.612   8.169
21121WAT      O63604   9.348   8.398   4.771
21121WAT     H163605   9.404   8.391   4.689
21121WAT     H263606   9.353   8.491   4.807
21122WAT      O63607   3.985   8.095   5.504
21122WAT     H163608   3.910   8.158   5.482
21122WAT     H263609   3.947   8.004   5.521
21123WAT      O63610   6.591   2.645   1.974
21123WAT     H163611   6.524   2.629   2.048
21123WAT     H263612   6.656   2.714   2.002
21124WAT      O63613   4.882   5.473   6.391
21124WAT     H163614   4.876   5.456   6.293
21124WAT     H263615   4.796   5.512   6.424
21125WAT      O63616   7.779   0.114   2.633
21125WAT     H163617   7.802   0.065   2.717
21125WAT     H263618   7.697   0.073   2.593
21126WAT      O63619   3.082   3.950   0.939
21126WAT     H163620   3.073   4.030   0.998
21126WAT     H263621   3.032   3.965   0.854
21127WAT      O63622   9.641   7.603   2.830
21127WAT     H163623   9.547   7.571   2.834
21127WAT     H263624   9.642   7.703   2.825
21128WAT      O63625   8.163   2.129   1.659
21128WAT     H163626   8.240   2.075   1.692
21128WAT     H263627   8.089   2.125   1.726
21129WAT      O63628   6.701   7.520   2.021
21129WAT     H163629   6.742   7.531   1.930
21129WAT     H263630   6.635   7.594   2.037
21130WAT      O63631   7.136   6.668   0.754
21130WAT     H163632   7.043   6.673   0.720
21130WAT     H263633   7.144   6.593   0.820
21131WAT      O63634   4.287   6.069   1.533
21131WAT     H163635   4.265   6.029   1.622
21131WAT     H263636   4.281   6.168   1.539
21132WAT      O63637   1.790   4.443   3.602
21132WAT     H163638   1.818   4.430   3.507
21132WAT     H263639   1.869   4.471   3.657
21133WAT      O63640   6.102   4.552   0.087
21133WAT     H163641   6.176   4.614   0.059
21133WAT     H263642   6.141   4.465   0.116
21134WAT      O63643   1.142   3.768   2.192
21134WAT     H163644   1.232   3.811   2.189
21134WAT     H263645   1.074   3.831   2.153
21135WAT      O63646   3.978   6.412   0.393
21135WAT     H163647   3.949   6.334   0.337
21135WAT     H263648   3.934   6.407   0.482
21136WAT      O63649   3.412   5.104   3.440
21136WAT     H163650   3.353   5.109   3.521
21136WAT     H263651   3.376   5.165   3.369
21137WAT      O63652   9.533   0.862   3.495
21137WAT     H163653   9.551   0.789   3.561
21137WAT     H263654   9.532   0.950   3.542
21138WAT      O63655   1.797   9.119   4.934
21138WAT     H163656   1.817   9.194   4.998
21138WAT     H263657   1.795   9.154   4.841
21139WAT      O63658   8.970   4.918   7.262
21139WAT     H163659   9.015   4.874   7.184
21139WAT     H263660   8.906   4.987   7.228
21140WAT      O63661   2.690   4.516   8.077
21140WAT     H163662   2.720   4.561   8.161
21140WAT     H263663   2.690   4.417   8.090
21141WAT      O63664   6.777   9.792   3.028
21141WAT     H163665   6.786   9.843   3.114
21141WAT     H263666   6.835   9.711   3.031
21142WAT      O63667   1.385   6.559   0.736
21142WAT     H163668   1.462   6.505   0.770
21142WAT     H263669   1.403   6.656   0.752
21143WAT      O63670   1.062   8.595   5.127
21143WAT     H163671   1.066   8.534   5.048
21143WAT     H263672   1.006   8.553   5.199
21144WAT      O63673   8.169   6.801   8.332
21144WAT     H163674   8.249   6.855   8.307
21144WAT     H263675   8.192   6.739   8.407
21145WAT      O63676   9.147   7.509   2.463
21145WAT     H163677   9.109   7.597   2.492
21145WAT     H263678   9.163   7.452   2.544
21146WAT      O63679   1.343   3.272   2.933
21146WAT     H163680   1.330   3.204   3.005
21146WAT     H263681   1.439   3.273   2.905
21147WAT      O63682   3.294   0.851   8.020
21147WAT     H163683   3.238   0.852   8.102
21147WAT     H263684   3.388   0.876   8.043
21148WAT      O63685   4.546   7.224   1.268
21148WAT     H163686   4.601   7.287   1.323
21148WAT     H263687   4.537   7.137   1.316
21149WAT      O63688   8.204   7.982   6.637
21149WAT     H163689   8.147   7.956   6.559
21149WAT     H263690   8.221   7.902   6.695
21150WAT      O63691   8.442   4.399   8.596
21150WAT     H163692   8.486   4.451   8.669
21150WAT     H263693   8.438   4.302   8.621
21151WAT      O63694   9.605   6.853   9.596
21151WAT     H163695   9.562   6.869   9.507
21151WAT     H263696   9.549   6.790   9.649
21152WAT      O63697   6.531   6.984   6.035
21152WAT     H163698   6.529   7.030   6.124
21152WAT     H263699   6.507   7.050   5.964
21153WAT      O63700   5.966   7.914   9.776
21153WAT     H163701   5.888   7.916   9.713
21153WAT     H263702   5.987   7.819   9.800
21154WAT      O63703   6.473   4.174   0.630
21154WAT     H163704   6.436   4.137   0.715
21154WAT     H263705   6.398   4.211   0.574
21155WAT      O63706   7.143   1.499   0.225
21155WAT     H163707   7.118   1.406   0.253
21155WAT     H263708   7.117   1.514   0.130
21156WAT      O63709   8.854   7.144   0.387
21156WAT     H163710   8.903   7.130   0.473
21156WAT     H263711   8.910   7.110   0.311
21157WAT      O63712   8.748   7.843   5.943
21157WAT     H163713   8.660   7.820   5.986
21157WAT     H263714   8.747   7.938   5.913
21158WAT      O63715   5.513   4.058   0.520
21158WAT     H163716   5.416   4.084   0.516
21158WAT     H263717   5.554   4.071   0.430
21159WAT      O63718   3.836   5.963   2.176
21159WAT     H163719   3.770   5.889   2.189
21159WAT     H263720   3.798   6.048   2.214
21160WAT      O63721   9.239   5.925   5.174
21160WAT     H163722   9.190   6.007   5.205
21160WAT     H263723   9.183   5.844   5.192
21161WAT      O63724   3.586   4.819   7.301
21161WAT     H163725   3.618   4.913   7.305
21161WAT     H263726   3.517   4.804   7.372
21162WAT      O63727   0.537   3.917   9.714
21162WAT     H163728   0.483   3.995   9.747
21162WAT     H263729   0.490   3.832   9.735
21163WAT      O63730   4.731   2.613   7.392
21163WAT     H163731   4.695   2.523   7.416
21163WAT     H263732   4.754   2.614   7.294
21164WAT      O63733   1.945   6.384   6.881
21164WAT     H163734   1.893   6.332   6.813
21164WAT     H263735   2.020   6.433   6.835
21165WAT      O63736   8.446   1.182   3.304
21165WAT     H163737   8.385   1.244   3.256
21165WAT     H263738   8.409   1.089   3.300
21166WAT      O63739   1.713   7.970   6.244
21166WAT     H163740   1.747   8.062   6.224
21166WAT     H263741   1.705   7.959   6.344
21167WAT      O63742   7.264   1.422   2.096
21167WAT     H163743   7.356   1.444   2.065
21167WAT     H263744   7.207   1.398   2.017
21168WAT      O63745   7.294   4.141   5.101
21168WAT     H163746   7.299   4.237   5.074
21168WAT     H263747   7.221   4.096   5.050
21169WAT      O63748   6.724   1.091   3.370
21169WAT     H163749   6.710   0.992   3.377
21169WAT     H263750   6.635   1.137   3.365
21170WAT      O63751   6.354   2.032   4.066
21170WAT     H163752   6.357   2.085   4.150
21170WAT     H263753   6.346   2.093   3.987
21171WAT      O63754   6.205   0.509   0.792
21171WAT     H163755   6.275   0.566   0.748
21171WAT     H263756   6.144   0.470   0.723
21172WAT      O63757   7.201   3.230   6.509
21172WAT     H163758   7.185   3.155   6.573
21172WAT     H263759   7.119   3.287   6.502
21173WAT      O63760   1.769   5.353   6.503
21173WAT     H163761   1.687   5.304   6.530
21173WAT     H263762   1.849   5.311   6.547
21174WAT      O63763   9.795   2.295   7.954
21174WAT     H163764   9.804   2.292   7.854
21174WAT     H263765   9.854   2.367   7.991
21175WAT      O63766   3.927   5.120   5.823
21175WAT     H163767   3.956   5.143   5.916
21175WAT     H263768   3.966   5.185   5.759
21176WAT      O63769   7.038   3.340   1.827
21176WAT     H163770   7.048   3.415   1.891
21176WAT     H263771   7.105   3.268   1.849
21177WAT      O63772   4.772   5.334   0.452
21177WAT     H163773   4.673   5.343   0.452
21177WAT     H263774   4.810   5.366   0.538
21178WAT      O63775   1.111   2.135   5.061
21178WAT     H163776   1.063   2.058   5.020
21178WAT     H263777   1.137   2.112   5.155
21179WAT      O63778   8.546   7.749   2.399
21179WAT     H163779   8.636   7.762   2.357
21179WAT     H263780   8.490   7.830   2.385
21180WAT      O63781   4.496   7.360   1.634
21180WAT     H163782   4.429   7.308   1.580
21180WAT     H263783   4.576   7.379   1.577
21181WAT      O63784   1.621   3.206   4.299
21181WAT     H163785   1.538   3.235   4.347
21181WAT     H263786   1.599   3.134   4.235
21182WAT      O63787   5.690   2.424   1.103
21182WAT     H163788   5.755   2.469   1.042
21182WAT     H263789   5.740   2.361   1.163
21183WAT      O63790   3.506   5.166   4.252
21183WAT     H163791   3.496   5.265   4.237
21183WAT     H263792   3.490   5.146   4.349
21184WAT      O63793   2.688   2.436   1.785
21184WAT     H163794   2.754   2.439   1.860
21184WAT     H263795   2.624   2.360   1.799
21185WAT      O63796   9.478   7.440   4.611
21185WAT     H163797   9.548   7.467   4.678
21185WAT     H263798   9.489   7.494   4.528
21186WAT      O63799   0.158   2.369   6.435
21186WAT     H163800   0.179   2.402   6.527
21186WAT     H263801   0.237   2.318   6.399
21187WAT      O63802   9.078   4.763   0.580
21187WAT     H163803   9.010   4.735   0.511
21187WAT     H263804   9.045   4.737   0.671
21188WAT      O63805   3.163   3.834   3.647
21188WAT     H163806   3.162   3.888   3.563
21188WAT     H263807   3.190   3.740   3.626
21189WAT      O63808   7.483   5.867   9.735
21189WAT     H163809   7.563   5.918   9.768
21189WAT     H263810   7.412   5.867   9.806
21190WAT      O63811   3.766   3.801   2.900
21190WAT     H163812   3.781   3.816   2.998
21190WAT     H263813   3.845   3.833   2.848
21191WAT      O63814   0.149   4.496   3.571
21191WAT     H163815   0.128   4.557   3.648
21191WAT     H263816   0.080   4.424   3.566
21192WAT      O63817   5.375   1.548   9.380
21192WAT     H163818   5.343   1.576   9.470
21192WAT     H263819   5.463   1.591   9.361
21193WAT      O63820   1.955   4.412   9.272
21193WAT     H163821   1.979   4.479   9.342
21193WAT     H263822   1.888   4.452   9.209
21194WAT      O63823   3.092   9.198   8.275
21194WAT     H163824   3.153   9.151   8.211
21194WAT     H263825   3.138   9.277   8.313
21195WAT      O63826   2.387   5.422   7.478
21195WAT     H163827   2.348   5.330   7.472
21195WAT     H263828   2.361   5.463   7.566
21196WAT      O63829   3.683   2.428   2.073
21196WAT     H163830   3.694   2.492   2.149
21196WAT     H263831   3.587   2.401   2.067
21197WAT      O63832   5.978   6.042   7.546
21197WAT     H163833   6.039   5.970   7.578
21197WAT     H263834   5.933   6.012   7.462
21198WAT      O63835   6.058   8.226   9.258
21198WAT     H163836   6.142   8.191   9.300
21198WAT     H263837   6.081   8.270   9.171
21199WAT      O63838   8.679   1.788   5.564
21199WAT     H163839   8.772   1.808   5.531
21199WAT     H263840   8.668   1.689   5.573
21200WAT      O63841   0.833   7.368   2.626
21200WAT     H163842   0.854   7.291   2.687
21200WAT     H263843   0.918   7.406   2.590
21201WAT      O63844   9.673   8.979   3.269
21201WAT     H163845   9.702   8.897   3.221
21201WAT     H263846   9.743   9.007   3.334
21202WAT      O63847   0.499   3.890   2.633
21202WAT     H163848   0.552   3.813   2.600
21202WAT     H263849   0.539   3.926   2.717
21203WAT      O63850   8.518   6.051   4.215
21203WAT     H163851   8.557   5.964   4.187
21203WAT     H263852   8.552   6.124   4.156
21204WAT      O63853   5.004   6.713   4.233
21204WAT     H163854   5.081   6.651   4.245
21204WAT     H263855   4.996   6.773   4.313
21205WAT      O63856   0.530   1.448   0.887
21205WAT     H163857   0.486   1.475   0.802
21205WAT     H263858   0.573   1.358   0.876
21206WAT      O63859   0.147   4.130   9.177
21206WAT     H163860   0.187   4.119   9.268
21206WAT     H263861   0.058   4.175   9.186
21207WAT      O63862   1.436   2.546   8.335
21207WAT     H163863   1.343   2.564   8.367
21207WAT     H263864   1.463   2.453   8.359
21208WAT      O63865   4.782   9.510   0.598
21208WAT     H163866   4.868   9.550   0.565
21208WAT     H263867   4.706   9.543   0.542
21209WAT      O63868   9.188   8.137   6.466
21209WAT     H163869   9.170   8.235   6.464
21209WAT     H263870   9.226   8.112   6.555
21210WAT      O63871   1.530   3.972   9.697
21210WAT     H163872   1.431   3.957   9.706
21210WAT     H263873   1.546   4.064   9.661
21211WAT      O63874   6.301   3.783   3.601
21211WAT     H163875   6.311   3.780   3.700
21211WAT     H263876   6.206   3.761   3.576
21212WAT      O63877   6.855   4.274   9.370
21212WAT     H163878   6.900   4.353   9.330
21212WAT     H263879   6.864   4.277   9.470
21213WAT      O63880   1.683   0.693   8.827
21213WAT     H163881   1.642   0.782   8.845
21213WAT     H263882   1.637   0.651   8.749
21214WAT      O63883   9.000   0.633   7.240
21214WAT     H163884   9.099   0.643   7.245
21214WAT     H263885   8.972   0.622   7.145
21215WAT      O63886   8.901   4.954   9.039
21215WAT     H163887   8.840   4.957   9.119
21215WAT     H263888   8.995   4.973   9.068
21216WAT      O63889   1.511   1.439   2.443
21216WAT     H163890   1.501   1.538   2.440
21216WAT     H263891   1.428   1.396   2.406
21217WAT      O63892   7.277   3.068   9.299
21217WAT     H163893   7.325   3.154   9.286
21217WAT     H263894   7.229   3.043   9.215
21218WAT      O63895   1.773   5.849   4.875
21218WAT     H163896   1.774   5.772   4.812
21218WAT     H263897   1.866   5.866   4.908
21219WAT      O63898   8.853   2.338   7.457
21219WAT     H163899   8.783   2.315   7.389
21219WAT     H263900   8.936   2.367   7.410
21220WAT      O63901   0.590   5.135   8.391
21220WAT     H163902   0.645   5.054   8.414
21220WAT     H263903   0.569   5.135   8.294
21221WAT      O63904   3.402   1.704   9.401
21221WAT     H163905   3.420   1.789   9.351
21221WAT     H263906   3.467   1.634   9.372
21222WAT      O63907   7.438   6.305   8.478
21222WAT     H163908   7.494   6.300   8.560
21222WAT     H263909   7.496   6.328   8.399
21223WAT      O63910   8.649   9.565   4.952
21223WAT     H163911   8.681   9.655   4.982
21223WAT     H263912   8.722   9.498   4.961
21224WAT      O63913   2.909   1.666   8.413
21224WAT     H163914   2.810   1.659   8.423
21224WAT     H263915   2.945   1.731   8.481
21225WAT      O63916   0.578   9.838   3.807
21225WAT     H163917   0.526   9.915   3.768
21225WAT     H263918   0.631   9.794   3.735
21226WAT      O63919   6.994   0.961   2.115
21226WAT     H163920   6.993   0.942   2.214
21226WAT     H263921   6.947   0.887   2.067
21227WAT      O63922   2.117   8.493   1.879
21227WAT     H163923   2.164   8.406   1.885
21227WAT     H263924   2.121   8.527   1.785
21228WAT      O63925   1.463   4.730   8.119
21228WAT     H163926   1.495   4.668   8.047
21228WAT     H263927   1.424   4.677   8.194
21229WAT      O63928   5.772   1.363   4.567
21229WAT     H163929   5.678   1.364   4.599
21229WAT     H263930   5.785   1.435   4.498
21230WAT      O63931   6.786   9.515   5.908
21230WAT     H163932   6.818   9.607   5.888
21230WAT     H263933   6.707   9.493   5.851
21231WAT      O63934   6.168   5.584   6.974
21231WAT     H163935   6.248   5.537   7.010
21231WAT     H263936   6.193   5.678   6.950
21232WAT      O63937   3.757   6.870   3.130
21232WAT     H163938   3.714   6.791   3.173
21232WAT     H263939   3.720   6.882   3.038
21233WAT      O63940   5.961   2.016   0.576
21233WAT     H163941   6.023   1.980   0.506
21233WAT     H263942   5.869   2.022   0.539
21234WAT      O63943   7.024   8.074   4.079
21234WAT     H163944   7.025   8.101   3.982
21234WAT     H263945   6.930   8.081   4.113
21235WAT      O63946   2.545   5.795   8.557
21235WAT     H163947   2.488   5.756   8.485
21235WAT     H263948   2.636   5.816   8.521
21236WAT      O63949   0.774   6.470   2.011
21236WAT     H163950   0.734   6.561   2.027
21236WAT     H263951   0.865   6.467   2.053
21237WAT      O63952   7.467   9.524   3.863
21237WAT     H163953   7.563   9.541   3.839
21237WAT     H263954   7.450   9.557   3.956
21238WAT      O63955   6.007   1.497   5.581
21238WAT     H163956   5.957   1.475   5.665
21238WAT     H263957   6.100   1.461   5.588
21239WAT      O63958   0.351   1.889   5.603
21239WAT     H163959   0.306   1.946   5.533
21239WAT     H263960   0.288   1.817   5.632
21240WAT      O63961   3.592   6.855   9.455
21240WAT     H163962   3.552   6.763   9.450
21240WAT     H263963   3.602   6.882   9.551
21241WAT      O63964   4.046   0.723   5.084
21241WAT     H163965   3.980   0.797   5.070
21241WAT     H263966   4.108   0.747   5.159
21242WAT      O63967   2.607   2.284   5.027
21242WAT     H163968   2.567   2.371   5.000
21242WAT     H263969   2.685   2.300   5.087
21243WAT      O63970   2.450   8.395   9.571
21243WAT     H163971   2.549   8.400   9.579
21243WAT     H263972   2.424   8.399   9.474
21244WAT      O63973   0.693   4.536   5.096
21244WAT     H163974   0.665   4.515   5.002
21244WAT     H263975   0.614   4.532   5.156
21245WAT      O63976   8.855   1.774   5.916
21245WAT     H163977   8.814   1.697   5.867
21245WAT     H263978   8.871   1.850   5.853
21246WAT      O63979   4.899   6.108   0.313
21246WAT     H163980   4.916   6.103   0.411
21246WAT     H263981   4.983   6.084   0.264
21247WAT      O63982   4.845   0.719   0.225
21247WAT     H163983   4.936   0.722   0.183
21247WAT     H263984   4.837   0.790   0.295
21248WAT      O63985   1.841   0.530   1.801
21248WAT     H163986   1.895   0.571   1.728
21248WAT     H263987   1.870   0.566   1.889
21249WAT      O63988   3.457   9.787   1.255
21249WAT     H163989   3.470   9.762   1.159
21249WAT     H263990   3.365   9.824   1.268
21250WAT      O63991   6.672   4.675   6.391
21250WAT     H163992   6.607   4.639   6.458
21250WAT     H263993   6.729   4.745   6.434
21251WAT      O63994   2.729   0.798   7.453
21251WAT     H163995   2.824   0.777   7.479
21251WAT     H263996   2.726   0.826   7.357
21252WAT      O63997   9.694   9.640   7.663
21252WAT     H163998   9.595   9.654   7.651
21252WAT     H263999   9.733   9.718   7.712
21253WAT      O64000   3.931   8.718   1.315
21253WAT     H164001   3.926   8.817   1.304
21253WAT     H264002   4.027   8.691   1.320
21254WAT      O64003   3.208   6.966   7.037
21254WAT     H164004   3.113   6.990   7.057
21254WAT     H264005   3.265   7.048   7.041
21255WAT      O64006   7.523   0.212   0.908
21255WAT     H164007   7.481   0.299   0.933
21255WAT     H264008   7.618   0.211   0.940
21256WAT      O64009   4.331   7.280   1.068
21256WAT     H164010   4.370   7.256   1.156
21256WAT     H264011   4.295   7.374   1.071
21257WAT      O64012   2.742   4.702   3.022
21257WAT     H164013   2.829   4.750   3.034
21257WAT     H264014   2.748   4.612   3.065
21258WAT      O64015   5.174   1.380   9.259
21258WAT     H164016   5.205   1.372   9.164
21258WAT     H264017   5.247   1.420   9.314
21259WAT      O64018   5.676   6.238   8.783
21259WAT     H164019   5.716   6.299   8.852
21259WAT     H264020   5.709   6.145   8.798
21260WAT      O64021   8.473   4.641   6.055
21260WAT     H164022   8.418   4.718   6.086
21260WAT     H264023   8.441   4.557   6.099
21261WAT      O64024   2.984   3.109   5.139
21261WAT     H164025   2.967   3.181   5.072
21261WAT     H264026   3.082   3.090   5.143
21262WAT      O64027   3.609   4.117   3.392
21262WAT     H164028   3.627   4.215   3.395
21262WAT     H264029   3.606   4.081   3.485
21263WAT      O64030   6.322   6.650   5.524
21263WAT     H164031   6.239   6.702   5.540
21263WAT     H264032   6.310   6.592   5.444
21264WAT      O64033   1.011   8.241   2.313
21264WAT     H164034   1.109   8.219   2.316
21264WAT     H264035   0.992   8.315   2.378
21265WAT      O64036   2.402   9.613   7.397
21265WAT     H164037   2.388   9.684   7.467
21265WAT     H264038   2.321   9.555   7.392
21266WAT      O64039   6.843   6.078   4.135
21266WAT     H164040   6.849   6.073   4.235
21266WAT     H264041   6.926   6.118   4.098
21267WAT      O64042   0.508   1.920   5.200
21267WAT     H164043   0.554   1.880   5.120
21267WAT     H264044   0.487   1.849   5.266
21268WAT      O64045   1.705   0.924   7.648
21268WAT     H164046   1.697   0.943   7.746
21268WAT     H264047   1.666   0.834   7.629
21269WAT      O64048   2.112   0.378   4.648
21269WAT     H164049   2.036   0.412   4.704
21269WAT     H264050   2.194   0.432   4.667
21270WAT      O64051   2.924   5.315   9.472
21270WAT     H164052   2.949   5.344   9.564
21270WAT     H264053   3.002   5.268   9.430
21271WAT      O64054   2.053   9.130   0.382
21271WAT     H164055   2.118   9.134   0.457
21271WAT     H264056   2.074   9.201   0.315
21272WAT      O64057   5.375   3.597   6.525
21272WAT     H164058   5.293   3.568   6.477
21272WAT     H264059   5.454   3.592   6.464
21273WAT      O64060   6.626   2.727   1.318
21273WAT     H164061   6.696   2.793   1.347
21273WAT     H264062   6.566   2.706   1.395
21274WAT      O64063   1.117   8.711   1.715
21274WAT     H164064   1.054   8.647   1.758
21274WAT     H264065   1.071   8.799   1.700
21275WAT      O64066   8.209   6.617   4.024
21275WAT     H164067   8.150   6.631   3.944
21275WAT     H264068   8.239   6.521   4.026
21276WAT      O64069   6.355   2.339   9.162
21276WAT     H164070   6.389   2.246   9.170
21276WAT     H264071   6.423   2.395   9.115
21277WAT      O64072   3.337   3.763   7.834
21277WAT     H164073   3.379   3.673   7.820
21277WAT     H264074   3.384   3.831   7.777
21278WAT      O64075   0.215   4.939   9.232
21278WAT     H164076   0.279   4.960   9.158
21278WAT     H264077   0.153   4.866   9.202
21279WAT      O64078   4.520   4.941   2.613
21279WAT     H164079   4.601   4.999   2.625
21279WAT     H264080   4.437   4.994   2.631
21280WAT      O64081   4.705   6.256   3.460
21280WAT     H164082   4.797   6.229   3.489
21280WAT     H264083   4.655   6.292   3.539
21281WAT      O64084   7.291   2.334   5.946
21281WAT     H164085   7.318   2.420   5.991
21281WAT     H264086   7.284   2.349   5.847
21282WAT      O64087   4.317   0.818   6.211
21282WAT     H164088   4.364   0.884   6.270
21282WAT     H264089   4.364   0.813   6.123
21283WAT      O64090   0.101   1.782   9.527
21283WAT     H164091   0.085   1.791   9.625
21283WAT     H264092   0.073   1.866   9.481
21284WAT      O64093   3.990   7.371   2.330
21284WAT     H164094   3.903   7.368   2.280
21284WAT     H264095   4.011   7.465   2.356
21285WAT      O64096   9.673   6.685   5.435
21285WAT     H164097   9.770   6.710   5.435
21285WAT     H264098   9.665   6.587   5.453
21286WAT      O64099   3.798   0.631   9.329
21286WAT     H164100   3.790   0.693   9.251
21286WAT     H264101   3.739   0.663   9.403
21287WAT      O64102   3.782   3.849   0.189
21287WAT     H164103   3.797   3.808   0.099
21287WAT     H264104   3.864   3.898   0.218
21288WAT      O64105   4.875   1.126   7.506
21288WAT     H164106   4.937   1.165   7.575
21288WAT     H264107   4.780   1.147   7.531
21289WAT      O64108   6.313   6.379   7.914
21289WAT     H164109   6.243   6.313   7.888
21289WAT     H264110   6.402   6.335   7.917
21290WAT      O64111   3.586   9.759   9.470
21290WAT     H164112   3.504   9.702   9.465
21290WAT     H264113   3.611   9.772   9.566
21291WAT      O64114   9.623   6.075   0.914
21291WAT     H164115   9.596   6.023   0.834
21291WAT     H264116   9.553   6.144   0.935
21292WAT      O64117   0.869   1.363   8.225
21292WAT     H164118   0.793   1.298   8.222
21292WAT     H264119   0.905   1.376   8.133
21293WAT      O64120   7.920   3.426   1.154
21293WAT     H164121   7.919   3.377   1.242
21293WAT     H264122   8.011   3.462   1.137
21294WAT      O64123   9.761   2.168   1.140
21294WAT     H164124   9.692   2.232   1.172
21294WAT     H264125   9.849   2.187   1.184
21295WAT      O64126   7.549   8.523   3.712
21295WAT     H164127   7.632   8.499   3.763
21295WAT     H264128   7.531   8.621   3.723
21296WAT      O64129   8.155   5.536   3.451
21296WAT     H164130   8.074   5.587   3.482
21296WAT     H264131   8.151   5.443   3.488
21297WAT      O64132   8.100   4.124   0.259
21297WAT     H164133   8.034   4.050   0.272
21297WAT     H264134   8.192   4.090   0.273
21298WAT      O64135   7.788   9.672   1.894
21298WAT     H164136   7.863   9.705   1.951
21298WAT     H264137   7.767   9.577   1.918
21299WAT      O64138   3.795   3.730   5.481
21299WAT     H164139   3.728   3.684   5.539
21299WAT     H264140   3.844   3.799   5.535
21300WAT      O64141   6.476   9.678   5.054
21300WAT     H164142   6.513   9.715   5.139
21300WAT     H264143   6.523   9.720   4.976
21301WAT      O64144   8.891   7.493   5.230
21301WAT     H164145   8.845   7.538   5.154
21301WAT     H264146   8.862   7.535   5.316
21302WAT      O64147   0.521   5.340   6.562
21302WAT     H164148   0.426   5.365   6.540
21302WAT     H264149   0.566   5.418   6.605
21303WAT      O64150   1.209   5.303   5.664
21303WAT     H164151   1.294   5.260   5.695
21303WAT     H264152   1.153   5.326   5.744
21304WAT      O64153   9.258   6.233   1.170
21304WAT     H164154   9.271   6.206   1.266
21304WAT     H264155   9.219   6.324   1.166
21305WAT      O64156   0.893   8.227   7.698
21305WAT     H164157   0.939   8.177   7.625
21305WAT     H264158   0.820   8.282   7.660
21306WAT      O64159   1.589   6.640   4.671
21306WAT     H164160   1.679   6.601   4.651
21306WAT     H264161   1.547   6.672   4.586
21307WAT      O64162   7.036   0.098   4.345
21307WAT     H164163   7.059   0.013   4.393
21307WAT     H264164   7.120   0.149   4.327
21308WAT      O64165   2.697   5.508   4.584
21308WAT     H164166   2.723   5.482   4.677
21308WAT     H264167   2.636   5.588   4.587
21309WAT      O64168   0.668   7.553   6.896
21309WAT     H164169   0.713   7.538   6.808
21309WAT     H264170   0.589   7.491   6.903
21310WAT      O64171   4.877   1.469   7.852
21310WAT     H164172   4.817   1.532   7.802
21310WAT     H264173   4.822   1.415   7.916
21311WAT      O64174   9.155   2.281   3.333
21311WAT     H164175   9.168   2.200   3.276
21311WAT     H264176   9.159   2.363   3.276
21312WAT      O64177   7.365   8.379   4.257
21312WAT     H164178   7.288   8.439   4.238
21312WAT     H264179   7.437   8.394   4.188
21313WAT      O64180   5.305   1.004   4.403
21313WAT     H164181   5.265   0.968   4.319
21313WAT     H264182   5.396   1.040   4.384
21314WAT      O64183   2.898   1.152   5.513
21314WAT     H164184   2.966   1.223   5.497
21314WAT     H264185   2.879   1.146   5.611
21315WAT      O64186   3.398   7.352   9.822
21315WAT     H164187   3.474   7.321   9.878
21315WAT     H264188   3.332   7.402   9.878
21316WAT      O64189   3.197   7.516   2.507
21316WAT     H164190   3.152   7.447   2.451
21316WAT     H264191   3.217   7.478   2.597
21317WAT      O64192   0.903   1.286   1.132
21317WAT     H164193   0.997   1.290   1.167
21317WAT     H264194   0.872   1.191   1.130
21318WAT      O64195   8.102   3.415   7.880
21318WAT     H164196   8.197   3.448   7.881
21318WAT     H264197   8.046   3.474   7.938
21319WAT      O64198   9.538   2.559   6.989
21319WAT     H164199   9.442   2.586   6.976
21319WAT     H264200   9.579   2.618   7.059
21320WAT      O64201   0.510   5.562   8.923
21320WAT     H164202   0.573   5.489   8.898
21320WAT     H264203   0.518   5.637   8.858
21321WAT      O64204   8.126   5.357   1.416
21321WAT     H164205   8.114   5.413   1.499
21321WAT     H264206   8.219   5.320   1.415
21322WAT      O64207   9.420   8.493   5.919
21322WAT     H164208   9.329   8.467   5.953
21322WAT     H264209   9.483   8.502   5.996
21323WAT      O64210   8.771   7.172   3.738
21323WAT     H164211   8.849   7.231   3.721
21323WAT     H264212   8.793   7.109   3.812
21324WAT      O64213   7.763   6.642   8.550
21324WAT     H164214   7.799   6.668   8.639
21324WAT     H264215   7.663   6.651   8.549
21325WAT      O64216   9.088   2.103   8.851
21325WAT     H164217   9.160   2.130   8.915
21325WAT     H264218   9.001   2.097   8.900
21326WAT      O64219   5.143   7.941   5.928
21326WAT     H164220   5.064   7.885   5.951
21326WAT     H264221   5.216   7.924   5.994
21327WAT      O64222   0.440   8.995   7.053
21327WAT     H164223   0.361   9.014   6.995
21327WAT     H264224   0.418   9.017   7.148
21328WAT      O64225   0.237   5.559   5.369
21328WAT     H164226   0.229   5.496   5.292
21328WAT     H264227   0.237   5.653   5.335
21329WAT      O64228   7.472   9.640   4.149
21329WAT     H164229   7.516   9.714   4.098
21329WAT     H264230   7.434   9.675   4.235
21330WAT      O64231   3.580   6.207   6.650
21330WAT     H164232   3.597   6.155   6.733
21330WAT     H264233   3.547   6.299   6.673
21331WAT      O64234   9.329   2.225   4.283
21331WAT     H164235   9.285   2.148   4.329
21331WAT     H264236   9.271   2.259   4.209
21332WAT      O64237   5.873   6.878   3.530
21332WAT     H164238   5.905   6.971   3.549
21332WAT     H264239   5.846   6.834   3.615
21333WAT      O64240   8.486   6.205   8.555
21333WAT     H164241   8.433   6.120   8.558
21333WAT     H264242   8.574   6.188   8.509
21334WAT      O64243   8.767   4.997   4.475
21334WAT     H164244   8.787   4.987   4.572
21334WAT     H264245   8.673   4.967   4.457
21335WAT      O64246   1.075   9.713   0.126
21335WAT     H164247   1.163   9.755   0.107
21335WAT     H264248   1.085   9.647   0.200
21336WAT      O64249   2.867   0.465   3.992
21336WAT     H164250   2.847   0.542   4.052
21336WAT     H264251   2.804   0.390   4.011
21337WAT      O64252   9.113   1.426   6.463
21337WAT     H164253   9.124   1.342   6.409
21337WAT     H264254   9.100   1.503   6.401
21338WAT      O64255   3.982   3.191   3.723
21338WAT     H164256   4.003   3.139   3.806
21338WAT     H264257   3.883   3.186   3.706
21339WAT      O64258   5.099   0.177   2.086
21339WAT     H164259   5.063   0.152   2.176
21339WAT     H264260   5.043   0.249   2.047
21340WAT      O64261   7.594   2.663   8.575
21340WAT     H164262   7.532   2.638   8.500
21340WAT     H264263   7.544   2.656   8.662
21341WAT      O64264   4.957   1.086   1.710
21341WAT     H164265   4.857   1.083   1.702
21341WAT     H264266   4.984   1.163   1.768
21342WAT      O64267   1.011   5.309   6.775
21342WAT     H164268   1.099   5.289   6.817
21342WAT     H264269   1.012   5.403   6.739
21343WAT      O64270   8.536   1.165   8.528
21343WAT     H164271   8.616   1.152   8.469
21343WAT     H264272   8.566   1.190   8.620
21344WAT      O64273   2.246   9.771   1.922
21344WAT     H164274   2.321   9.820   1.879
21344WAT     H264275   2.251   9.674   1.897
21345WAT      O64276   8.307   3.953   9.822
21345WAT     H164277   8.213   3.926   9.844
21345WAT     H264278   8.361   3.953   9.906
21346WAT      O64279   3.152   1.676   8.094
21346WAT     H164280   3.200   1.696   8.009
21346WAT     H264281   3.190   1.594   8.136
21347WAT      O64282   0.069   9.228   1.212
21347WAT     H164283   0.028   9.294   1.275
21347WAT     H264284   0.092   9.274   1.127
21348WAT      O64285   3.346   8.576   8.909
21348WAT     H164286   3.278   8.526   8.856
21348WAT     H264287   3.344   8.673   8.883
21349WAT      O64288   2.085   4.527   4.439
21349WAT     H164289   2.158   4.568   4.384
21349WAT     H264290   2.005   4.587   4.438
21350WAT      O64291   0.004   8.320   2.397
21350WAT     H164292   0.055   8.279   2.473
21350WAT     H264293   0.059   8.393   2.356
21351WAT      O64294   9.565   8.343   1.238
21351WAT     H164295   9.525   8.413   1.297
21351WAT     H264296   9.655   8.318   1.273
21352WAT      O64297   4.415   1.439   1.551
21352WAT     H164298   4.354   1.492   1.492
21352WAT     H264299   4.508   1.440   1.512
21353WAT      O64300   8.916   6.544   5.424
21353WAT     H164301   8.914   6.611   5.350
21353WAT     H264302   9.009   6.536   5.459
21354WAT      O64303   4.985   7.367   5.468
21354WAT     H164304   5.055   7.438   5.475
21354WAT     H264305   5.006   7.305   5.393
21355WAT      O64306   6.470   0.311   7.131
21355WAT     H164307   6.562   0.272   7.121
21355WAT     H264308   6.418   0.296   7.047
21356WAT      O64309   0.563   5.218   5.159
21356WAT     H164310   0.601   5.164   5.235
21356WAT     H264311   0.482   5.267   5.191
21357WAT      O64312   8.783   9.212   0.449
21357WAT     H164313   8.853   9.277   0.477
21357WAT     H264314   8.761   9.151   0.526
21358WAT      O64315   9.276   3.668   3.190
21358WAT     H164316   9.247   3.599   3.125
21358WAT     H264317   9.318   3.624   3.270
21359WAT      O64318   0.478   3.777   0.452
21359WAT     H164319   0.504   3.694   0.502
21359WAT     H264320   0.529   3.782   0.366
21360WAT      O64321   2.651   4.289   6.175
21360WAT     H164322   2.623   4.383   6.156
21360WAT     H264323   2.616   4.262   6.265
21361WAT      O64324   2.625   1.671   2.482
21361WAT     H164325   2.620   1.654   2.581
21361WAT     H264326   2.719   1.660   2.451
21362WAT      O64327   2.161   1.356   6.690
21362WAT     H164328   2.082   1.311   6.730
21362WAT     H264329   2.195   1.304   6.612
21363WAT      O64330   6.922   2.047   0.305
21363WAT     H164331   7.007   2.012   0.266
21363WAT     H264332   6.850   2.042   0.237
21364WAT      O64333   5.161   9.035   5.479
21364WAT     H164334   5.115   8.989   5.403
21364WAT     H264335   5.250   9.070   5.448
21365WAT      O64336   2.289   4.956   3.105
21365WAT     H164337   2.374   4.909   3.082
21365WAT     H264338   2.271   5.027   3.037
21366WAT      O64339   2.404   9.262   5.741
21366WAT     H164340   2.352   9.185   5.777
21366WAT     H264341   2.490   9.270   5.791
21367WAT      O64342   1.920   3.566   5.625
21367WAT     H164343   1.821   3.549   5.622
21367WAT     H264344   1.942   3.626   5.702
21368WAT      O64345   4.373   2.439   4.385
21368WAT     H164346   4.357   2.509   4.455
21368WAT     H264347   4.445   2.471   4.323
21369WAT      O64348   6.305   4.699   4.998
21369WAT     H164349   6.390   4.734   5.037
21369WAT     H264350   6.311   4.701   4.898
21370WAT      O64351   3.731   9.009   4.077
21370WAT     H164352   3.778   8.922   4.065
21370WAT     H264353   3.747   9.044   4.169
21371WAT      O64354   0.088   0.925   2.957
21371WAT     H164355   0.105   0.829   2.936
21371WAT     H264356   0.007   0.932   3.015
21372WAT      O64357   7.907   3.838   8.689
21372WAT     H164358   7.957   3.848   8.602
21372WAT     H264359   7.809   3.839   8.671
21373WAT      O64360   9.827   9.073   2.540
21373WAT     H164361   9.788   9.151   2.491
21373WAT     H264362   9.887   9.106   2.613
21374WAT      O64363   9.574   3.641   0.586
21374WAT     H164364   9.642   3.646   0.513
21374WAT     H264365   9.485   3.615   0.547
21375WAT      O64366   5.746   9.306   9.173
21375WAT     H164367   5.680   9.244   9.215
21375WAT     H264368   5.748   9.291   9.074
21376WAT      O64369   5.161   9.543   6.384
21376WAT     H164370   5.223   9.474   6.421
21376WAT     H264371   5.094   9.568   6.455
21377WAT      O64372   5.655   0.140   5.161
21377WAT     H164373   5.685   0.065   5.103
21377WAT     H264374   5.658   0.110   5.257
21378WAT      O64375   8.386   0.382   7.864
21378WAT     H164376   8.339   0.396   7.777
21378WAT     H264377   8.335   0.427   7.937
21379WAT      O64378   7.024   1.496   6.123
21379WAT     H164379   7.056   1.542   6.040
21379WAT     H264380   7.102   1.461   6.175
21380WAT      O64381   0.568   6.010   9.674
21380WAT     H164382   0.626   5.966   9.742
21380WAT     H264383   0.603   6.102   9.654
21381WAT      O64384   1.275   0.567   1.280
21381WAT     H164385   1.357   0.514   1.304
21381WAT     H264386   1.245   0.541   1.188
21382WAT      O64387   5.650   7.716   8.144
21382WAT     H164388   5.742   7.753   8.133
21382WAT     H264389   5.603   7.764   8.218
21383WAT      O64390   0.595   8.688   3.013
21383WAT     H164391   0.618   8.607   2.960
21383WAT     H264392   0.587   8.663   3.110
21384WAT      O64393   3.720   8.569   6.450
21384WAT     H164394   3.635   8.618   6.429
21384WAT     H264395   3.770   8.617   6.522
21385WAT      O64396   4.238   6.436   1.867
21385WAT     H164397   4.187   6.429   1.781
21385WAT     H264398   4.252   6.345   1.906
21386WAT      O64399   1.046   5.279   2.284
21386WAT     H164400   0.984   5.276   2.206
21386WAT     H264401   1.052   5.189   2.327
21387WAT      O64402   2.380   0.957   3.090
21387WAT     H164403   2.423   1.018   3.157
21387WAT     H264404   2.296   0.999   3.056
21388WAT      O64405   8.824   0.042   7.833
21388WAT     H164406   8.798   0.139   7.838
21388WAT     H264407   8.792   0.003   7.747
21389WAT      O64408   4.784   4.043   3.112
21389WAT     H164409   4.820   4.082   3.028
21389WAT     H264410   4.858   3.999   3.163
21390WAT      O64411   7.146   4.399   3.574
21390WAT     H164412   7.179   4.307   3.558
21390WAT     H264413   7.064   4.396   3.631
21391WAT      O64414   5.362   8.018   0.612
21391WAT     H164415   5.415   8.090   0.657
21391WAT     H264416   5.366   7.935   0.668
21392WAT      O64417   2.665   8.969   6.338
21392WAT     H164418   2.650   9.025   6.257
21392WAT     H264419   2.582   8.969   6.394
21393WAT      O64420   2.562   4.924   3.306
21393WAT     H164421   2.526   4.848   3.361
21393WAT     H264422   2.532   4.914   3.211
21394WAT      O64423   8.692   1.200   7.371
21394WAT     H164424   8.690   1.152   7.458
21394WAT     H264425   8.712   1.135   7.297
21395WAT      O64426   5.337   0.715   2.489
21395WAT     H164427   5.300   0.790   2.544
21395WAT     H264428   5.414   0.674   2.538
21396WAT      O64429   6.467   8.968   8.918
21396WAT     H164430   6.433   9.025   8.993
21396WAT     H264431   6.449   8.872   8.938
21397WAT      O64432   9.521   7.767   6.323
21397WAT     H164433   9.584   7.694   6.296
21397WAT     H264434   9.428   7.731   6.326
21398WAT      O64435   6.622   4.329   6.186
21398WAT     H164436   6.687   4.406   6.183
21398WAT     H264437   6.541   4.353   6.132
21399WAT      O64438   5.598   6.544   1.490
21399WAT     H164439   5.528   6.595   1.540
21399WAT     H264440   5.561   6.455   1.462
21400WAT      O64441   1.324   8.861   6.786
21400WAT     H164442   1.421   8.854   6.764
21400WAT     H264443   1.270   8.831   6.707
21401WAT      O64444   9.450   9.748   0.821
21401WAT     H164445   9.453   9.761   0.722
21401WAT     H264446   9.361   9.712   0.848
21402WAT      O64447   5.424   6.819   4.815
21402WAT     H164448   5.460   6.815   4.721
21402WAT     H264449   5.453   6.738   4.865
21403WAT      O64450   4.077   1.962   9.403
21403WAT     H164451   4.131   2.035   9.362
21403WAT     H264452   4.041   1.903   9.331
21404WAT      O64453   3.389   4.024   0.989
21404WAT     H164454   3.305   3.974   0.970
21404WAT     H264455   3.437   4.045   0.904
21405WAT      O64456   8.624   5.127   1.163
21405WAT     H164457   8.697   5.059   1.159
21405WAT     H264458   8.638   5.186   1.242
21406WAT      O64459   5.102   9.622   5.230
21406WAT     H164460   5.061   9.614   5.139
21406WAT     H264461   5.199   9.602   5.225
21407WAT      O64462   6.164   3.598   9.498
21407WAT     H164463   6.069   3.583   9.526
21407WAT     H264464   6.202   3.676   9.547
21408WAT      O64465   0.483   5.042   3.740
21408WAT     H164466   0.464   5.089   3.825
21408WAT     H264467   0.433   4.955   3.737
21409WAT      O64468   1.967   8.009   0.128
21409WAT     H164469   1.999   8.012   0.222
21409WAT     H264470   1.960   7.913   0.098
21410WAT      O64471   3.574   9.527   0.843
21410WAT     H164472   3.573   9.489   0.751
21410WAT     H264473   3.633   9.472   0.902
21411WAT      O64474   7.837   4.910   6.484
21411WAT     H164475   7.869   4.816   6.474
21411WAT     H264476   7.754   4.912   6.539
21412WAT      O64477   6.419   8.739   1.981
21412WAT     H164478   6.339   8.702   2.029
21412WAT     H264479   6.454   8.818   2.031
21413WAT      O64480   7.151   1.500   3.197
21413WAT     H164481   7.056   1.479   3.173
21413WAT     H264482   7.166   1.599   3.190
21414WAT      O64483   3.995   8.295   0.809
21414WAT     H164484   4.048   8.290   0.724
21414WAT     H264485   3.926   8.367   0.801
21415WAT      O64486   4.321   1.258   5.436
21415WAT     H164487   4.382   1.203   5.379
21415WAT     H264488   4.265   1.316   5.377
21416WAT      O64489   5.421   3.557   1.778
21416WAT     H164490   5.359   3.511   1.715
21416WAT     H264491   5.515   3.528   1.760
21417WAT      O64492   0.649   6.093   0.845
21417WAT     H164493   0.594   6.163   0.891
21417WAT     H264494   0.640   6.103   0.746
21418WAT      O64495   2.440   1.347   7.390
21418WAT     H164496   2.421   1.435   7.433
21418WAT     H264497   2.503   1.295   7.447
21419WAT      O64498   9.385   7.461   7.026
21419WAT     H164499   9.450   7.446   7.100
21419WAT     H264500   9.335   7.377   7.008
21420WAT      O64501   8.984   4.242   0.735
21420WAT     H164502   8.982   4.142   0.726
21420WAT     H264503   8.912   4.271   0.798
21421WAT      O64504   2.077   5.804   8.283
21421WAT     H164505   2.077   5.752   8.368
21421WAT     H264506   2.047   5.897   8.302
21422WAT      O64507   1.845   4.245   6.934
21422WAT     H164508   1.822   4.313   7.004
21422WAT     H264509   1.823   4.154   6.968
21423WAT      O64510   5.425   2.073   7.060
21423WAT     H164511   5.355   2.143   7.076
21423WAT     H264512   5.501   2.087   7.124
21424WAT      O64513   3.074   8.422   2.577
21424WAT     H164514   3.072   8.329   2.539
21424WAT     H264515   3.155   8.432   2.635
21425WAT      O64516   7.393   5.833   6.434
21425WAT     H164517   7.443   5.800   6.513
21425WAT     H264518   7.413   5.775   6.355
21426WAT      O64519   5.320   3.858   4.417
21426WAT     H164520   5.409   3.897   4.391
21426WAT     H264521   5.250   3.891   4.354
21427WAT      O64522   0.779   5.949   2.263
21427WAT     H164523   0.710   5.894   2.215
21427WAT     H264524   0.775   6.043   2.229
21428WAT      O64525   6.870   2.893   7.964
21428WAT     H164526   6.811   2.925   7.889
21428WAT     H264527   6.958   2.865   7.927
21429WAT      O64528   6.551   8.725   4.781
21429WAT     H164529   6.555   8.812   4.830
21429WAT     H264530   6.464   8.680   4.801
21430WAT      O64531   6.543   6.553   4.671
21430WAT     H164532   6.455   6.558   4.625
21430WAT     H264533   6.588   6.642   4.665
21431WAT      O64534   7.889   5.156   0.286
21431WAT     H164535   7.921   5.076   0.336
21431WAT     H264536   7.828   5.210   0.344
21432WAT      O64537   4.075   0.004   9.252
21432WAT     H164538   3.999  -0.035   9.304
21432WAT     H264539   4.042   0.082   9.198
21433WAT      O64540   0.375   7.324   0.380
21433WAT     H164541   0.434   7.328   0.461
21433WAT     H264542   0.293   7.273   0.402
21434WAT      O64543   5.476   0.288   2.278
21434WAT     H164544   5.393   0.340   2.298
21434WAT     H264545   5.517   0.320   2.193
21435WAT      O64546   5.050   4.090   8.312
21435WAT     H164547   5.092   4.092   8.403
21435WAT     H264548   5.118   4.114   8.243
21436WAT      O64549   5.262   3.706   6.775
21436WAT     H164550   5.180   3.649   6.771
21436WAT     H264551   5.324   3.682   6.700
21437WAT      O64552   9.681   3.525   1.316
21437WAT     H164553   9.749   3.501   1.247
21437WAT     H264554   9.677   3.453   1.385
21438WAT      O64555   4.618   1.845   2.185
21438WAT     H164556   4.698   1.811   2.136
21438WAT     H264557   4.645   1.878   2.276
21439WAT      O64558   4.695   3.127   6.139
21439WAT     H164559   4.695   3.158   6.235
21439WAT     H264560   4.637   3.188   6.085
21440WAT      O64561   6.494   9.790   1.690
21440WAT     H164562   6.457   9.879   1.661
21440WAT     H264563   6.463   9.719   1.627
21441WAT      O64564   1.920   6.086   1.808
21441WAT     H164565   1.951   6.007   1.861
21441WAT     H264566   1.994   6.152   1.799
21442WAT      O64567   6.656   9.018   8.213
21442WAT     H164568   6.606   9.055   8.135
21442WAT     H264569   6.648   9.081   8.290
21443WAT      O64570   5.021   2.909   8.635
21443WAT     H164571   4.941   2.867   8.678
21443WAT     H264572   5.103   2.861   8.665
21444WAT      O64573   0.717   7.247   9.115
21444WAT     H164574   0.724   7.152   9.083
21444WAT     H264575   0.625   7.282   9.097
21445WAT      O64576   5.286   7.777   2.645
21445WAT     H164577   5.268   7.754   2.741
21445WAT     H264578   5.337   7.863   2.640
21446WAT      O64579   1.577   8.377   5.775
21446WAT     H164580   1.628   8.315   5.714
21446WAT     H264581   1.567   8.334   5.865
21447WAT      O64582   0.088   9.045   5.868
21447WAT     H164583   0.019   9.010   5.804
21447WAT     H264584   0.088   8.989   5.950
21448WAT      O64585   6.147   2.695   7.660
21448WAT     H164586   6.135   2.621   7.594
21448WAT     H264587   6.167   2.780   7.612
21449WAT      O64588   0.189   8.873   0.966
21449WAT     H164589   0.252   8.911   0.897
21449WAT     H264590   0.195   8.928   1.049
21450WAT      O64591   6.317   5.913   1.370
21450WAT     H164592   6.398   5.948   1.417
21450WAT     H264593   6.316   5.948   1.276
21451WAT      O64594   3.062   9.129   3.903
21451WAT     H164595   3.032   9.052   3.846
21451WAT     H264596   2.995   9.202   3.898
21452WAT      O64597   5.390   8.038   4.084
21452WAT     H164598   5.309   7.999   4.128
21452WAT     H264599   5.362   8.088   4.002
21453WAT      O64600   8.788   9.441   8.767
21453WAT     H164601   8.847   9.438   8.686
21453WAT     H264602   8.742   9.353   8.778
21454WAT      O64603   0.312   6.247   2.149
21454WAT     H164604   0.347   6.156   2.173
21454WAT     H264605   0.302   6.301   2.233
21455WAT      O64606   9.561   4.279   8.703
21455WAT     H164607   9.503   4.198   8.702
21455WAT     H264608   9.517   4.352   8.650
21456WAT      O64609   0.729   4.268   4.728
21456WAT     H164610   0.669   4.230   4.659
21456WAT     H264611   0.810   4.210   4.737
21457WAT      O64612   7.139   3.088   8.382
21457WAT     H164613   7.216   3.051   8.434
21457WAT     H264614   7.172   3.118   8.292
21458WAT      O64615   4.462   2.014   7.234
21458WAT     H164616   4.379   2.041   7.185
21458WAT     H264617   4.484   1.919   7.213
21459WAT      O64618   2.081   1.266   3.977
21459WAT     H164619   2.082   1.195   3.907
21459WAT     H264620   2.121   1.350   3.940
21460WAT      O64621   3.826   6.395   9.544
21460WAT     H164622   3.757   6.465   9.562
21460WAT     H264623   3.915   6.439   9.531
21461WAT      O64624   1.219   1.449   2.351
21461WAT     H164625   1.162   1.419   2.274
21461WAT     H264626   1.262   1.536   2.328
21462WAT      O64627   8.215   1.210   9.108
21462WAT     H164628   8.125   1.207   9.151
21462WAT     H264629   8.244   1.305   9.099
21463WAT      O64630   8.915   6.936   9.423
21463WAT     H164631   8.933   6.863   9.489
21463WAT     H264632   8.973   6.924   9.343
21464WAT      O64633   1.135   4.829   0.870
21464WAT     H164634   1.181   4.742   0.851
21464WAT     H264635   1.127   4.842   0.968
21465WAT      O64636   3.583   4.137   1.747
21465WAT     H164637   3.500   4.092   1.713
21465WAT     H264638   3.647   4.150   1.672
21466WAT      O64639   7.349   0.763   4.137
21466WAT     H164640   7.277   0.821   4.175
21466WAT     H264641   7.309   0.681   4.097
21467WAT      O64642   8.084   6.594   9.754
21467WAT     H164643   8.075   6.502   9.793
21467WAT     H264644   8.110   6.658   9.826
21468WAT      O64645   0.086   9.560   0.584
21468WAT     H164646   0.055   9.567   0.679
21468WAT     H264647   0.024   9.614   0.525
21469WAT      O64648   7.320   8.081   7.073
21469WAT     H164649   7.248   8.142   7.040
21469WAT     H264650   7.388   8.068   7.001
21470WAT      O64651   1.490   2.024   5.589
21470WAT     H164652   1.512   2.048   5.683
21470WAT     H264653   1.554   1.954   5.556
21471WAT      O64654   1.171   8.926   0.935
21471WAT     H164655   1.156   8.838   0.890
21471WAT     H264656   1.263   8.958   0.915
21472WAT      O64657   9.501   5.303   2.022
21472WAT     H164658   9.453   5.233   2.075
21472WAT     H264659   9.474   5.394   2.054
21473WAT      O64660   2.364   9.154   7.957
21473WAT     H164661   2.387   9.203   8.041
21473WAT     H264662   2.276   9.185   7.923
21474WAT      O64663   7.870   4.805   3.877
21474WAT     H164664   7.892   4.888   3.827
21474WAT     H264665   7.773   4.805   3.902
21475WAT      O64666   0.569   2.834   4.305
21475WAT     H164667   0.616   2.746   4.310
21475WAT     H264668   0.621   2.902   4.356
21476WAT      O64669   6.994   2.427   9.459
21476WAT     H164670   7.075   2.480   9.436
21476WAT     H264671   6.916   2.489   9.472
21477WAT      O64672   8.412   0.018   1.966
21477WAT     H164673   8.312   0.027   1.968
21477WAT     H264674   8.448   0.062   1.884
21478WAT      O64675   0.779   4.273   7.247
21478WAT     H164676   0.849   4.326   7.200
21478WAT     H264677   0.689   4.296   7.210
21479WAT      O64678   0.987   7.506   2.466
21479WAT     H164679   1.067   7.487   2.409
21479WAT     H264680   0.966   7.604   2.463
21480WAT      O64681   4.161   3.568   7.693
21480WAT     H164682   4.150   3.522   7.605
21480WAT     H264683   4.148   3.502   7.767
21481WAT      O64684   6.902   8.147   7.545
21481WAT     H164685   6.975   8.131   7.612
21481WAT     H264686   6.942   8.161   7.455
21482WAT      O64687   3.893   4.687   5.450
21482WAT     H164688   3.794   4.676   5.442
21482WAT     H264689   3.927   4.742   5.374
21483WAT      O64690   2.492   4.790   8.931
21483WAT     H164691   2.457   4.870   8.882
21483WAT     H264692   2.487   4.807   9.029
21484WAT      O64693   9.096   3.176   2.564
21484WAT     H164694   9.102   3.099   2.501
21484WAT     H264695   9.177   3.178   2.622
21485WAT      O64696   6.847   1.208   4.765
21485WAT     H164697   6.883   1.116   4.748
21485WAT     H264698   6.913   1.276   4.735
21486WAT      O64699   2.558   8.455   4.957
21486WAT     H164700   2.596   8.365   4.936
21486WAT     H264701   2.508   8.450   5.044
21487WAT      O64702   9.100   2.200   0.378
21487WAT     H164703   9.080   2.230   0.471
21487WAT     H264704   9.136   2.276   0.325
21488WAT      O64705   7.038   7.266   6.900
21488WAT     H164706   7.125   7.305   6.930
21488WAT     H264707   7.044   7.167   6.898
21489WAT      O64708   5.133   1.140   6.902
21489WAT     H164709   5.099   1.234   6.895
21489WAT     H264710   5.072   1.087   6.961
21490WAT      O64711   5.343   2.721   1.337
21490WAT     H164712   5.437   2.690   1.338
21490WAT     H264713   5.336   2.810   1.382
21491WAT      O64714   7.668   8.857   7.434
21491WAT     H164715   7.588   8.857   7.494
21491WAT     H264716   7.739   8.915   7.472
21492WAT      O64717   2.544   8.983   7.067
21492WAT     H164718   2.566   9.005   6.973
21492WAT     H264719   2.477   8.909   7.069
21493WAT      O64720   2.945   3.018   9.360
21493WAT     H164721   2.973   2.951   9.291
21493WAT     H264722   3.026   3.053   9.408
21494WAT      O64723   9.266   0.635   6.759
21494WAT     H164724   9.292   0.541   6.779
21494WAT     H264725   9.343   0.682   6.715
21495WAT      O64726   9.325   5.921   6.529
21495WAT     H164727   9.423   5.907   6.518
21495WAT     H264728   9.276   5.864   6.462
21496WAT      O64729   8.963   5.328   0.899
21496WAT     H164730   9.051   5.364   0.867
21496WAT     H264731   8.907   5.305   0.819
21497WAT      O64732   5.076   9.334   0.404
21497WAT     H164733   5.018   9.252   0.405
21497WAT     H264734   5.056   9.389   0.485
21498WAT      O64735   8.006   2.084   5.179
21498WAT     H164736   7.996   1.985   5.192
21498WAT     H264737   8.101   2.110   5.194
21499WAT      O64738   5.088   1.655   1.100
21499WAT     H164739   5.109   1.610   1.187
21499WAT     H264740   5.154   1.729   1.085
21500WAT      O64741   7.280   0.201   6.286
21500WAT     H164742   7.257   0.119   6.339
21500WAT     H264743   7.330   0.266   6.343
21501WAT      O64744   9.458   6.826   5.711
21501WAT     H164745   9.531   6.888   5.740
21501WAT     H264746   9.415   6.861   5.628
21502WAT      O64747   3.896   1.243   9.579
21502WAT     H164748   3.937   1.333   9.595
21502WAT     H264749   3.915   1.213   9.485
21503WAT      O64750   5.513   1.134   2.656
21503WAT     H164751   5.450   1.137   2.734
21503WAT     H264752   5.591   1.193   2.674
21504WAT      O64753   7.660   4.100   6.561
21504WAT     H164754   7.629   4.051   6.480
21504WAT     H264755   7.646   4.198   6.550
21505WAT      O64756   4.562   8.728   0.246
21505WAT     H164757   4.505   8.788   0.302
21505WAT     H264758   4.522   8.636   0.244
21506WAT      O64759   3.987   8.646   7.038
21506WAT     H164760   3.982   8.620   7.134
21506WAT     H264761   4.052   8.721   7.027
21507WAT      O64762   3.782   4.589   7.249
21507WAT     H164763   3.791   4.524   7.173
21507WAT     H264764   3.781   4.682   7.213
21508WAT      O64765   8.401   1.630   7.732
21508WAT     H164766   8.414   1.533   7.709
21508WAT     H264767   8.306   1.646   7.758
21509WAT      O64768   0.214   2.800   8.847
21509WAT     H164769   0.152   2.729   8.814
21509WAT     H264770   0.307   2.764   8.852
21510WAT      O64771   4.140   0.639   1.632
21510WAT     H164772   4.186   0.640   1.544
21510WAT     H264773   4.122   0.733   1.662
21511WAT      O64774   0.051   7.586   2.733
21511WAT     H164775  -0.041   7.561   2.703
21511WAT     H264776   0.084   7.519   2.800
21512WAT      O64777   8.085   5.169   2.780
21512WAT     H164778   8.145   5.176   2.700
21512WAT     H264779   8.140   5.157   2.862
21513WAT      O64780   4.967   8.081   2.694
21513WAT     H164781   4.900   8.059   2.623
21513WAT     H264782   4.927   8.149   2.756
21514WAT      O64783   3.086   4.178   1.094
21514WAT     H164784   2.997   4.211   1.126
21514WAT     H264785   3.156   4.198   1.163
21515WAT      O64786   7.414   5.749   1.586
21515WAT     H164787   7.376   5.749   1.679
21515WAT     H264788   7.479   5.824   1.578
21516WAT      O64789   1.235   9.397   2.635
21516WAT     H164790   1.164   9.402   2.565
21516WAT     H264791   1.325   9.408   2.591
21517WAT      O64792   0.717   8.713   9.489
21517WAT     H164793   0.648   8.700   9.418
21517WAT     H264794   0.695   8.655   9.567
21518WAT      O64795   7.051   5.763   3.976
21518WAT     H164796   7.043   5.840   3.913
21518WAT     H264797   7.130   5.777   4.036
21519WAT      O64798   8.834   4.326   3.656
21519WAT     H164799   8.882   4.414   3.665
21519WAT     H264800   8.902   4.252   3.657
21520WAT      O64801   6.991   4.665   1.329
21520WAT     H164802   6.987   4.571   1.296
21520WAT     H264803   6.900   4.694   1.357
21521WAT      O64804   8.839   4.185   5.641
21521WAT     H164805   8.930   4.180   5.684
21521WAT     H264806   8.808   4.280   5.640
21522WAT      O64807   1.715   0.968   7.922
21522WAT     H164808   1.683   0.929   8.009
21522WAT     H264809   1.763   1.053   7.940
21523WAT      O64810   0.204   8.452   9.593
21523WAT     H164811   0.173   8.384   9.527
21523WAT     H264812   0.175   8.543   9.563
21524WAT      O64813   7.224   1.277   9.209
21524WAT     H164814   7.309   1.256   9.257
21524WAT     H264815   7.230   1.368   9.168
21525WAT      O64816   1.673   9.471   6.981
21525WAT     H164817   1.712   9.458   6.889
21525WAT     H264818   1.746   9.471   7.049
21526WAT      O64819   3.357   2.652   0.297
21526WAT     H164820   3.319   2.742   0.279
21526WAT     H264821   3.441   2.640   0.244
21527WAT      O64822   2.128   6.099   7.471
21527WAT     H164823   2.086   6.170   7.415
21527WAT     H264824   2.119   6.122   7.568
21528WAT      O64825   1.649   1.270   0.809
21528WAT     H164826   1.587   1.292   0.885
21528WAT     H264827   1.628   1.329   0.731
21529WAT      O64828   8.178   9.771   7.894
21529WAT     H164829   8.123   9.698   7.934
21529WAT     H264830   8.232   9.735   7.818
21530WAT      O64831   3.026   2.956   5.405
21530WAT     H164832   3.113   2.980   5.448
21530WAT     H264833   3.021   2.997   5.314
21531WAT      O64834   0.099   5.262   9.097
21531WAT     H164835   0.161   5.281   9.021
21531WAT     H264836   0.023   5.206   9.066
21532WAT      O64837   2.631   0.663   7.832
21532WAT     H164838   2.709   0.608   7.801
21532WAT     H264839   2.634   0.752   7.787
21533WAT      O64840   6.972   2.936   4.428
21533WAT     H164841   6.943   2.935   4.523
21533WAT     H264842   7.013   2.848   4.404
21534WAT      O64843   1.509   4.658   4.979
21534WAT     H164844   1.497   4.721   5.056
21534WAT     H264845   1.595   4.608   4.991
21535WAT      O64846   3.603   9.614   2.385
21535WAT     H164847   3.554   9.530   2.362
21535WAT     H264848   3.538   9.685   2.413
21536WAT      O64849   7.012   4.676   5.957
21536WAT     H164850   6.919   4.712   5.951
21536WAT     H264851   7.037   4.663   6.053
21537WAT      O64852   8.586   7.547   9.865
21537WAT     H164853   8.599   7.453   9.896
21537WAT     H264854   8.521   7.548   9.788
21538WAT      O64855   6.338   6.652   3.669
21538WAT     H164856   6.251   6.605   3.658
21538WAT     H264857   6.385   6.617   3.750
21539WAT      O64858   9.595   7.477   1.814
21539WAT     H164859   9.499   7.489   1.787
21539WAT     H264860   9.644   7.563   1.801
21540WAT      O64861   3.026   3.400   6.691
21540WAT     H164862   2.947   3.442   6.736
21540WAT     H264863   3.057   3.322   6.745
21541WAT      O64864   8.752   7.370   9.668
21541WAT     H164865   8.770   7.300   9.598
21541WAT     H264866   8.763   7.329   9.759
21542WAT      O64867   8.904   4.268   7.129
21542WAT     H164868   8.922   4.212   7.210
21542WAT     H264869   8.945   4.359   7.142
21543WAT      O64870   8.588   4.902   8.621
21543WAT     H164871   8.667   4.841   8.616
21543WAT     H264872   8.506   4.853   8.591
21544WAT      O64873   5.451   2.126   7.521
21544WAT     H164874   5.409   2.181   7.449
21544WAT     H264875   5.527   2.177   7.562
21545WAT      O64876   8.809   6.951   4.504
21545WAT     H164877   8.844   7.044   4.513
21545WAT     H264878   8.724   6.943   4.556
21546WAT      O64879   9.389   0.882   9.111
21546WAT     H164880   9.401   0.790   9.149
21546WAT     H264881   9.471   0.909   9.061
21547WAT      O64882   2.812   2.448   2.048
21547WAT     H164883   2.907   2.475   2.030
21547WAT     H264884   2.811   2.364   2.103
21548WAT      O64885   5.794   7.467   9.526
21548WAT     H164886   5.717   7.439   9.469
21548WAT     H264887   5.765   7.473   9.621
21549WAT      O64888   2.350   4.493   7.572
21549WAT     H164889   2.383   4.404   7.540
21549WAT     H264890   2.428   4.551   7.593
21550WAT      O64891   4.815   9.658   9.893
21550WAT     H164892   4.839   9.575   9.943
21550WAT     H264893   4.857   9.656   9.802
21551WAT      O64894   0.760   9.330   9.836
21551WAT     H164895   0.833   9.374   9.889
21551WAT     H264896   0.793   9.310   9.744
21552WAT      O64897   8.499   0.965   9.284
21552WAT     H164898   8.448   0.953   9.199
21552WAT     H264899   8.440   0.939   9.361
21553WAT      O64900   7.602   4.061   2.352
21553WAT     H164901   7.563   4.154   2.359
21553WAT     H264902   7.677   4.051   2.417
21554WAT      O64903   8.213   8.391   8.121
21554WAT     H164904   8.289   8.387   8.056
21554WAT     H264905   8.149   8.463   8.092
21555WAT      O64906   7.632   0.996   2.911
21555WAT     H164907   7.631   0.922   2.844
21555WAT     H264908   7.636   1.084   2.863
21556WAT      O64909   1.713   2.556   1.744
21556WAT     H164910   1.625   2.513   1.764
21556WAT     H264911   1.764   2.498   1.680
21557WAT      O64912   9.807   5.683   3.439
21557WAT     H164913   9.765   5.618   3.376
21557WAT     H264914   9.757   5.684   3.526
21558WAT      O64915   4.665   5.070   7.182
21558WAT     H164916   4.582   5.056   7.236
21558WAT     H264917   4.662   5.012   7.100
21559WAT      O64918   9.079   7.354   4.645
21559WAT     H164919   9.160   7.383   4.696
21559WAT     H264920   9.105   7.334   4.550
21560WAT      O64921   7.428   5.293   4.300
21560WAT     H164922   7.411   5.354   4.223
21560WAT     H264923   7.421   5.345   4.386
21561WAT      O64924   3.119   7.144   3.463
21561WAT     H164925   3.148   7.211   3.531
21561WAT     H264926   3.067   7.071   3.509
21562WAT      O64927   3.165   4.224   6.856
21562WAT     H164928   3.151   4.128   6.830
21562WAT     H264929   3.262   4.238   6.877
21563WAT      O64930   2.911   4.290   8.702
21563WAT     H164931   2.820   4.291   8.744
21563WAT     H264932   2.975   4.340   8.760
21564WAT      O64933   8.040   6.953   2.076
21564WAT     H164934   8.074   6.886   2.009
21564WAT     H264935   8.051   6.916   2.168
21565WAT      O64936   2.315   1.215   0.158
21565WAT     H164937   2.338   1.170   0.072
21565WAT     H264938   2.377   1.291   0.174
21566WAT      O64939   4.895   1.092   3.528
21566WAT     H164940   4.983   1.048   3.506
21566WAT     H264941   4.871   1.071   3.623
21567WAT      O64942   5.952   0.232   4.653
21567WAT     H164943   5.951   0.142   4.698
21567WAT     H264944   6.046   0.266   4.649
21568WAT      O64945   3.304   6.103   2.115
21568WAT     H164946   3.373   6.165   2.077
21568WAT     H264947   3.235   6.157   2.163
21569WAT      O64948   3.020   0.471   4.451
21569WAT     H164949   2.973   0.526   4.382
21569WAT     H264950   3.025   0.523   4.537
21570WAT      O64951   6.004   5.029   8.583
21570WAT     H164952   5.988   5.127   8.585
21570WAT     H264953   5.959   4.986   8.662
21571WAT      O64954   2.174   7.088   8.319
21571WAT     H164955   2.195   7.185   8.305
21571WAT     H264956   2.222   7.033   8.251
21572WAT      O64957   9.261   9.527   0.607
21572WAT     H164958   9.272   9.574   0.519
21572WAT     H264959   9.350   9.518   0.651
21573WAT      O64960   9.702   8.393   0.999
21573WAT     H164961   9.795   8.404   1.036
21573WAT     H264962   9.638   8.379   1.075
21574WAT      O64963   0.017   0.572   9.702
21574WAT     H164964   0.104   0.575   9.751
21574WAT     H264965  -0.057   0.597   9.764
21575WAT      O64966   1.928   5.344   8.021
21575WAT     H164967   1.862   5.418   8.019
21575WAT     H264968   2.015   5.378   8.057
21576WAT      O64969   4.930   4.052   2.896
21576WAT     H164970   5.025   4.078   2.881
21576WAT     H264971   4.888   4.024   2.809
21577WAT      O64972   8.220   0.746   3.528
21577WAT     H164973   8.240   0.654   3.494
21577WAT     H264974   8.243   0.813   3.458
21578WAT      O64975   8.062   1.671   1.317
21578WAT     H164976   7.971   1.704   1.294
21578WAT     H264977   8.058   1.573   1.335
21579WAT      O64978   4.472   3.355   6.332
21579WAT     H164979   4.380   3.355   6.372
21579WAT     H264980   4.488   3.442   6.286
21580WAT      O64981   3.590   9.233   7.720
21580WAT     H164982   3.573   9.178   7.638
21580WAT     H264983   3.605   9.328   7.693
21581WAT      O64984   8.051   3.097   8.721
21581WAT     H164985   8.067   3.127   8.626
21581WAT     H264986   8.113   3.146   8.782
21582WAT      O64987   1.696   9.735   9.210
21582WAT     H164988   1.710   9.834   9.203
21582WAT     H264989   1.763   9.696   9.273
21583WAT      O64990   5.865   2.982   1.904
21583WAT     H164991   5.944   2.971   1.966
21583WAT     H264992   5.786   2.935   1.944
21584WAT      O64993   8.258   2.412   0.999
21584WAT     H164994   8.193   2.384   0.929
21584WAT     H264995   8.287   2.506   0.982
21585WAT      O64996   6.137   7.810   3.152
21585WAT     H164997   6.039   7.797   3.169
21585WAT     H264998   6.189   7.774   3.229
21586WAT      O64999   8.157   8.034   7.304
21586WAT     H165000   8.082   7.985   7.348
21586WAT     H265001   8.131   8.057   7.210
21587WAT      O65002   3.767   1.228   2.308
21587WAT     H165003   3.842   1.295   2.315
21587WAT     H265004   3.686   1.274   2.272
21588WAT      O65005   3.844   1.483   0.209
21588WAT     H165006   3.805   1.574   0.192
21588WAT     H265007   3.807   1.446   0.295
21589WAT      O65008   6.373   9.182   1.789
21589WAT     H165009   6.368   9.086   1.762
21589WAT     H265010   6.389   9.188   1.888
21590WAT      O65011   4.351   6.733   6.261
21590WAT     H165012   4.294   6.727   6.179
21590WAT     H265013   4.330   6.818   6.310
21591WAT      O65014   3.455   4.023   0.641
21591WAT     H165015   3.417   3.930   0.639
21591WAT     H265016   3.398   4.083   0.585
21592WAT      O65017   4.821   4.582   9.096
21592WAT     H165018   4.844   4.674   9.126
21592WAT     H265019   4.871   4.515   9.152
21593WAT      O65020   8.407   6.060   4.636
21593WAT     H165021   8.371   5.973   4.602
21593WAT     H265022   8.495   6.045   4.680
21594WAT      O65023   7.107   2.290   0.329
21594WAT     H165024   7.063   2.208   0.365
21594WAT     H265025   7.142   2.345   0.405
21595WAT      O65026   5.292   8.690   4.302
21595WAT     H165027   5.346   8.735   4.373
21595WAT     H265028   5.290   8.592   4.318
21596WAT      O65029   6.708   2.975   8.416
21596WAT     H165030   6.779   2.904   8.424
21596WAT     H265031   6.623   2.942   8.456
21597WAT      O65032   1.723   3.617   6.299
21597WAT     H165033   1.674   3.534   6.273
21597WAT     H265034   1.763   3.606   6.389
21598WAT      O65035   0.513   6.074   2.530
21598WAT     H165036   0.454   5.993   2.527
21598WAT     H265037   0.518   6.107   2.624
21599WAT      O65038   1.545   1.420   5.657
21599WAT     H165039   1.453   1.413   5.694
21599WAT     H265040   1.592   1.332   5.665
21600WAT      O65041   4.764   5.647   4.234
21600WAT     H165042   4.718   5.631   4.147
21600WAT     H265043   4.806   5.562   4.265
21601WAT      O65044   7.422   9.515   1.000
21601WAT     H165045   7.379   9.493   1.088
21601WAT     H265046   7.393   9.606   0.971
21602WAT      O65047   7.128   7.228   5.815
21602WAT     H165048   7.122   7.203   5.912
21602WAT     H265049   7.059   7.177   5.764
21603WAT      O65050   7.540   9.095   2.213
21603WAT     H165051   7.488   9.020   2.253
21603WAT     H265052   7.617   9.118   2.273
21604WAT      O65053   2.357   9.256   3.807
21604WAT     H165054   2.369   9.355   3.816
21604WAT     H265055   2.340   9.216   3.898
21605WAT      O65056   4.922   1.508   9.201
21605WAT     H165057   4.930   1.517   9.102
21605WAT     H265058   5.002   1.459   9.236
21606WAT      O65059   0.722   2.388   0.957
21606WAT     H165060   0.770   2.306   0.986
21606WAT     H265061   0.735   2.460   1.025
21607WAT      O65062   5.139   6.045   2.039
21607WAT     H165063   5.224   5.995   2.049
21607WAT     H265064   5.120   6.096   2.123
21608WAT      O65065   7.697   4.601   4.510
21608WAT     H165066   7.773   4.536   4.516
21608WAT     H265067   7.723   4.678   4.452
21609WAT      O65068   3.773   0.848   5.168
21609WAT     H165069   3.749   0.778   5.099
21609WAT     H265070   3.837   0.913   5.128
21610WAT      O65071   6.163   1.785   5.490
21610WAT     H165072   6.098   1.791   5.414
21610WAT     H265073   6.159   1.870   5.543
21611WAT      O65074   3.824   4.164   7.941
21611WAT     H165075   3.810   4.241   7.879
21611WAT     H265076   3.917   4.165   7.977
21612WAT      O65077   1.304   7.492   2.117
21612WAT     H165078   1.347   7.565   2.063
21612WAT     H265079   1.283   7.415   2.057
21613WAT      O65080   1.440   3.643   6.862
21613WAT     H165081   1.410   3.560   6.909
21613WAT     H265082   1.539   3.640   6.847
21614WAT      O65083   3.523   4.631   5.741
21614WAT     H165084   3.532   4.724   5.777
21614WAT     H265085   3.596   4.574   5.776
21615WAT      O65086   7.785   9.583   2.288
21615WAT     H165087   7.782   9.682   2.291
21615WAT     H265088   7.724   9.549   2.217
21616WAT      O65089   1.097   0.912   1.947
21616WAT     H165090   1.012   0.954   1.980
21616WAT     H265091   1.164   0.983   1.929
21617WAT      O65092   5.587   0.202   8.502
21617WAT     H165093   5.686   0.203   8.490
21617WAT     H265094   5.548   0.126   8.451
21618WAT      O65095   8.963   5.541   8.094
21618WAT     H165096   8.889   5.517   8.157
21618WAT     H265097   9.021   5.612   8.135
21619WAT      O65098   2.277   8.031   8.678
21619WAT     H165099   2.286   8.061   8.773
21619WAT     H265100   2.322   7.942   8.667
21620WAT      O65101   3.620   3.247   7.208
21620WAT     H165102   3.583   3.236   7.116
21620WAT     H265103   3.669   3.333   7.215
21621WAT      O65104   1.496   2.213   6.012
21621WAT     H165105   1.428   2.284   5.996
21621WAT     H265106   1.559   2.243   6.084
21622WAT      O65107   7.110   2.627   5.810
21622WAT     H165108   7.137   2.548   5.755
21622WAT     H265109   7.166   2.706   5.784
21623WAT      O65110   1.915   0.509   0.614
21623WAT     H165111   1.983   0.548   0.552
21623WAT     H265112   1.887   0.419   0.580
21624WAT      O65113   3.220   7.597   7.440
21624WAT     H165114   3.134   7.640   7.412
21624WAT     H265115   3.286   7.603   7.366
21625WAT      O65116   3.506   1.039   3.654
21625WAT     H165117   3.477   1.005   3.565
21625WAT     H265118   3.449   0.998   3.725
21626WAT      O65119   1.289   4.464   1.018
21626WAT     H165120   1.301   4.502   0.926
21626WAT     H265121   1.219   4.516   1.066
21627WAT      O65122   7.275   7.991   4.140
21627WAT     H165123   7.328   7.987   4.055
21627WAT     H265124   7.178   7.998   4.118
21628WAT      O65125   3.976   1.360   6.533
21628WAT     H165126   3.996   1.454   6.561
21628WAT     H265127   4.060   1.307   6.529
21629WAT      O65128   4.120   9.753   0.557
21629WAT     H165129   4.217   9.728   0.556
21629WAT     H265130   4.067   9.682   0.511
21630WAT      O65131   3.579   0.407   7.069
21630WAT     H165132   3.634   0.470   7.014
21630WAT     H265133   3.483   0.417   7.045
21631WAT      O65134   6.840   1.159   7.719
21631WAT     H165135   6.928   1.207   7.727
21631WAT     H265136   6.821   1.139   7.623
21632WAT      O65137   4.675   7.919   9.190
21632WAT     H165138   4.709   8.012   9.209
21632WAT     H265139   4.579   7.924   9.164
21633WAT      O65140   3.372   0.851   4.327
21633WAT     H165141   3.330   0.781   4.269
21633WAT     H265142   3.336   0.941   4.302
21634WAT      O65143   2.396   4.007   0.334
21634WAT     H165144   2.460   4.052   0.397
21634WAT     H265145   2.345   3.937   0.383
21635WAT      O65146   8.860   7.593   0.099
21635WAT     H165147   8.767   7.578   0.066
21635WAT     H265148   8.867   7.564   0.194
21636WAT      O65149   7.052   7.935   5.089
21636WAT     H165150   7.048   8.023   5.042
21636WAT     H265151   7.047   7.950   5.188
21637WAT      O65152   8.357   6.753   9.160
21637WAT     H165153   8.359   6.819   9.085
21637WAT     H265154   8.296   6.677   9.137
21638WAT      O65155   6.503   6.003   7.175
21638WAT     H165156   6.507   5.917   7.226
21638WAT     H265157   6.595   6.031   7.148
21639WAT      O65158   7.195   9.711   0.669
21639WAT     H165159   7.102   9.679   0.685
21639WAT     H265160   7.259   9.634   0.678
21640WAT      O65161   1.906   7.746   3.292
21640WAT     H165162   1.931   7.672   3.229
21640WAT     H265163   1.983   7.810   3.300
21641WAT      O65164   4.939   4.800   6.991
21641WAT     H165165   5.018   4.740   6.980
21641WAT     H265166   4.901   4.822   6.901
21642WAT      O65167   7.479   7.314   1.308
21642WAT     H165168   7.466   7.260   1.225
21642WAT     H265169   7.439   7.266   1.386
21643WAT      O65170   8.573   9.611   3.334
21643WAT     H165171   8.551   9.708   3.344
21643WAT     H265172   8.534   9.559   3.410
21644WAT      O65173   0.612   6.280   2.380
21644WAT     H165174   0.570   6.207   2.435
21644WAT     H265175   0.648   6.241   2.295
21645WAT      O65176   8.686   7.545   5.890
21645WAT     H165177   8.731   7.468   5.935
21645WAT     H265178   8.606   7.573   5.943
21646WAT      O65179   3.286   8.108   2.186
21646WAT     H165180   3.276   8.092   2.284
21646WAT     H265181   3.250   8.029   2.136
21647WAT      O65182   7.601   1.205   0.087
21647WAT     H165183   7.579   1.180   0.181
21647WAT     H265184   7.659   1.286   0.086
21648WAT      O65185   7.014   6.933   8.035
21648WAT     H165186   7.037   6.994   7.959
21648WAT     H265187   7.007   6.839   8.002
21649WAT      O65188   0.676   3.021   1.805
21649WAT     H165189   0.692   3.101   1.861
21649WAT     H265190   0.733   2.945   1.837
21650WAT      O65191   4.118   9.518   2.955
21650WAT     H165192   4.116   9.500   2.857
21650WAT     H265193   4.155   9.439   3.004
21651WAT      O65194   1.580   1.147   3.386
21651WAT     H165195   1.481   1.145   3.375
21651WAT     H265196   1.609   1.240   3.406
21652WAT      O65197   4.745   4.335   5.872
21652WAT     H165198   4.842   4.350   5.891
21652WAT     H265199   4.715   4.250   5.916
21653WAT      O65200   1.029   4.031   4.009
21653WAT     H165201   0.951   3.970   3.994
21653WAT     H265202   1.098   4.014   3.939
21654WAT      O65203   8.347   4.243   1.594
21654WAT     H165204   8.300   4.267   1.509
21654WAT     H265205   8.293   4.176   1.645
21655WAT      O65206   8.397   6.700   8.066
21655WAT     H165207   8.337   6.620   8.072
21655WAT     H265208   8.443   6.701   7.977
21656WAT      O65209   2.015   4.576   9.475
21656WAT     H165210   2.069   4.579   9.559
21656WAT     H265211   1.998   4.669   9.443
21657WAT      O65212   4.768   8.899   1.357
21657WAT     H165213   4.747   8.926   1.451
21657WAT     H265214   4.689   8.915   1.299
21658WAT      O65215   7.637   5.011   5.681
21658WAT     H165216   7.700   5.022   5.604
21658WAT     H265217   7.676   5.051   5.763
21659WAT      O65218   7.725   0.515   1.164
21659WAT     H165219   7.806   0.506   1.221
21659WAT     H265220   7.695   0.611   1.163
21660WAT      O65221   8.502   9.411   5.231
21660WAT     H165222   8.533   9.364   5.148
21660WAT     H265223   8.419   9.463   5.211
21661WAT      O65224   1.200   0.283   6.656
21661WAT     H165225   1.150   0.347   6.599
21661WAT     H265226   1.162   0.191   6.644
21662WAT      O65227   7.197   1.638   6.779
21662WAT     H165228   7.278   1.583   6.757
21662WAT     H265229   7.151   1.599   6.858
21663WAT      O65230   4.544   6.481   3.197
21663WAT     H165231   4.463   6.522   3.156
21663WAT     H265232   4.517   6.424   3.275
21664WAT      O65233   0.953   4.693   6.807
21664WAT     H165234   0.915   4.721   6.895
21664WAT     H265235   1.040   4.647   6.822
21665WAT      O65236   6.810   0.418   5.378
21665WAT     H165237   6.725   0.455   5.341
21665WAT     H265238   6.805   0.318   5.379
21666WAT      O65239   2.867   6.093   0.960
21666WAT     H165240   2.897   6.187   0.950
21666WAT     H265241   2.773   6.091   0.994
21667WAT      O65242   3.626   3.184   5.702
21667WAT     H165243   3.668   3.096   5.680
21667WAT     H265244   3.544   3.197   5.646
21668WAT      O65245   6.456   7.666   9.193
21668WAT     H165246   6.555   7.666   9.204
21668WAT     H265247   6.428   7.584   9.143
21669WAT      O65248   7.523   3.604   2.438
21669WAT     H165249   7.471   3.689   2.448
21669WAT     H265250   7.476   3.531   2.488
21670WAT      O65251   4.152   3.965   3.758
21670WAT     H165252   4.242   3.941   3.795
21670WAT     H265253   4.082   3.911   3.806
21671WAT      O65254   1.585   2.518   4.904
21671WAT     H165255   1.603   2.464   4.987
21671WAT     H265256   1.496   2.562   4.912
21672WAT      O65257   5.753   8.548   6.283
21672WAT     H165258   5.675   8.570   6.341
21672WAT     H265259   5.801   8.469   6.321
21673WAT      O65260   7.042   1.731   5.184
21673WAT     H165261   7.021   1.636   5.161
21673WAT     H265262   7.068   1.780   5.100
21674WAT      O65263   5.897   5.317   2.980
21674WAT     H165264   5.900   5.330   2.881
21674WAT     H265265   5.855   5.229   3.001
21675WAT      O65266   0.189   6.787   8.025
21675WAT     H165267   0.139   6.722   8.083
21675WAT     H265268   0.256   6.737   7.970
21676WAT      O65269   3.090   3.320   9.158
21676WAT     H165270   3.007   3.264   9.161
21676WAT     H265271   3.163   3.275   9.208
21677WAT      O65272   8.577   8.211   3.282
21677WAT     H165273   8.555   8.273   3.206
21677WAT     H265274   8.672   8.182   3.276
21678WAT      O65275   6.872   8.167   0.560
21678WAT     H165276   6.810   8.091   0.576
21678WAT     H265277   6.903   8.166   0.465
21679WAT      O65278   6.256   5.597   4.917
21679WAT     H165279   6.275   5.500   4.907
21679WAT     H265280   6.267   5.642   4.828
21680WAT      O65281   6.789   4.547   6.189
21680WAT     H165282   6.878   4.591   6.181
21680WAT     H265283   6.753   4.561   6.281
21681WAT      O65284   5.681   1.341   8.123
21681WAT     H165285   5.592   1.362   8.082
21681WAT     H265286   5.749   1.330   8.051
21682WAT      O65287   7.299   7.661   7.425
21682WAT     H165288   7.312   7.734   7.358
21682WAT     H265289   7.314   7.698   7.517
21683WAT      O65290   1.757   8.852   3.353
21683WAT     H165291   1.757   8.796   3.270
21683WAT     H265292   1.794   8.798   3.430
21684WAT      O65293   6.464   7.703   2.328
21684WAT     H165294   6.521   7.620   2.327
21684WAT     H265295   6.382   7.686   2.382
21685WAT      O65296   6.621   9.580   2.335
21685WAT     H165297   6.641   9.559   2.239
21685WAT     H265298   6.689   9.538   2.394
21686WAT      O65299   4.360   4.942   0.565
21686WAT     H165300   4.436   4.914   0.506
21686WAT     H265301   4.274   4.915   0.522
21687WAT      O65302   5.784   6.691   0.992
21687WAT     H165303   5.731   6.640   1.060
21687WAT     H265304   5.761   6.788   0.998
21688WAT      O65305   8.027   0.166   4.254
21688WAT     H165306   7.989   0.077   4.227
21688WAT     H265307   8.078   0.155   4.339
21689WAT      O65308   1.145   0.122   5.172
21689WAT     H165309   1.066   0.124   5.234
21689WAT     H265310   1.152   0.031   5.131
21690WAT      O65311   1.068   7.432   6.469
21690WAT     H165312   0.981   7.419   6.420
21690WAT     H265313   1.083   7.355   6.531
21691WAT      O65314   6.008   3.289   7.650
21691WAT     H165315   5.988   3.239   7.734
21691WAT     H265316   5.923   3.314   7.605
21692WAT      O65317   7.764   0.434   2.218
21692WAT     H165318   7.778   0.400   2.311
21692WAT     H265319   7.845   0.414   2.163
21693WAT      O65320   1.818   1.709   8.684
21693WAT     H165321   1.819   1.802   8.648
21693WAT     H265322   1.766   1.706   8.769
21694WAT      O65323   9.131   1.676   0.636
21694WAT     H165324   9.048   1.696   0.585
21694WAT     H265325   9.111   1.613   0.711
21695WAT      O65326   4.711   9.674   2.895
21695WAT     H165327   4.798   9.723   2.900
21695WAT     H265328   4.638   9.737   2.869
21696WAT      O65329   6.473   1.106   5.516
21696WAT     H165330   6.495   1.203   5.517
21696WAT     H265331   6.446   1.077   5.608
21697WAT      O65332   4.222   6.324   7.856
21697WAT     H165333   4.268   6.254   7.801
21697WAT     H265334   4.199   6.402   7.798
21698WAT      O65335   4.498   0.607   7.068
21698WAT     H165336   4.452   0.693   7.048
21698WAT     H265337   4.430   0.535   7.084
21699WAT      O65338   8.176   5.516   7.536
21699WAT     H165339   8.243   5.454   7.576
21699WAT     H265340   8.111   5.545   7.606
21700WAT      O65341   7.234   7.321   7.901
21700WAT     H165342   7.198   7.388   7.836
21700WAT     H265343   7.298   7.260   7.854
21701WAT      O65344   6.944   7.043   8.462
21701WAT     H165345   6.899   7.040   8.373
21701WAT     H265346   6.883   7.085   8.529
21702WAT      O65347   6.828   1.246   2.304
21702WAT     H165348   6.928   1.254   2.295
21702WAT     H265349   6.804   1.152   2.325
21703WAT      O65350   7.330   6.767   5.103
21703WAT     H165351   7.299   6.680   5.142
21703WAT     H265352   7.325   6.763   5.004
21704WAT      O65353   0.388   0.693   2.278
21704WAT     H165354   0.459   0.640   2.231
21704WAT     H265355   0.315   0.716   2.214
21705WAT      O65356   3.238   0.328   3.547
21705WAT     H165357   3.310   0.266   3.517
21705WAT     H265358   3.152   0.303   3.503
21706WAT      O65359   6.432   4.371   5.977
21706WAT     H165360   6.356   4.308   5.967
21706WAT     H265361   6.401   4.454   6.024
21707WAT      O65362   3.344   3.721   8.816
21707WAT     H165363   3.376   3.637   8.774
21707WAT     H265364   3.360   3.798   8.753
21708WAT      O65365   1.593   8.334   3.448
21708WAT     H165366   1.577   8.244   3.407
21708WAT     H265367   1.659   8.326   3.522
21709WAT      O65368   7.382   9.775   6.006
21709WAT     H165369   7.400   9.873   6.010
21709WAT     H265370   7.439   9.727   6.073
21710WAT      O65371   4.365   6.401   9.359
21710WAT     H165372   4.425   6.418   9.281
21710WAT     H265373   4.419   6.379   9.440
21711WAT      O65374   1.593   4.338   3.966
21711WAT     H165375   1.690   4.314   3.964
21711WAT     H265376   1.568   4.379   3.878
21712WAT      O65377   1.894   2.009   9.049
21712WAT     H165378   1.948   2.032   9.130
21712WAT     H265379   1.904   1.911   9.030
21713WAT      O65380   6.169   0.607   7.613
21713WAT     H165381   6.188   0.694   7.657
21713WAT     H265382   6.073   0.603   7.585
21714WAT      O65383   5.279   1.659   9.611
21714WAT     H165384   5.204   1.696   9.556
21714WAT     H265385   5.333   1.734   9.648
21715WAT      O65386   1.732   0.259   4.372
21715WAT     H165387   1.828   0.261   4.398
21715WAT     H265388   1.717   0.324   4.297
21716WAT      O65389   3.846   7.479   7.052
21716WAT     H165390   3.934   7.485   7.098
21716WAT     H265391   3.803   7.391   7.073
21717WAT      O65392   8.132   1.534   0.088
21717WAT     H165393   8.117   1.633   0.083
21717WAT     H265394   8.101   1.500   0.176
21718WAT      O65395   2.446   5.328   5.373
21718WAT     H165396   2.542   5.315   5.349
21718WAT     H265397   2.429   5.425   5.390
21719WAT      O65398   4.001   7.006   6.012
21719WAT     H165399   3.984   6.988   6.109
21719WAT     H265400   3.946   7.084   5.983
21720WAT      O65401   3.280   0.914   8.547
21720WAT     H165402   3.181   0.910   8.552
21720WAT     H265403   3.316   0.968   8.623
21721WAT      O65404   7.338   8.704   7.952
21721WAT     H165405   7.267   8.766   7.986
21721WAT     H265406   7.419   8.756   7.929
21722WAT      O65407   0.959   2.128   0.647
21722WAT     H165408   0.974   2.212   0.699
21722WAT     H265409   1.036   2.111   0.587
21723WAT      O65410   3.965   1.453   1.380
21723WAT     H165411   3.928   1.362   1.403
21723WAT     H265412   3.939   1.518   1.451
21724WAT      O65413   8.947   7.219   7.166
21724WAT     H165414   8.982   7.309   7.190
21724WAT     H265415   8.867   7.199   7.223
21725WAT      O65416   9.171   7.160   7.366
21725WAT     H165417   9.122   7.223   7.305
21725WAT     H265418   9.269   7.179   7.360
21726WAT      O65419   1.505   5.635   6.823
21726WAT     H165420   1.593   5.608   6.783
21726WAT     H265421   1.508   5.623   6.922
21727WAT      O65422   9.208   3.036   7.703
21727WAT     H165423   9.112   3.023   7.678
21727WAT     H265424   9.255   3.090   7.634
21728WAT      O65425   3.607   6.735   6.364
21728WAT     H165426   3.660   6.675   6.424
21728WAT     H265427   3.509   6.727   6.386
21729WAT      O65428   7.824   8.000   1.779
21729WAT     H165429   7.776   8.026   1.695
21729WAT     H265430   7.922   8.012   1.767
21730WAT      O65431   5.228   0.126   5.026
21730WAT     H165432   5.298   0.057   5.009
21730WAT     H265433   5.269   0.207   5.069
21731WAT      O65434   2.134   3.507   2.302
21731WAT     H165435   2.229   3.477   2.312
21731WAT     H265436   2.080   3.474   2.379
21732WAT      O65437   4.378   1.416   0.467
21732WAT     H165438   4.446   1.368   0.411
21732WAT     H265439   4.292   1.423   0.417
21733WAT      O65440   4.449   6.616   2.365
21733WAT     H165441   4.441   6.518   2.383
21733WAT     H265442   4.482   6.630   2.272
21734WAT      O65443   4.848   0.429   5.864
21734WAT     H165444   4.799   0.344   5.883
21734WAT     H265445   4.935   0.407   5.819
21735WAT      O65446   7.838   3.439   6.280
21735WAT     H165447   7.772   3.485   6.221
21735WAT     H265448   7.847   3.343   6.252
21736WAT      O65449   9.072   1.675   3.432
21736WAT     H165450   9.069   1.643   3.527
21736WAT     H265451   9.043   1.601   3.371
21737WAT      O65452   8.478   3.545   0.036
21737WAT     H165453   8.408   3.590   0.092
21737WAT     H265454   8.435   3.501  -0.043
21738WAT      O65455   8.786   4.533   2.181
21738WAT     H165456   8.820   4.525   2.274
21738WAT     H265457   8.862   4.523   2.117
21739WAT      O65458   5.484   9.263   5.210
21739WAT     H165459   5.559   9.325   5.234
21739WAT     H265460   5.468   9.267   5.111
21740WAT      O65461   6.677   1.989   9.457
21740WAT     H165462   6.619   1.911   9.436
21740WAT     H265463   6.773   1.961   9.460
21741WAT      O65464   9.159   1.531   7.677
21741WAT     H165465   9.163   1.521   7.578
21741WAT     H265466   9.118   1.619   7.701
21742WAT      O65467   4.606   9.238   2.950
21742WAT     H165468   4.528   9.176   2.944
21742WAT     H265469   4.663   9.228   2.868
21743WAT      O65470   4.722   1.006   6.200
21743WAT     H165471   4.692   0.915   6.229
21743WAT     H265472   4.647   1.071   6.208
21744WAT      O65473   0.900   1.169   5.998
21744WAT     H165474   0.832   1.208   5.935
21744WAT     H265475   0.977   1.132   5.946
21745WAT      O65476   7.615   1.114   0.344
21745WAT     H165477   7.556   1.082   0.418
21745WAT     H265478   7.701   1.062   0.344
21746WAT      O65479   1.384   7.348   6.717
21746WAT     H165480   1.483   7.335   6.726
21746WAT     H265481   1.338   7.260   6.725
21747WAT      O65482   8.762   1.523   5.875
21747WAT     H165483   8.855   1.486   5.867
21747WAT     H265484   8.712   1.505   5.790
21748WAT      O65485   8.531   1.304   5.835
21748WAT     H165486   8.541   1.354   5.921
21748WAT     H265487   8.579   1.217   5.842
21749WAT      O65488   1.299   9.453   7.928
21749WAT     H165489   1.273   9.425   7.836
21749WAT     H265490   1.341   9.375   7.976
21750WAT      O65491   8.071   4.166   6.162
21750WAT     H165492   8.046   4.070   6.153
21750WAT     H265493   8.168   4.173   6.187
21751WAT      O65494   6.708   4.628   4.754
21751WAT     H165495   6.648   4.707   4.770
21751WAT     H265496   6.653   4.545   4.745
21752WAT      O65497   2.527   5.459   8.368
21752WAT     H165498   2.527   5.422   8.461
21752WAT     H265499   2.620   5.454   8.330
21753WAT      O65500   6.636   9.219   9.724
21753WAT     H165501   6.641   9.251   9.630
21753WAT     H265502   6.721   9.174   9.749
21754WAT      O65503   2.612   6.346   3.809
21754WAT     H165504   2.529   6.360   3.755
21754WAT     H265505   2.687   6.319   3.749
21755WAT      O65506   9.218   6.828   5.290
21755WAT     H165507   9.229   6.927   5.287
21755WAT     H265508   9.127   6.804   5.322
21756WAT      O65509   7.346   2.907   6.295
21756WAT     H165510   7.423   2.965   6.321
21756WAT     H265511   7.345   2.894   6.196
21757WAT      O65512   5.089   8.052   1.049
21757WAT     H165513   5.156   8.072   0.977
21757WAT     H265514   5.092   7.955   1.072
21758WAT      O65515   3.984   0.260   4.417
21758WAT     H165516   4.047   0.191   4.380
21758WAT     H265517   3.890   0.228   4.407
21759WAT      O65518   8.414   7.105   7.515
21759WAT     H165519   8.372   7.149   7.595
21759WAT     H265520   8.407   7.166   7.436
21760WAT      O65521   0.470   7.331   9.340
21760WAT     H165522   0.388   7.304   9.392
21760WAT     H265523   0.512   7.411   9.384
21761WAT      O65524   5.704   1.969   2.635
21761WAT     H165525   5.801   1.953   2.654
21761WAT     H265526   5.687   2.067   2.629
21762WAT      O65527   7.339   6.303   0.559
21762WAT     H165528   7.241   6.306   0.542
21762WAT     H265529   7.388   6.302   0.471
21763WAT      O65530   6.084   7.199   4.010
21763WAT     H165531   6.096   7.224   4.106
21763WAT     H265532   6.163   7.229   3.957
21764WAT      O65533   3.275   3.042   9.090
21764WAT     H165534   3.292   2.944   9.077
21764WAT     H265535   3.190   3.068   9.044
21765WAT      O65536   7.507   2.883   9.299
21765WAT     H165537   7.420   2.890   9.349
21765WAT     H265538   7.516   2.960   9.236
21766WAT      O65539   8.658   3.740   3.472
21766WAT     H165540   8.628   3.809   3.406
21766WAT     H265541   8.728   3.682   3.430
21767WAT      O65542   5.460   9.735   6.923
21767WAT     H165543   5.444   9.788   6.839
21767WAT     H265544   5.524   9.784   6.982
21768WAT      O65545   4.336   4.396   8.940
21768WAT     H165546   4.398   4.439   9.006
21768WAT     H265547   4.319   4.301   8.966
21769WAT      O65548   6.175   0.976   9.860
21769WAT     H165549   6.102   0.918   9.822
21769WAT     H265550   6.262   0.950   9.819
21770WAT      O65551   1.297   4.791   2.013
21770WAT     H165552   1.206   4.821   1.986
21770WAT     H265553   1.317   4.823   2.106
21771WAT      O65554   2.902   6.644   9.515
21771WAT     H165555   2.839   6.712   9.553
21771WAT     H265556   2.864   6.606   9.431
21772WAT      O65557   0.260   8.744   6.911
21772WAT     H165558   0.235   8.706   7.000
21772WAT     H265559   0.231   8.840   6.906
21773WAT      O65560   6.975   3.741   9.414
21773WAT     H165561   7.014   3.686   9.488
21773WAT     H265562   6.922   3.681   9.353
21774WAT      O65563   3.988   3.340   4.560
21774WAT     H165564   4.087   3.324   4.554
21774WAT     H265565   3.940   3.260   4.524
21775WAT      O65566   0.133   5.218   6.470
21775WAT     H165567   0.154   5.122   6.491
21775WAT     H265568   0.061   5.251   6.532
21776WAT      O65569   3.388   7.968   6.257
21776WAT     H165570   3.290   7.972   6.275
21776WAT     H265571   3.407   8.007   6.167
21777WAT      O65572   4.212   4.529   7.198
21777WAT     H165573   4.287   4.518   7.134
21777WAT     H265574   4.131   4.481   7.164
21778WAT      O65575   1.299   9.641   7.090
21778WAT     H165576   1.341   9.727   7.119
21778WAT     H265577   1.367   9.568   7.096
21779WAT      O65578   9.281   3.208   2.769
21779WAT     H165579   9.216   3.200   2.845
21779WAT     H265580   9.334   3.292   2.780
21780WAT      O65581   6.834   6.627   6.268
21780WAT     H165582   6.928   6.594   6.260
21780WAT     H265583   6.835   6.723   6.298
21781WAT      O65584   9.649   2.061   3.940
21781WAT     H165585   9.746   2.078   3.927
21781WAT     H265586   9.603   2.147   3.963
21782WAT      O65587   5.452   1.704   7.676
21782WAT     H165588   5.428   1.788   7.725
21782WAT     H265589   5.383   1.685   7.606
21783WAT      O65590   7.012   2.856   7.225
21783WAT     H165591   7.034   2.830   7.131
21783WAT     H265592   6.957   2.783   7.267
21784WAT      O65593   6.877   9.583   6.875
21784WAT     H165594   6.871   9.675   6.835
21784WAT     H265595   6.872   9.590   6.975
21785WAT      O65596   6.833   8.220   1.900
21785WAT     H165597   6.840   8.236   1.801
21785WAT     H265598   6.744   8.251   1.932
21786WAT      O65599   4.761   8.025   8.286
21786WAT     H165600   4.773   8.043   8.384
21786WAT     H265601   4.800   8.100   8.233
21787WAT      O65602   9.443   5.493   5.995
21787WAT     H165603   9.465   5.421   5.930
21787WAT     H265604   9.449   5.456   6.088
21788WAT      O65605   8.264   6.700   9.547
21788WAT     H165606   8.180   6.693   9.602
21788WAT     H265607   8.252   6.771   9.477
21789WAT      O65608   8.744   3.075   0.696
21789WAT     H165609   8.750   2.997   0.634
21789WAT     H265610   8.771   3.048   0.788
21790WAT      O65611   0.729   3.946   7.425
21790WAT     H165612   0.823   3.928   7.454
21790WAT     H265613   0.714   4.045   7.418
21791WAT      O65614   5.907   6.620   2.827
21791WAT     H165615   5.873   6.636   2.919
21791WAT     H265616   6.006   6.638   2.824
21792WAT      O65617   8.749   7.143   6.795
21792WAT     H165618   8.833   7.159   6.846
21792WAT     H265619   8.769   7.089   6.713
21793WAT      O65620   3.676   8.357   2.518
21793WAT     H165621   3.737   8.317   2.449
21793WAT     H265622   3.581   8.335   2.495
21794WAT      O65623   6.244   5.920   3.106
21794WAT     H165624   6.236   5.833   3.057
21794WAT     H265625   6.226   5.904   3.203
21795WAT      O65626   2.620   9.763   4.418
21795WAT     H165627   2.705   9.711   4.425
21795WAT     H265628   2.611   9.823   4.497
21796WAT      O65629   2.609   9.600   0.686
21796WAT     H165630   2.620   9.554   0.774
21796WAT     H265631   2.556   9.543   0.624
21797WAT      O65632   3.507   4.408   3.539
21797WAT     H165633   3.461   4.458   3.613
21797WAT     H265634   3.515   4.467   3.459
21798WAT      O65635   5.896   1.080   0.011
21798WAT     H165636   5.864   0.995   0.053
21798WAT     H265637   5.988   1.067  -0.025
21799WAT      O65638   2.786   0.009   2.900
21799WAT     H165639   2.726  -0.027   2.829
21799WAT     H265640   2.731   0.042   2.977
21800WAT      O65641   9.817   2.778   3.030
21800WAT     H165642   9.892   2.770   2.964
21800WAT     H265643   9.825   2.864   3.080
21801WAT      O65644   5.963   3.352   6.704
21801WAT     H165645   5.994   3.257   6.713
21801WAT     H265646   6.021   3.400   6.638
21802WAT      O65647   2.387   5.495   5.720
21802WAT     H165648   2.387   5.422   5.788
21802WAT     H265649   2.294   5.533   5.712
21803WAT      O65650   0.473   0.044   9.368
21803WAT     H165651   0.382   0.019   9.400
21803WAT     H265652   0.523  -0.039   9.342
21804WAT      O65653   9.758   3.913   1.390
21804WAT     H165654   9.670   3.866   1.385
21804WAT     H265655   9.825   3.854   1.436
21805WAT      O65656   8.815   3.472   4.914
21805WAT     H165657   8.849   3.562   4.941
21805WAT     H265658   8.718   3.464   4.936
21806WAT      O65659   9.294   4.781   6.068
21806WAT     H165660   9.354   4.860   6.082
21806WAT     H265661   9.200   4.813   6.054
21807WAT      O65662   7.526   9.581   1.900
21807WAT     H165663   7.429   9.585   1.873
21807WAT     H265664   7.581   9.634   1.835
21808WAT      O65665   5.108   6.034   7.080
21808WAT     H165666   5.172   6.108   7.059
21808WAT     H265667   5.143   5.980   7.156
21809WAT      O65668   1.574   0.006   9.639
21809WAT     H165669   1.569   0.080   9.706
21809WAT     H265670   1.657  -0.048   9.655
21810WAT      O65671   5.254   3.014   8.839
21810WAT     H165672   5.177   2.953   8.856
21810WAT     H265673   5.298   2.989   8.753
21811WAT      O65674   0.625   7.039   8.534
21811WAT     H165675   0.662   7.102   8.466
21811WAT     H265676   0.596   6.954   8.489
21812WAT      O65677   6.979   3.839   2.688
21812WAT     H165678   7.057   3.786   2.655
21812WAT     H265679   6.895   3.804   2.647
21813WAT      O65680   3.283   8.228   8.871
21813WAT     H165681   3.190   8.235   8.907
21813WAT     H265682   3.282   8.182   8.782
21814WAT      O65683   5.890   2.796   5.566
21814WAT     H165684   5.897   2.797   5.466
21814WAT     H265685   5.847   2.880   5.598
21815WAT      O65686   7.254   4.676   5.786
21815WAT     H165687   7.161   4.693   5.819
21815WAT     H265688   7.305   4.761   5.785
21816WAT      O65689   4.547   3.363   5.350
21816WAT     H165690   4.572   3.441   5.293
21816WAT     H265691   4.542   3.280   5.295
21817WAT      O65692   1.869   9.424   0.184
21817WAT     H165693   1.939   9.415   0.255
21817WAT     H265694   1.829   9.515   0.187
21818WAT      O65695   8.251   1.970   5.841
21818WAT     H165696   8.305   1.930   5.767
21818WAT     H265697   8.281   1.933   5.928
21819WAT      O65698   8.194   1.973   2.041
21819WAT     H165699   8.126   1.900   2.044
21819WAT     H265700   8.207   2.010   2.133
21820WAT      O65701   8.947   4.441   1.607
21820WAT     H165702   8.993   4.398   1.529
21820WAT     H265703   8.967   4.539   1.607
21821WAT      O65704   7.657   5.038   4.104
21821WAT     H165705   7.634   4.990   4.019
21821WAT     H265706   7.585   5.021   4.171
21822WAT      O65707   5.479   5.830   1.112
21822WAT     H165708   5.391   5.869   1.142
21822WAT     H265709   5.472   5.802   1.016
21823WAT      O65710   4.362   4.701   0.691
21823WAT     H165711   4.336   4.794   0.665
21823WAT     H265712   4.428   4.704   0.766
21824WAT      O65713   2.530   7.440   1.748
21824WAT     H165714   2.624   7.411   1.766
21824WAT     H265715   2.512   7.526   1.797
21825WAT      O65716   9.130   6.302   7.542
21825WAT     H165717   9.130   6.318   7.443
21825WAT     H265718   9.144   6.204   7.560
21826WAT      O65719   8.423   1.599   4.187
21826WAT     H165720   8.465   1.651   4.261
21826WAT     H265721   8.391   1.662   4.116
21827WAT      O65722   6.083   7.572   0.624
21827WAT     H165723   6.035   7.562   0.536
21827WAT     H265724   6.148   7.497   0.635
21828WAT      O65725   7.271   5.413   3.498
21828WAT     H165726   7.221   5.491   3.535
21828WAT     H265727   7.310   5.437   3.409
21829WAT      O65728   1.152   0.479   5.177
21829WAT     H165729   1.059   0.445   5.186
21829WAT     H265730   1.150   0.577   5.157
21830WAT      O65731   8.603   1.928   8.870
21830WAT     H165732   8.531   1.913   8.938
21830WAT     H265733   8.562   1.946   8.781
21831WAT      O65734   7.321   7.172   1.129
21831WAT     H165735   7.262   7.208   1.057
21831WAT     H265736   7.264   7.141   1.205
21832WAT      O65737   3.488   3.068   6.749
21832WAT     H165738   3.531   3.149   6.710
21832WAT     H265739   3.551   3.025   6.814
21833WAT      O65740   0.281   0.700   3.539
21833WAT     H165741   0.353   0.671   3.602
21833WAT     H265742   0.321   0.747   3.460
21834WAT      O65743   6.512   2.003   5.794
21834WAT     H165744   6.417   2.032   5.779
21834WAT     H265745   6.525   1.984   5.892
21835WAT      O65746   0.725   2.195   2.822
21835WAT     H165747   0.692   2.120   2.879
21835WAT     H265748   0.702   2.282   2.866
21836WAT      O65749   4.888   7.051   1.526
21836WAT     H165750   4.796   7.019   1.547
21836WAT     H265751   4.955   6.989   1.568
21837WAT      O65752   7.501   4.207   7.053
21837WAT     H165753   7.506   4.246   7.145
21837WAT     H265754   7.571   4.137   7.043
21838WAT      O65755   8.297   6.633   2.007
21838WAT     H165756   8.315   6.535   2.011
21838WAT     H265757   8.314   6.675   2.096
21839WAT      O65758   2.462   4.778   6.456
21839WAT     H165759   2.468   4.867   6.501
21839WAT     H265760   2.401   4.718   6.509
21840WAT      O65761   6.229   9.128   9.795
21840WAT     H165762   6.158   9.176   9.744
21840WAT     H265763   6.295   9.089   9.731
21841WAT      O65764   4.024   6.911   6.303
21841WAT     H165765   4.122   6.916   6.322
21841WAT     H265766   3.983   6.837   6.357
21842WAT      O65767   8.864   6.003   2.134
21842WAT     H165768   8.921   5.940   2.081
21842WAT     H265769   8.855   6.090   2.085
21843WAT      O65770   2.725   5.546   8.851
21843WAT     H165771   2.727   5.446   8.844
21843WAT     H265772   2.817   5.582   8.836
21844WAT      O65773   4.117   3.093   2.591
21844WAT     H165774   4.171   3.018   2.630
21844WAT     H265775   4.087   3.155   2.663
21845WAT      O65776   3.103   6.943   8.732
21845WAT     H165777   3.158   6.860   8.725
21845WAT     H265778   3.055   6.943   8.820
21846WAT      O65779   8.540   6.122   6.079
21846WAT     H165780   8.554   6.218   6.104
21846WAT     H265781   8.618   6.090   6.025
21847WAT      O65782   7.651   1.777   4.175
21847WAT     H165783   7.685   1.869   4.156
21847WAT     H265784   7.551   1.780   4.182
21848WAT      O65785   8.821   4.281   7.626
21848WAT     H165786   8.831   4.344   7.702
21848WAT     H265787   8.832   4.331   7.540
21849WAT      O65788   8.159   5.328   6.128
21849WAT     H165789   8.153   5.317   6.029
21849WAT     H265790   8.068   5.340   6.167
21850WAT      O65791   7.634   3.176   3.699
21850WAT     H165792   7.658   3.116   3.775
21850WAT     H265793   7.578   3.252   3.733
21851WAT      O65794   6.074   5.747   2.200
21851WAT     H165795   6.039   5.685   2.129
21851WAT     H265796   6.154   5.795   2.166
21852WAT      O65797   8.425   7.672   5.557
21852WAT     H165798   8.524   7.660   5.547
21852WAT     H265799   8.389   7.605   5.620
21853WAT      O65800   5.914   1.401   9.805
21853WAT     H165801   5.996   1.349   9.781
21853WAT     H265802   5.837   1.338   9.818
21854WAT      O65803   9.078   1.349   3.910
21854WAT     H165804   9.114   1.300   3.990
21854WAT     H265805   9.002   1.297   3.871
21855WAT      O65806   3.489   1.726   9.120
21855WAT     H165807   3.526   1.678   9.199
21855WAT     H265808   3.474   1.662   9.045
21856WAT      O65809   7.233   6.902   4.357
21856WAT     H165810   7.292   6.838   4.407
21856WAT     H265811   7.139   6.867   4.356
21857WAT      O65812   2.313   6.502   0.699
21857WAT     H165813   2.324   6.538   0.792
21857WAT     H265814   2.285   6.576   0.638
21858WAT      O65815   9.778   6.912   7.111
21858WAT     H165816   9.796   6.992   7.168
21858WAT     H265817   9.709   6.855   7.155
21859WAT      O65818   5.697   7.549   4.828
21859WAT     H165819   5.608   7.587   4.855
21859WAT     H265820   5.761   7.624   4.812
21860WAT      O65821   1.914   3.989   1.610
21860WAT     H165822   1.904   3.980   1.709
21860WAT     H265823   1.944   3.903   1.570
21861WAT      O65824   2.230   7.556   0.078
21861WAT     H165825   2.188   7.645   0.100
21861WAT     H265826   2.306   7.570   0.015
21862WAT      O65827   0.345   4.604   1.925
21862WAT     H165828   0.261   4.655   1.911
21862WAT     H265829   0.371   4.558   1.839
21863WAT      O65830   8.704   5.606   4.111
21863WAT     H165831   8.642   5.591   4.034
21863WAT     H265832   8.681   5.544   4.186
21864WAT      O65833   0.372   5.350   9.310
21864WAT     H165834   0.437   5.276   9.328
21864WAT     H265835   0.279   5.312   9.306
21865WAT      O65836   9.147   5.097   5.801
21865WAT     H165837   9.117   5.002   5.799
21865WAT     H265838   9.184   5.118   5.892
21866WAT      O65839   3.507   6.371   2.886
21866WAT     H165840   3.524   6.318   2.802
21866WAT     H265841   3.412   6.358   2.915
21867WAT      O65842   8.602   9.409   0.669
21867WAT     H165843   8.689   9.391   0.714
21867WAT     H265844   8.531   9.353   0.712
21868WAT      O65845   5.243   2.785   8.271
21868WAT     H165846   5.197   2.730   8.340
21868WAT     H265847   5.176   2.842   8.223
21869WAT      O65848   9.776   0.107   7.208
21869WAT     H165849   9.867   0.082   7.174
21869WAT     H265850   9.741   0.034   7.267
21870WAT      O65851   2.084   2.431   9.096
21870WAT     H165852   2.137   2.354   9.059
21870WAT     H265853   2.092   2.510   9.035
21871WAT      O65854   4.750   5.416   4.586
21871WAT     H165855   4.812   5.339   4.601
21871WAT     H265856   4.679   5.389   4.520
21872WAT      O65857   3.717   1.186   3.736
21872WAT     H165858   3.629   1.148   3.708
21872WAT     H265859   3.787   1.160   3.669
21873WAT      O65860   3.473   1.685   4.749
21873WAT     H165861   3.501   1.773   4.710
21873WAT     H265862   3.554   1.633   4.775
21874WAT      O65863   0.504   0.504   6.325
21874WAT     H165864   0.478   0.486   6.420
21874WAT     H265865   0.433   0.470   6.264
21875WAT      O65866   2.703   4.049   9.006
21875WAT     H165867   2.608   4.041   9.035
21875WAT     H265868   2.715   4.004   8.918
21876WAT      O65869   2.137   2.283   5.560
21876WAT     H165870   2.136   2.382   5.551
21876WAT     H265871   2.067   2.243   5.501
21877WAT      O65872   5.048   3.014   7.556
21877WAT     H165873   5.139   3.029   7.593
21877WAT     H265874   5.033   2.916   7.542
21878WAT      O65875   2.260   0.486   7.152
21878WAT     H165876   2.205   0.499   7.234
21878WAT     H265877   2.201   0.464   7.074
21879WAT      O65878   0.272   1.600   1.008
21879WAT     H165879   0.196   1.641   1.058
21879WAT     H265880   0.236   1.538   0.938
21880WAT      O65881   2.843   2.339   0.791
21880WAT     H165882   2.896   2.349   0.706
21880WAT     H265883   2.754   2.383   0.779
21881WAT      O65884   6.875   0.672   0.565
21881WAT     H165885   6.801   0.641   0.505
21881WAT     H265886   6.936   0.595   0.585
21882WAT      O65887   7.156   8.356   1.004
21882WAT     H165888   7.251   8.338   0.976
21882WAT     H265889   7.156   8.406   1.090
21883WAT      O65890   8.093   1.954   2.466
21883WAT     H165891   8.083   2.002   2.553
21883WAT     H265892   8.162   1.999   2.410
21884WAT      O65893   2.614   8.152   7.226
21884WAT     H165894   2.545   8.148   7.154
21884WAT     H265895   2.583   8.213   7.299
21885WAT      O65896   1.387   9.155   7.134
21885WAT     H165897   1.287   9.153   7.136
21885WAT     H265898   1.422   9.112   7.217
21886WAT      O65899   2.274   0.964   4.131
21886WAT     H165900   2.263   0.993   4.226
21886WAT     H265901   2.184   0.946   4.091
21887WAT      O65902   2.690   3.739   7.887
21887WAT     H165903   2.775   3.789   7.903
21887WAT     H265904   2.680   3.668   7.957
21888WAT      O65905   2.877   6.042   0.475
21888WAT     H165906   2.938   6.056   0.553
21888WAT     H265907   2.800   5.984   0.502
21889WAT      O65908   3.194   0.427   2.137
21889WAT     H165909   3.187   0.523   2.163
21889WAT     H265910   3.193   0.370   2.220
21890WAT      O65911   2.338   5.740   6.893
21890WAT     H165912   2.407   5.678   6.857
21890WAT     H265913   2.310   5.709   6.985
21891WAT      O65914   2.710   3.006   7.551
21891WAT     H165915   2.704   3.001   7.650
21891WAT     H265916   2.804   2.990   7.522
21892WAT      O65917   1.669   2.630   6.359
21892WAT     H165918   1.683   2.718   6.314
21892WAT     H265919   1.595   2.580   6.314
21893WAT      O65920   7.781   7.874   2.612
21893WAT     H165921   7.873   7.863   2.648
21893WAT     H265922   7.744   7.963   2.640
21894WAT      O65923   5.411   7.711   5.454
21894WAT     H165924   5.472   7.767   5.398
21894WAT     H265925   5.462   7.671   5.530
21895WAT      O65926   2.587   7.227   8.915
21895WAT     H165927   2.657   7.168   8.955
21895WAT     H265928   2.631   7.298   8.860
21896WAT      O65929   5.169   3.429   6.397
21896WAT     H165930   5.221   3.379   6.329
21896WAT     H265931   5.153   3.523   6.366
21897WAT      O65932   4.555   8.108   4.623
21897WAT     H165933   4.634   8.047   4.614
21897WAT     H265934   4.582   8.202   4.605
21898WAT      O65935   1.323   4.622   9.596
21898WAT     H165936   1.272   4.597   9.513
21898WAT     H265937   1.271   4.593   9.677
21899WAT      O65938   8.084   6.512   2.672
21899WAT     H165939   8.029   6.441   2.714
21899WAT     H265940   8.047   6.602   2.695
21900WAT      O65941   9.853   9.372   1.436
21900WAT     H165942   9.818   9.462   1.410
21900WAT     H265943   9.789   9.328   1.499
21901WAT      O65944   8.517   9.151   1.331
21901WAT     H165945   8.542   9.212   1.406
21901WAT     H265946   8.439   9.190   1.281
21902WAT      O65947   5.225   9.694   7.050
21902WAT     H165948   5.180   9.783   7.050
21902WAT     H265949   5.313   9.701   7.002
21903WAT      O65950   1.672   9.432   8.494
21903WAT     H165951   1.640   9.437   8.589
21903WAT     H265952   1.673   9.524   8.454
21904WAT      O65953   0.519   5.795   0.910
21904WAT     H165954   0.526   5.828   0.816
21904WAT     H265955   0.441   5.733   0.918
21905WAT      O65956   3.438   0.223   0.691
21905WAT     H165957   3.402   0.159   0.758
21905WAT     H265958   3.373   0.232   0.615
21906WAT      O65959   7.482   7.907   2.136
21906WAT     H165960   7.424   7.833   2.102
21906WAT     H265961   7.545   7.871   2.205
21907WAT      O65962   6.825   8.515   6.969
21907WAT     H165963   6.755   8.552   7.030
21907WAT     H265964   6.852   8.424   7.000
21908WAT      O65965   5.476   3.178   9.324
21908WAT     H165966   5.446   3.123   9.246
21908WAT     H265967   5.509   3.118   9.397
21909WAT      O65968   5.383   9.187   7.264
21909WAT     H165969   5.423   9.120   7.328
21909WAT     H265970   5.447   9.205   7.190
21910WAT      O65971   6.058   5.516   7.378
21910WAT     H165972   5.979   5.578   7.373
21910WAT     H265973   6.141   5.570   7.395
21911WAT      O65974   1.491   4.306   1.605
21911WAT     H165975   1.415   4.280   1.664
21911WAT     H265976   1.489   4.405   1.590
21912WAT      O65977   5.929   9.303   9.358
21912WAT     H165978   5.886   9.324   9.270
21912WAT     H265979   5.870   9.336   9.432
21913WAT      O65980   4.213   0.008   8.602
21913WAT     H165981   4.182   0.093   8.646
21913WAT     H265982   4.251  -0.054   8.670
21914WAT      O65983   5.347   7.113   5.468
21914WAT     H165984   5.352   7.203   5.425
21914WAT     H265985   5.433   7.094   5.516
21915WAT      O65986   5.120   0.332   0.201
21915WAT     H165987   5.147   0.302   0.110
21915WAT     H265988   5.021   0.341   0.206
21916WAT      O65989   2.932   9.162   4.342
21916WAT     H165990   2.913   9.104   4.421
21916WAT     H265991   2.870   9.240   4.341
21917WAT      O65992   2.678   4.258   6.768
21917WAT     H165993   2.632   4.237   6.855
21917WAT     H265994   2.724   4.346   6.775
21918WAT      O65995   1.661   5.086   5.544
21918WAT     H165996   1.719   5.151   5.593
21918WAT     H265997   1.706   4.996   5.543
21919WAT      O65998   3.663   5.290   5.803
21919WAT     H165999   3.645   5.354   5.729
21919WAT     H266000   3.753   5.247   5.789
21920WAT      O66001   3.487   6.635   0.387
21920WAT     H166002   3.430   6.564   0.345
21920WAT     H266003   3.495   6.713   0.324
21921WAT      O66004   2.944   0.763   8.812
21921WAT     H166005   3.040   0.774   8.786
21921WAT     H266006   2.885   0.803   8.742
21922WAT      O66007   8.940   0.439   2.995
21922WAT     H166008   8.979   0.349   3.011
21922WAT     H266009   9.012   0.508   3.001
21923WAT      O66010   7.907   5.628   9.325
21923WAT     H166011   7.841   5.583   9.265
21923WAT     H266012   7.929   5.568   9.402
21924WAT      O66013   6.909   0.597   1.683
21924WAT     H166014   6.984   0.618   1.745
21924WAT     H266015   6.829   0.566   1.735
21925WAT      O66016   1.010   1.856   6.494
21925WAT     H166017   1.008   1.773   6.438
21925WAT     H266018   1.053   1.836   6.582
21926WAT      O66019   0.627   0.015   0.119
21926WAT     H166020   0.711   0.018   0.064
21926WAT     H266021   0.609  -0.080   0.146
21927WAT      O66022   4.734   3.298   6.356
21927WAT     H166023   4.637   3.323   6.346
21927WAT     H266024   4.789   3.353   6.293
21928WAT      O66025   2.266   1.246   5.446
21928WAT     H166026   2.253   1.333   5.493
21928WAT     H266027   2.194   1.182   5.472
21929WAT      O66028   5.746   9.213   3.592
21929WAT     H166029   5.649   9.207   3.615
21929WAT     H266030   5.796   9.138   3.636
21930WAT      O66031   2.017   0.758   4.639
21930WAT     H166032   2.054   0.755   4.546
21930WAT     H266033   1.930   0.709   4.642
21931WAT      O66034   4.939   6.999   8.736
21931WAT     H166035   4.857   7.045   8.700
21931WAT     H266036   4.916   6.905   8.759
21932WAT      O66037   6.076   9.242   4.709
21932WAT     H166038   6.120   9.284   4.629
21932WAT     H266039   6.143   9.229   4.782
21933WAT      O66040   9.764   1.581   1.542
21933WAT     H166041   9.720   1.613   1.458
21933WAT     H266042   9.808   1.493   1.524
21934WAT      O66043   3.439   5.334   7.941
21934WAT     H166044   3.526   5.346   7.892
21934WAT     H266045   3.457   5.337   8.040
21935WAT      O66046   0.319   6.134   8.252
21935WAT     H166047   0.296   6.176   8.340
21935WAT     H266048   0.394   6.069   8.265
21936WAT      O66049   9.710   6.521   0.311
21936WAT     H166050   9.698   6.456   0.237
21936WAT     H266051   9.799   6.567   0.301
21937WAT      O66052   1.013   5.113   4.618
21937WAT     H166053   1.074   5.049   4.665
21937WAT     H266054   1.033   5.113   4.520
21938WAT      O66055   0.130   2.103   4.962
21938WAT     H166056   0.187   2.173   4.919
21938WAT     H266057   0.054   2.148   5.009
21939WAT      O66058   9.181   6.559   5.517
21939WAT     H166059   9.160   6.613   5.598
21939WAT     H266060   9.263   6.595   5.473
21940WAT      O66061   8.294   1.127   1.699
21940WAT     H166062   8.278   1.104   1.603
21940WAT     H266063   8.387   1.103   1.724
21941WAT      O66064   0.930   6.520   5.725
21941WAT     H166065   0.843   6.569   5.719
21941WAT     H266066   0.960   6.518   5.820
21942WAT      O66067   0.645   7.203   7.389
21942WAT     H166068   0.643   7.121   7.331
21942WAT     H266069   0.689   7.181   7.476
21943WAT      O66070   5.231   6.478   6.897
21943WAT     H166071   5.287   6.419   6.955
21943WAT     H266072   5.146   6.432   6.875
21944WAT      O66073   1.104   8.240   9.656
21944WAT     H166074   1.132   8.208   9.747
21944WAT     H266075   1.089   8.339   9.658
21945WAT      O66076   5.871   9.740   7.492
21945WAT     H166077   5.899   9.656   7.539
21945WAT     H266078   5.922   9.817   7.529
21946WAT      O66079   8.589   2.432   9.262
21946WAT     H166080   8.533   2.449   9.181
21946WAT     H266081   8.543   2.468   9.343
21947WAT      O66082   4.474   5.181   8.529
21947WAT     H166083   4.386   5.159   8.487
21947WAT     H266084   4.500   5.274   8.504
21948WAT      O66085   4.690   9.126   6.155
21948WAT     H166086   4.710   9.220   6.127
21948WAT     H266087   4.719   9.062   6.084
21949WAT      O66088   8.265   8.416   8.539
21949WAT     H166089   8.287   8.351   8.466
21949WAT     H266090   8.334   8.408   8.611
21950WAT      O66091   7.491   7.763   0.301
21950WAT     H166092   7.580   7.749   0.345
21950WAT     H266093   7.418   7.730   0.361
21951WAT      O66094   3.848   0.110   3.897
21951WAT     H166095   3.877   0.017   3.920
21951WAT     H266096   3.763   0.108   3.846
21952WAT      O66097   4.050   9.013   4.191
21952WAT     H166098   4.125   8.983   4.132
21952WAT     H266099   4.004   9.091   4.148
21953WAT      O66100   2.646   9.694   2.714
21953WAT     H166101   2.558   9.674   2.671
21953WAT     H266102   2.718   9.694   2.644
21954WAT      O66103   0.984   2.467   4.134
21954WAT     H166104   0.980   2.553   4.083
21954WAT     H266105   1.079   2.446   4.156
21955WAT      O66106   7.117   6.838   6.688
21955WAT     H166107   7.195   6.834   6.750
21955WAT     H266108   7.123   6.762   6.623
21956WAT      O66109   8.040   0.611   0.041
21956WAT     H166110   8.050   0.548   0.118
21956WAT     H266111   7.979   0.571  -0.027
21957WAT      O66112   8.234   4.926   1.980
21957WAT     H166113   8.204   4.989   2.052
21957WAT     H266114   8.153   4.891   1.931
21958WAT      O66115   4.429   0.192   8.967
21958WAT     H166116   4.510   0.136   8.982
21958WAT     H266117   4.348   0.133   8.959
21959WAT      O66118   7.407   6.172   1.228
21959WAT     H166119   7.344   6.107   1.271
21959WAT     H266120   7.438   6.238   1.296
21960WAT      O66121   8.545   1.500   0.316
21960WAT     H166122   8.614   1.504   0.389
21960WAT     H266123   8.457   1.530   0.352
21961WAT      O66124   8.531   4.915   1.998
21961WAT     H166125   8.474   4.870   1.930
21961WAT     H266126   8.595   4.976   1.953
21962WAT      O66127   2.370   1.602   7.478
21962WAT     H166128   2.319   1.664   7.419
21962WAT     H266129   2.384   1.644   7.567
21963WAT      O66130   0.351   1.130   6.921
21963WAT     H166131   0.414   1.063   6.961
21963WAT     H266132   0.392   1.221   6.924
21964WAT      O66133   3.354   1.912   0.805
21964WAT     H166134   3.360   1.999   0.854
21964WAT     H266135   3.442   1.864   0.812
21965WAT      O66136   4.691   4.292   2.519
21965WAT     H166137   4.767   4.331   2.466
21965WAT     H266138   4.646   4.365   2.570
21966WAT      O66139   6.879   8.577   5.449
21966WAT     H166140   6.923   8.544   5.533
21966WAT     H266141   6.917   8.528   5.370
21967WAT      O66142   0.670   1.607   4.699
21967WAT     H166143   0.709   1.517   4.717
21967WAT     H266144   0.570   1.601   4.698
21968WAT      O66145   4.250   3.334   4.497
21968WAT     H166146   4.316   3.335   4.421
21968WAT     H266147   4.286   3.390   4.572
21969WAT      O66148   8.994   7.544   9.027
21969WAT     H166149   8.976   7.569   9.122
21969WAT     H266150   8.953   7.455   9.007
21970WAT      O66151   8.655   6.588   9.018
21970WAT     H166152   8.674   6.647   9.096
21970WAT     H266153   8.631   6.496   9.051
21971WAT      O66154   7.769   2.456   5.206
21971WAT     H166155   7.701   2.425   5.140
21971WAT     H266156   7.752   2.551   5.230
21972WAT      O66157   1.461   1.607   6.857
21972WAT     H166158   1.429   1.514   6.874
21972WAT     H266159   1.529   1.606   6.783
21973WAT      O66160   9.364   5.042   8.785
21973WAT     H166161   9.405   5.125   8.747
21973WAT     H266162   9.269   5.060   8.809
21974WAT      O66163   2.762   7.328   7.034
21974WAT     H166164   2.819   7.390   6.981
21974WAT     H266165   2.701   7.278   6.973
21975WAT      O66166   6.015   7.946   9.165
21975WAT     H166167   5.918   7.927   9.183
21975WAT     H266168   6.038   8.037   9.197
21976WAT      O66169   0.811   8.489   2.198
21976WAT     H166170   0.868   8.489   2.280
21976WAT     H266171   0.731   8.430   2.213
21977WAT      O66172   6.174   6.590   0.738
21977WAT     H166173   6.138   6.515   0.683
21977WAT     H266174   6.138   6.583   0.831
21978WAT      O66175   3.238   6.886   3.862
21978WAT     H166176   3.290   6.838   3.932
21978WAT     H266177   3.291   6.964   3.828
21979WAT      O66178   3.290   7.478   8.973
21979WAT     H166179   3.333   7.401   9.021
21979WAT     H266180   3.339   7.563   8.995
21980WAT      O66181   9.798   6.290   8.315
21980WAT     H166182   9.833   6.202   8.349
21980WAT     H266183   9.700   6.294   8.330
21981WAT      O66184   9.856   4.680   8.872
21981WAT     H166185   9.936   4.645   8.823
21981WAT     H266186   9.773   4.655   8.822
21982WAT      O66187   0.337   9.669   8.387
21982WAT     H166188   0.336   9.572   8.365
21982WAT     H266189   0.291   9.685   8.474
21983WAT      O66190   4.074   5.174   0.641
21983WAT     H166191   4.136   5.247   0.670
21983WAT     H266192   4.088   5.155   0.544
21984WAT      O66193   6.292   0.565   5.076
21984WAT     H166194   6.249   0.633   5.017
21984WAT     H266195   6.378   0.601   5.112
21985WAT      O66196   3.336   4.270   5.344
21985WAT     H166197   3.427   4.288   5.305
21985WAT     H266198   3.266   4.290   5.277
21986WAT      O66199   3.237   8.374   0.576
21986WAT     H166200   3.155   8.355   0.631
21986WAT     H266201   3.293   8.291   0.571
21987WAT      O66202   1.672   7.476   3.236
21987WAT     H166203   1.593   7.487   3.176
21987WAT     H266204   1.756   7.487   3.183
21988WAT      O66205   8.549   3.961   9.386
21988WAT     H166206   8.622   3.924   9.328
21988WAT     H266207   8.569   3.943   9.482
21989WAT      O66208   0.518   9.462   9.049
21989WAT     H166209   0.614   9.450   9.022
21989WAT     H266210   0.475   9.373   9.062
21990WAT      O66211   4.425   7.521   0.079
21990WAT     H166212   4.385   7.470   0.154
21990WAT     H266213   4.377   7.608   0.068
21991WAT      O66214   3.881   6.039   3.332
21991WAT     H166215   3.801   6.017   3.388
21991WAT     H266216   3.871   6.132   3.296
21992WAT      O66217   2.621   1.215   0.719
21992WAT     H166218   2.615   1.240   0.815
21992WAT     H266219   2.569   1.131   0.703
21993WAT      O66220   5.888   5.742   7.489
21993WAT     H166221   5.812   5.706   7.543
21993WAT     H266222   5.972   5.741   7.545
21994WAT      O66223   7.456   0.464   7.729
21994WAT     H166224   7.450   0.526   7.650
21994WAT     H266225   7.389   0.491   7.798
21995WAT      O66226   3.662   5.751   3.468
21995WAT     H166227   3.692   5.845   3.487
21995WAT     H266228   3.571   5.752   3.428
21996WAT      O66229   4.433   0.296   1.072
21996WAT     H166230   4.422   0.206   1.115
21996WAT     H266231   4.346   0.324   1.031
21997WAT      O66232   0.375   2.355   6.661
21997WAT     H166233   0.399   2.263   6.631
21997WAT     H266234   0.432   2.422   6.614
21998WAT      O66235   2.034   6.391   8.760
21998WAT     H166236   2.117   6.393   8.704
21998WAT     H266237   2.041   6.460   8.832
21999WAT      O66238   6.253   5.636   0.531
21999WAT     H166239   6.349   5.609   0.530
21999WAT     H266240   6.229   5.678   0.443
22000WAT      O66241   3.882   3.950   6.932
22000WAT     H166242   3.850   4.001   6.853
22000WAT     H266243   3.816   3.958   7.007
22001WAT      O66244   7.349   0.577   6.807
22001WAT     H166245   7.419   0.506   6.793
22001WAT     H266246   7.381   0.641   6.878
22002WAT      O66247   2.306   4.620   3.169
22002WAT     H166248   2.386   4.591   3.116
22002WAT     H266249   2.249   4.680   3.113
22003WAT      O66250   2.453   4.226   4.325
22003WAT     H166251   2.445   4.324   4.308
22003WAT     H266252   2.450   4.177   4.237
22004WAT      O66253   1.033   7.093   9.565
22004WAT     H166254   0.938   7.096   9.595
22004WAT     H266255   1.042   7.027   9.490
22005WAT      O66256   1.291   3.159   0.221
22005WAT     H166257   1.364   3.113   0.170
22005WAT     H266258   1.233   3.091   0.265
22006WAT      O66259   8.538   1.904   4.703
22006WAT     H166260   8.528   1.906   4.802
22006WAT     H266261   8.459   1.947   4.660
22007WAT      O66262   7.104   2.958   1.592
22007WAT     H166263   7.155   2.992   1.513
22007WAT     H266264   7.011   2.997   1.592
22008WAT      O66265   1.827   6.506   4.598
22008WAT     H166266   1.851   6.506   4.695
22008WAT     H266267   1.910   6.500   4.543
22009WAT      O66268   2.432   1.259   0.450
22009WAT     H166269   2.460   1.293   0.360
22009WAT     H266270   2.455   1.326   0.520
22010WAT      O66271   7.301   4.264   5.860
22010WAT     H166272   7.214   4.311   5.881
22010WAT     H266273   7.373   4.332   5.847
22011WAT      O66274   8.353   7.171   9.709
22011WAT     H166275   8.337   7.099   9.641
22011WAT     H266276   8.423   7.234   9.674
22012WAT      O66277   8.357   5.225   1.401
22012WAT     H166278   8.348   5.172   1.317
22012WAT     H266279   8.342   5.166   1.480
22013WAT      O66280   0.539   6.118   9.077
22013WAT     H166281   0.580   6.197   9.030
22013WAT     H266282   0.609   6.074   9.134
22014WAT      O66283   8.788   0.149   1.460
22014WAT     H166284   8.789   0.248   1.476
22014WAT     H266285   8.864   0.107   1.509
22015WAT      O66286   1.871   2.258   6.655
22015WAT     H166287   1.847   2.313   6.575
22015WAT     H266288   1.951   2.202   6.634
22016WAT      O66289   5.920   4.550   6.515
22016WAT     H166290   5.957   4.503   6.595
22016WAT     H266291   5.953   4.644   6.513
22017WAT      O66292   6.964   6.319   2.360
22017WAT     H166293   6.908   6.242   2.329
22017WAT     H266294   7.038   6.285   2.419
22018WAT      O66295   6.667   4.910   7.310
22018WAT     H166296   6.683   4.817   7.279
22018WAT     H266297   6.750   4.965   7.295
22019WAT      O66298   6.306   8.443   4.536
22019WAT     H166299   6.342   8.481   4.621
22019WAT     H266300   6.236   8.375   4.557
22020WAT      O66301   5.901   0.954   2.633
22020WAT     H166302   5.838   0.890   2.588
22020WAT     H266303   5.959   0.997   2.564
22021WAT      O66304   1.520   6.514   4.924
22021WAT     H166305   1.529   6.547   4.831
22021WAT     H266306   1.446   6.446   4.928
22022WAT      O66307   7.598   0.749   3.264
22022WAT     H166308   7.636   0.837   3.233
22022WAT     H266309   7.636   0.725   3.353
22023WAT      O66310   0.686   0.640   3.122
22023WAT     H166311   0.670   0.543   3.107
22023WAT     H266312   0.775   0.666   3.084
22024WAT      O66313   2.066   5.325   2.627
22024WAT     H166314   2.100   5.313   2.534
22024WAT     H266315   2.082   5.420   2.656
22025WAT      O66316   0.268   2.990   8.271
22025WAT     H166317   0.303   2.988   8.177
22025WAT     H266318   0.325   2.932   8.329
22026WAT      O66319   8.366   9.762   1.393
22026WAT     H166320   8.367   9.674   1.345
22026WAT     H266321   8.455   9.777   1.437
22027WAT      O66322   1.642   3.132   1.256
22027WAT     H166323   1.602   3.042   1.241
22027WAT     H266324   1.699   3.156   1.177
22028WAT      O66325   2.669   9.052   2.404
22028WAT     H166326   2.720   9.007   2.331
22028WAT     H266327   2.587   8.998   2.426
22029WAT      O66328   2.752   4.216   2.136
22029WAT     H166329   2.709   4.129   2.114
22029WAT     H266330   2.714   4.288   2.078
22030WAT      O66331   6.395   9.542   6.695
22030WAT     H166332   6.370   9.521   6.790
22030WAT     H266333   6.366   9.635   6.673
22031WAT      O66334   3.407   7.154   7.097
22031WAT     H166335   3.455   7.236   7.064
22031WAT     H266336   3.371   7.172   7.188
22032WAT      O66337   6.616   6.202   4.068
22032WAT     H166338   6.556   6.124   4.082
22032WAT     H266339   6.711   6.174   4.079
22033WAT      O66340   9.841   1.032   5.728
22033WAT     H166341   9.934   1.062   5.749
22033WAT     H266342   9.843   0.938   5.693
22034WAT      O66343   1.281   5.458   7.837
22034WAT     H166344   1.381   5.456   7.845
22034WAT     H266345   1.241   5.464   7.929
22035WAT      O66346   5.263   6.725   5.616
22035WAT     H166347   5.237   6.690   5.526
22035WAT     H266348   5.180   6.749   5.668
22036WAT      O66349   2.078   5.984   0.773
22036WAT     H166350   2.132   6.020   0.697
22036WAT     H266351   2.066   6.056   0.842
22037WAT      O66352   5.367   4.167   3.886
22037WAT     H166353   5.389   4.126   3.975
22037WAT     H266354   5.412   4.256   3.879
22038WAT      O66355   7.575   3.333   9.509
22038WAT     H166356   7.529   3.381   9.434
22038WAT     H266357   7.637   3.264   9.470
22039WAT      O66358   7.645   8.485   6.650
22039WAT     H166359   7.709   8.561   6.647
22039WAT     H266360   7.685   8.405   6.606
22040WAT      O66361   2.580   1.463   9.696
22040WAT     H166362   2.663   1.518   9.709
22040WAT     H266363   2.505   1.522   9.667
22041WAT      O66364   8.174   9.678   3.296
22041WAT     H166365   8.204   9.658   3.389
22041WAT     H266366   8.199   9.601   3.236
22042WAT      O66367   3.591   1.048   0.412
22042WAT     H166368   3.523   0.975   0.406
22042WAT     H266369   3.638   1.058   0.325
22043WAT      O66370   6.957   5.813   0.711
22043WAT     H166371   6.982   5.717   0.700
22043WAT     H266372   7.038   5.865   0.739
22044WAT      O66373   0.579   3.735   0.201
22044WAT     H166374   0.673   3.762   0.221
22044WAT     H266375   0.579   3.666   0.129
22045WAT      O66376   0.098   1.164   2.479
22045WAT     H166377   0.085   1.114   2.564
22045WAT     H266378   0.113   1.261   2.499
22046WAT      O66379   3.157   0.270   7.726
22046WAT     H166380   3.222   0.297   7.796
22046WAT     H266381   3.206   0.242   7.643
22047WAT      O66382   4.838   7.460   9.203
22047WAT     H166383   4.850   7.519   9.123
22047WAT     H266384   4.788   7.510   9.274
22048WAT      O66385   4.348   8.387   2.332
22048WAT     H166386   4.431   8.424   2.290
22048WAT     H266387   4.371   8.342   2.418
22049WAT      O66388   9.165   7.034   2.572
22049WAT     H166389   9.177   6.967   2.499
22049WAT     H266390   9.154   7.125   2.532
22050WAT      O66391   2.764   9.705   5.229
22050WAT     H166392   2.675   9.680   5.191
22050WAT     H266393   2.833   9.704   5.157
22051WAT      O66394   5.038   1.757   0.842
22051WAT     H166395   5.041   1.678   0.903
22051WAT     H266396   4.943   1.787   0.830
22052WAT      O66397   8.012   8.475   8.480
22052WAT     H166398   7.948   8.437   8.546
22052WAT     H266399   8.093   8.416   8.474
22053WAT      O66400   1.901   2.924   2.440
22053WAT     H166401   1.817   2.943   2.389
22053WAT     H266402   1.886   2.846   2.501
22054WAT      O66403   8.672   9.059   8.432
22054WAT     H166404   8.741   9.132   8.427
22054WAT     H266405   8.671   9.008   8.347
22055WAT      O66406   4.129   5.169   4.396
22055WAT     H166407   4.161   5.213   4.312
22055WAT     H266408   4.029   5.172   4.399
22056WAT      O66409   0.699   5.453   2.130
22056WAT     H166410   0.708   5.438   2.229
22056WAT     H266411   0.784   5.424   2.085
22057WAT      O66412   2.433   1.359   9.484
22057WAT     H166413   2.496   1.384   9.558
22057WAT     H266414   2.433   1.259   9.473
22058WAT      O66415   7.948   8.346   5.501
22058WAT     H166416   7.982   8.439   5.519
22058WAT     H266417   7.874   8.325   5.565
22059WAT      O66418   4.446   7.143   7.893
22059WAT     H166419   4.536   7.178   7.916
22059WAT     H266420   4.426   7.062   7.948
22060WAT      O66421   2.423   7.603   9.795
22060WAT     H166422   2.432   7.697   9.761
22060WAT     H266423   2.514   7.567   9.817
22061WAT      O66424   8.930   1.746   7.510
22061WAT     H166425   8.987   1.704   7.439
22061WAT     H266426   8.987   1.776   7.586
22062WAT      O66427   7.103   8.079   7.730
22062WAT     H166428   7.185   8.134   7.747
22062WAT     H266429   7.083   8.022   7.810
22063WAT      O66430   4.402   1.120   0.753
22063WAT     H166431   4.471   1.182   0.788
22063WAT     H266432   4.323   1.173   0.720
22064WAT      O66433   3.537   8.593   0.421
22064WAT     H166434   3.595   8.624   0.345
22064WAT     H266435   3.458   8.544   0.385
22065WAT      O66436   7.654   8.135   4.410
22065WAT     H166437   7.617   8.079   4.335
22065WAT     H266438   7.733   8.187   4.377
22066WAT      O66439   4.873   2.656   7.071
22066WAT     H166440   4.776   2.641   7.051
22066WAT     H266441   4.912   2.573   7.111
22067WAT      O66442   7.565   6.084   7.187
22067WAT     H166443   7.481   6.064   7.237
22067WAT     H266444   7.590   6.006   7.129
22068WAT      O66445   9.601   5.879   5.521
22068WAT     H166446   9.697   5.875   5.547
22068WAT     H266447   9.592   5.933   5.436
22069WAT      O66448   3.902   9.350   5.798
22069WAT     H166449   4.000   9.344   5.779
22069WAT     H266450   3.874   9.273   5.857
22070WAT      O66451   9.553   8.586   4.476
22070WAT     H166452   9.523   8.503   4.523
22070WAT     H266453   9.627   8.564   4.413
22071WAT      O66454   1.447   4.933   3.817
22071WAT     H166455   1.501   5.007   3.777
22071WAT     H266456   1.421   4.868   3.745
22072WAT      O66457   2.162   2.932   8.784
22072WAT     H166458   2.165   2.941   8.685
22072WAT     H266459   2.245   2.885   8.816
22073WAT      O66460   3.218   6.316   1.134
22073WAT     H166461   3.186   6.394   1.080
22073WAT     H266462   3.315   6.328   1.154
22074WAT      O66463   1.289   5.516   1.405
22074WAT     H166464   1.241   5.433   1.375
22074WAT     H266465   1.229   5.567   1.467
22075WAT      O66466   0.482   1.097   1.660
22075WAT     H166467   0.427   1.018   1.686
22075WAT     H266468   0.423   1.177   1.651
22076WAT      O66469   1.809   4.652   4.425
22076WAT     H166470   1.769   4.651   4.334
22076WAT     H266471   1.784   4.738   4.471
22077WAT      O66472   1.681   9.205   5.698
22077WAT     H166473   1.637   9.125   5.658
22077WAT     H266474   1.768   9.222   5.651
22078WAT      O66475   4.893   3.482   5.349
22078WAT     H166476   4.906   3.401   5.292
22078WAT     H266477   4.879   3.562   5.291
22079WAT      O66478   1.965   8.157   3.366
22079WAT     H166479   1.910   8.173   3.284
22079WAT     H266480   2.032   8.085   3.348
22080WAT      O66481   7.571   2.472   4.518
22080WAT     H166482   7.658   2.502   4.556
22080WAT     H266483   7.527   2.549   4.472
22081WAT      O66484   1.446   0.722   6.856
22081WAT     H166485   1.538   0.720   6.817
22081WAT     H266486   1.447   0.775   6.940
22082WAT      O66487   5.975   4.821   7.882
22082WAT     H166488   5.988   4.894   7.815
22082WAT     H266489   5.895   4.842   7.939
22083WAT      O66490   6.674   3.332   2.969
22083WAT     H166491   6.659   3.382   2.884
22083WAT     H266492   6.707   3.240   2.948
22084WAT      O66493   9.746   5.521   4.148
22084WAT     H166494   9.830   5.475   4.117
22084WAT     H266495   9.771   5.606   4.196
22085WAT      O66496   1.897   0.710   7.181
22085WAT     H166497   1.884   0.808   7.191
22085WAT     H266498   1.993   0.687   7.198
22086WAT      O66499   7.910   3.832   1.010
22086WAT     H166500   7.863   3.747   1.034
22086WAT     H266501   7.909   3.894   1.089
22087WAT      O66502   8.503   6.497   1.663
22087WAT     H166503   8.517   6.545   1.750
22087WAT     H266504   8.541   6.552   1.588
22088WAT      O66505   5.379   9.111   8.064
22088WAT     H166506   5.446   9.156   8.123
22088WAT     H266507   5.359   9.020   8.100
22089WAT      O66508   0.746   0.749   2.385
22089WAT     H166509   0.763   0.654   2.409
22089WAT     H266510   0.655   0.776   2.416
22090WAT      O66511   0.223   1.824   8.761
22090WAT     H166512   0.289   1.749   8.771
22090WAT     H266513   0.250   1.900   8.821
22091WAT      O66514   6.835   2.749   8.500
22091WAT     H166515   6.836   2.691   8.418
22091WAT     H266516   6.752   2.731   8.552
22092WAT      O66517   2.853   1.230   3.880
22092WAT     H166518   2.884   1.148   3.831
22092WAT     H266519   2.931   1.289   3.899
22093WAT      O66520   6.265   5.045   7.235
22093WAT     H166521   6.237   4.951   7.256
22093WAT     H266522   6.323   5.080   7.309
22094WAT      O66523   6.387   6.695   7.254
22094WAT     H166524   6.473   6.715   7.301
22094WAT     H266525   6.401   6.704   7.155
22095WAT      O66526   5.681   5.583   7.614
22095WAT     H166527   5.660   5.506   7.555
22095WAT     H266528   5.728   5.550   7.697
22096WAT      O66529   0.726   1.447   6.875
22096WAT     H166530   0.787   1.438   6.796
22096WAT     H266531   0.715   1.544   6.897
22097WAT      O66532   9.881   5.581   0.031
22097WAT     H166533   9.876   5.663   0.089
22097WAT     H266534   9.794   5.532   0.038
22098WAT      O66535   7.998   3.006   2.740
22098WAT     H166536   7.953   3.059   2.668
22098WAT     H266537   8.060   3.066   2.791
22099WAT      O66538   8.780   6.366   1.105
22099WAT     H166539   8.844   6.351   1.029
22099WAT     H266540   8.688   6.339   1.076
22100WAT      O66541   8.242   3.692   8.409
22100WAT     H166542   8.283   3.720   8.496
22100WAT     H266543   8.268   3.597   8.389
22101WAT      O66544   3.694   7.763   5.765
22101WAT     H166545   3.716   7.826   5.839
22101WAT     H266546   3.601   7.780   5.734
22102WAT      O66547   4.800   7.405   3.568
22102WAT     H166548   4.815   7.485   3.627
22102WAT     H266549   4.809   7.322   3.622
22103WAT      O66550   8.988   0.646   3.569
22103WAT     H166551   8.933   0.628   3.651
22103WAT     H266552   9.052   0.720   3.588
22104WAT      O66553   5.536   1.085   3.532
22104WAT     H166554   5.446   1.124   3.548
22104WAT     H266555   5.600   1.120   3.601
22105WAT      O66556   0.839   5.936   6.387
22105WAT     H166557   0.859   5.854   6.440
22105WAT     H266558   0.868   5.921   6.292
22106WAT      O66559   2.699   0.905   7.711
22106WAT     H166560   2.671   0.871   7.621
22106WAT     H266561   2.769   0.975   7.701
22107WAT      O66562   6.887   8.877   8.130
22107WAT     H166563   6.798   8.918   8.111
22107WAT     H266564   6.890   8.845   8.224
22108WAT      O66565   8.970   5.912   0.497
22108WAT     H166566   8.901   5.977   0.464
22108WAT     H266567   8.957   5.896   0.594
22109WAT      O66568   7.960   1.076   5.032
22109WAT     H166569   8.050   1.119   5.045
22109WAT     H266570   7.888   1.142   5.052
22110WAT      O66571   0.363   2.463   6.065
22110WAT     H166572   0.283   2.408   6.042
22110WAT     H266573   0.445   2.421   6.029
22111WAT      O66574   7.598   4.702   4.854
22111WAT     H166575   7.562   4.762   4.783
22111WAT     H266576   7.565   4.733   4.943
22112WAT      O66577   2.930   0.358   7.418
22112WAT     H166578   2.888   0.337   7.507
22112WAT     H266579   2.993   0.285   7.393
22113WAT      O66580   4.097   5.999   5.130
22113WAT     H166581   4.119   5.969   5.223
22113WAT     H266582   4.134   6.091   5.115
22114WAT      O66583   4.512   6.479   1.664
22114WAT     H166584   4.526   6.412   1.736
22114WAT     H266585   4.597   6.492   1.613
22115WAT      O66586   7.662   4.199   9.128
22115WAT     H166587   7.701   4.111   9.099
22115WAT     H266588   7.605   4.184   9.209
22116WAT      O66589   8.274   7.477   1.224
22116WAT     H166590   8.342   7.471   1.297
22116WAT     H266591   8.269   7.390   1.175
22117WAT      O66592   1.807   1.921   1.799
22117WAT     H166593   1.710   1.921   1.777
22117WAT     H266594   1.826   1.993   1.865
22118WAT      O66595   4.766   8.203   0.274
22118WAT     H166596   4.815   8.209   0.187
22118WAT     H266597   4.801   8.125   0.327
22119WAT      O66598   1.592   5.201   1.348
22119WAT     H166599   1.508   5.222   1.297
22119WAT     H266600   1.613   5.104   1.338
22120WAT      O66601   2.761   0.805   4.963
22120WAT     H166602   2.749   0.794   4.864
22120WAT     H266603   2.677   0.841   5.003
22121WAT      O66604   9.805   2.211   6.430
22121WAT     H166605   9.833   2.148   6.357
22121WAT     H266606   9.885   2.247   6.477
22122WAT      O66607   6.511   8.731   1.575
22122WAT     H166608   6.432   8.683   1.536
22122WAT     H266609   6.484   8.775   1.661
22123WAT      O66610   4.068   1.676   0.799
22123WAT     H166611   4.160   1.715   0.807
22123WAT     H266612   4.001   1.745   0.829
22124WAT      O66613   5.795   2.204   1.255
22124WAT     H166614   5.874   2.152   1.223
22124WAT     H266615   5.808   2.226   1.352
22125WAT      O66616   3.076   1.716   4.777
22125WAT     H166617   2.979   1.704   4.798
22125WAT     H266618   3.116   1.782   4.841
22126WAT      O66619   8.004   7.395   7.925
22126WAT     H166620   8.021   7.305   7.965
22126WAT     H266621   8.089   7.446   7.921
22127WAT      O66622   9.376   2.857   8.804
22127WAT     H166623   9.449   2.887   8.865
22127WAT     H266624   9.374   2.757   8.801
22128WAT      O66625   9.490   6.371   5.066
22128WAT     H166626   9.541   6.455   5.053
22128WAT     H266627   9.402   6.391   5.109
22129WAT      O66628   9.465   5.639   9.860
22129WAT     H166629   9.540   5.626   9.794
22129WAT     H266630   9.394   5.697   9.819
22130WAT      O66631   9.887   2.628   8.897
22130WAT     H166632   9.801   2.642   8.848
22130WAT     H266633   9.875   2.654   8.993
22131WAT      O66634   4.168   9.524   6.324
22131WAT     H166635   4.266   9.535   6.309
22131WAT     H266636   4.117   9.582   6.260
22132WAT      O66637   8.202   8.109   3.880
22132WAT     H166638   8.259   8.050   3.823
22132WAT     H266639   8.258   8.147   3.954
22133WAT      O66640   6.293   4.538   7.986
22133WAT     H166641   6.355   4.581   8.052
22133WAT     H266642   6.232   4.475   8.034
22134WAT      O66643   9.740   2.590   2.392
22134WAT     H166644   9.743   2.645   2.308
22134WAT     H266645   9.771   2.646   2.469
22135WAT      O66646   4.539   7.075   0.042
22135WAT     H166647   4.494   7.158   0.008
22135WAT     H266648   4.555   7.012  -0.034
22136WAT      O66649   6.011   4.102   3.521
22136WAT     H166650   5.974   4.013   3.496
22136WAT     H266651   6.111   4.096   3.529
22137WAT      O66652   9.035   3.915   5.513
22137WAT     H166653   8.996   3.823   5.506
22137WAT     H266654   8.973   3.981   5.473
22138WAT      O66655   1.957   5.281   7.576
22138WAT     H166656   1.945   5.344   7.499
22138WAT     H266657   2.036   5.223   7.559
22139WAT      O66658   9.599   2.081   0.932
22139WAT     H166659   9.647   2.124   1.009
22139WAT     H266660   9.650   2.000   0.902
22140WAT      O66661   3.533   8.794   7.043
22140WAT     H166662   3.453   8.825   7.095
22140WAT     H266663   3.601   8.756   7.105
22141WAT      O66664   8.264   8.757   9.845
22141WAT     H166665   8.349   8.770   9.896
22141WAT     H266666   8.199   8.830   9.868
22142WAT      O66667   4.661   4.938   6.950
22142WAT     H166668   4.649   4.847   6.910
22142WAT     H266669   4.637   5.007   6.882
22143WAT      O66670   4.618   3.553   3.902
22143WAT     H166671   4.626   3.453   3.907
22143WAT     H266672   4.622   3.582   3.807
22144WAT      O66673   6.487   4.792   6.839
22144WAT     H166674   6.420   4.759   6.906
22144WAT     H266675   6.553   4.851   6.886
22145WAT      O66676   9.092   7.613   4.409
22145WAT     H166677   9.123   7.520   4.390
22145WAT     H266678   9.135   7.645   4.493
22146WAT      O66679   4.470   5.952   8.256
22146WAT     H166680   4.495   5.856   8.269
22146WAT     H266681   4.539   6.010   8.300
22147WAT      O66682   3.779   4.806   7.079
22147WAT     H166683   3.747   4.893   7.117
22147WAT     H266684   3.712   4.770   7.015
22148WAT      O66685   7.393   7.197   0.147
22148WAT     H166686   7.395   7.242   0.236
22148WAT     H266687   7.341   7.253   0.083
22149WAT      O66688   0.685   4.923   4.024
22149WAT     H166689   0.720   4.833   4.049
22149WAT     H266690   0.587   4.928   4.046
22150WAT      O66691   9.757   5.370   9.731
22150WAT     H166692   9.711   5.284   9.708
22150WAT     H266693   9.701   5.446   9.700
22151WAT      O66694   3.743   8.984   8.955
22151WAT     H166695   3.815   8.987   9.025
22151WAT     H266696   3.783   9.004   8.865
22152WAT      O66697   4.942   5.586   1.864
22152WAT     H166698   4.983   5.669   1.901
22152WAT     H266699   5.003   5.509   1.879
22153WAT      O66700   4.601   8.787   6.696
22153WAT     H166701   4.630   8.836   6.779
22153WAT     H266702   4.676   8.787   6.630
22154WAT      O66703   7.581   4.430   6.856
22154WAT     H166704   7.568   4.363   6.929
22154WAT     H266705   7.496   4.480   6.841
22155WAT      O66706   5.199   2.978   6.303
22155WAT     H166707   5.168   2.994   6.397
22155WAT     H266708   5.138   2.912   6.259
22156WAT      O66709   5.374   1.975   7.733
22156WAT     H166710   5.409   2.025   7.654
22156WAT     H266711   5.431   1.994   7.813
22157WAT      O66712   1.876   7.145   9.618
22157WAT     H166713   1.787   7.178   9.587
22157WAT     H266714   1.876   7.136   9.718
22158WAT      O66715   6.813   1.726   0.145
22158WAT     H166716   6.810   1.639   0.097
22158WAT     H266717   6.830   1.711   0.242
22159WAT      O66718   4.308   6.357   4.293
22159WAT     H166719   4.212   6.333   4.309
22159WAT     H266720   4.346   6.401   4.374
22160WAT      O66721   7.477   1.924   7.090
22160WAT     H166722   7.443   1.903   6.998
22160WAT     H266723   7.497   2.022   7.097
22161WAT      O66724   5.547   2.728   3.057
22161WAT     H166725   5.535   2.789   2.979
22161WAT     H266726   5.604   2.650   3.029
22162WAT      O66727   8.903   0.459   8.065
22162WAT     H166728   8.844   0.532   8.098
22162WAT     H266729   8.893   0.378   8.123
22163WAT      O66730   2.428   9.740   1.078
22163WAT     H166731   2.504   9.684   1.110
22163WAT     H266732   2.464   9.821   1.032
22164WAT      O66733   8.094   6.640   7.941
22164WAT     H166734   8.015   6.657   8.000
22164WAT     H266735   8.122   6.726   7.898
22165WAT      O66736   1.954   5.007   6.418
22165WAT     H166737   2.021   5.049   6.478
22165WAT     H266738   1.932   4.915   6.451
22166WAT      O66739   2.838   5.990   4.000
22166WAT     H166740   2.839   5.963   4.096
22166WAT     H266741   2.773   6.065   3.986
22167WAT      O66742   3.218   0.021   1.397
22167WAT     H166743   3.296   0.012   1.458
22167WAT     H266744   3.149  -0.047   1.420
22168WAT      O66745   3.046   4.204   4.749
22168WAT     H166746   3.073   4.113   4.780
22168WAT     H266747   2.961   4.231   4.794
22169WAT      O66748   5.368   2.957   2.516
22169WAT     H166749   5.358   2.899   2.435
22169WAT     H266750   5.424   3.036   2.494
22170WAT      O66751   6.674   7.149   9.669
22170WAT     H166752   6.595   7.139   9.608
22170WAT     H266753   6.745   7.201   9.623
22171WAT      O66754   2.139   8.266   3.883
22171WAT     H166755   2.057   8.215   3.859
22171WAT     H266756   2.195   8.211   3.945
22172WAT      O66757   8.920   8.125   0.259
22172WAT     H166758   9.004   8.124   0.313
22172WAT     H266759   8.929   8.063   0.181
22173WAT      O66760   8.671   5.289   0.344
22173WAT     H166761   8.671   5.366   0.281
22173WAT     H266762   8.765   5.273   0.376
22174WAT      O66763   0.104   4.694   4.851
22174WAT     H166764   0.149   4.640   4.922
22174WAT     H266765   0.028   4.745   4.891
22175WAT      O66766   5.151   5.027   1.947
22175WAT     H166767   5.221   4.986   2.006
22175WAT     H266768   5.187   5.110   1.906
22176WAT      O66769   5.766   0.757   6.985
22176WAT     H166770   5.673   0.768   6.949
22176WAT     H266771   5.824   0.715   6.915
22177WAT      O66772   8.066   1.939   6.802
22177WAT     H166773   8.023   1.980   6.882
22177WAT     H266774   8.149   1.989   6.780
22178WAT      O66775   3.319   4.693   8.667
22178WAT     H166776   3.312   4.672   8.570
22178WAT     H266777   3.413   4.677   8.698
22179WAT      O66778   6.396   1.386   2.617
22179WAT     H166779   6.350   1.303   2.648
22179WAT     H266780   6.337   1.465   2.633
22180WAT      O66781   2.058   3.685   8.717
22180WAT     H166782   2.126   3.626   8.673
22180WAT     H266783   1.990   3.713   8.649
22181WAT      O66784   6.627   7.957   7.092
22181WAT     H166785   6.560   8.030   7.080
22181WAT     H266786   6.596   7.875   7.043
22182WAT      O66787   2.187   1.765   9.410
22182WAT     H166788   2.256   1.806   9.350
22182WAT     H266789   2.101   1.816   9.402
22183WAT      O66790   3.848   3.410   4.787
22183WAT     H166791   3.933   3.388   4.740
22183WAT     H266792   3.853   3.378   4.881
22184WAT      O66793   6.465   7.143   5.259
22184WAT     H166794   6.492   7.157   5.355
22184WAT     H266795   6.546   7.144   5.201
22185WAT      O66796   0.608   5.699   8.715
22185WAT     H166797   0.553   5.732   8.638
22185WAT     H266798   0.700   5.676   8.683
22186WAT      O66799   6.042   8.602   3.621
22186WAT     H166800   6.040   8.504   3.602
22186WAT     H266801   5.960   8.628   3.672
22187WAT      O66802   7.683   6.234   3.638
22187WAT     H166803   7.656   6.227   3.734
22187WAT     H266804   7.627   6.304   3.592
22188WAT      O66805   9.849   0.941   3.689
22188WAT     H166806   9.792   0.877   3.741
22188WAT     H266807   9.945   0.931   3.718
22189WAT      O66808   2.484   4.909   1.253
22189WAT     H166809   2.489   4.950   1.344
22189WAT     H266810   2.569   4.926   1.204
22190WAT      O66811   5.304   7.418   0.341
22190WAT     H166812   5.214   7.455   0.317
22190WAT     H266813   5.294   7.324   0.375
22191WAT      O66814   1.076   3.291   1.401
22191WAT     H166815   1.169   3.316   1.428
22191WAT     H266816   1.019   3.373   1.396
22192WAT      O66817   1.820   2.429   8.585
22192WAT     H166818   1.752   2.477   8.530
22192WAT     H266819   1.796   2.436   8.682
22193WAT      O66820   1.386   1.838   5.324
22193WAT     H166821   1.328   1.757   5.324
22193WAT     H266822   1.450   1.833   5.247
22194WAT      O66823   8.072   3.368   3.307
22194WAT     H166824   8.090   3.429   3.230
22194WAT     H266825   8.024   3.419   3.379
22195WAT      O66826   5.529   1.391   1.686
22195WAT     H166827   5.553   1.349   1.598
22195WAT     H266828   5.508   1.319   1.752
22196WAT      O66829   2.925   8.554   0.544
22196WAT     H166830   2.929   8.644   0.588
22196WAT     H266831   2.836   8.542   0.499
22197WAT      O66832   2.972   3.707   5.243
22197WAT     H166833   2.928   3.795   5.224
22197WAT     H266834   2.922   3.659   5.314
22198WAT      O66835   5.474   0.815   5.864
22198WAT     H166836   5.385   0.853   5.839
22198WAT     H266837   5.489   0.731   5.812
22199WAT      O66838   8.704   7.870   1.055
22199WAT     H166839   8.759   7.796   1.016
22199WAT     H266840   8.742   7.896   1.144
22200WAT      O66841   6.996   7.135   4.374
22200WAT     H166842   7.026   7.054   4.424
22200WAT     H266843   7.070   7.203   4.376
22201WAT      O66844   8.952   6.282   9.089
22201WAT     H166845   8.950   6.303   8.991
22201WAT     H266846   8.937   6.365   9.142
22202WAT      O66847   7.426   5.244   3.912
22202WAT     H166848   7.414   5.149   3.940
22202WAT     H266849   7.517   5.255   3.870
22203WAT      O66850   8.190   9.059   3.289
22203WAT     H166851   8.273   9.091   3.242
22203WAT     H266852   8.166   9.124   3.362
22204WAT      O66853   1.600   5.404   9.579
22204WAT     H166854   1.627   5.440   9.490
22204WAT     H266855   1.641   5.460   9.651
22205WAT      O66856   4.722   3.450   6.858
22205WAT     H166857   4.627   3.476   6.876
22205WAT     H266858   4.724   3.377   6.789
22206WAT      O66859   4.835   1.042   2.200
22206WAT     H166860   4.902   0.971   2.177
22206WAT     H266861   4.878   1.132   2.190
22207WAT      O66862   5.635   4.996   8.674
22207WAT     H166863   5.626   5.095   8.672
22207WAT     H266864   5.641   4.961   8.580
22208WAT      O66865   2.937   8.318   6.072
22208WAT     H166866   3.010   8.386   6.061
22208WAT     H266867   2.969   8.243   6.129
22209WAT      O66868   3.275   6.225   6.849
22209WAT     H166869   3.326   6.284   6.786
22209WAT     H266870   3.205   6.279   6.897
22210WAT      O66871   0.492   4.740   5.751
22210WAT     H166872   0.434   4.722   5.672
22210WAT     H266873   0.556   4.664   5.764
22211WAT      O66874   9.664   5.660   9.181
22211WAT     H166875   9.748   5.614   9.152
22211WAT     H266876   9.685   5.733   9.246
22212WAT      O66877   4.980   7.215   5.247
22212WAT     H166878   4.960   7.280   5.174
22212WAT     H266879   4.972   7.122   5.212
22213WAT      O66880   7.514   4.159   9.673
22213WAT     H166881   7.453   4.211   9.614
22213WAT     H266882   7.465   4.132   9.756
22214WAT      O66883   6.541   5.929   0.478
22214WAT     H166884   6.448   5.966   0.469
22214WAT     H266885   6.554   5.856   0.411
22215WAT      O66886   1.393   1.796   4.287
22215WAT     H166887   1.435   1.882   4.317
22215WAT     H266888   1.382   1.797   4.188
22216WAT      O66889   5.212   1.930   8.114
22216WAT     H166890   5.223   1.834   8.088
22216WAT     H266891   5.204   1.986   8.031
22217WAT      O66892   9.871   3.068   2.319
22217WAT     H166893   9.776   3.036   2.308
22217WAT     H266894   9.893   3.132   2.246
22218WAT      O66895   1.009   9.103   5.043
22218WAT     H166896   1.025   9.200   5.061
22218WAT     H266897   0.915   9.079   5.070
22219WAT      O66898   9.570   5.356   4.311
22219WAT     H166899   9.540   5.414   4.387
22219WAT     H266900   9.653   5.395   4.271
22220WAT      O66901   7.208   1.098   2.989
22220WAT     H166902   7.117   1.078   3.025
22220WAT     H266903   7.274   1.099   3.064
22221WAT      O66904   8.052   1.849   0.155
22221WAT     H166905   8.146   1.868   0.182
22221WAT     H266906   8.002   1.809   0.232
22222WAT      O66907   6.291   1.473   9.816
22222WAT     H166908   6.271   1.505   9.909
22222WAT     H266909   6.256   1.380   9.804
22223WAT      O66910   0.644   3.243   7.157
22223WAT     H166911   0.740   3.229   7.136
22223WAT     H266912   0.596   3.156   7.156
22224WAT      O66913   9.460   1.820   3.550
22224WAT     H166914   9.537   1.768   3.511
22224WAT     H266915   9.394   1.840   3.478
22225WAT      O66916   3.990   8.488   8.084
22225WAT     H166917   3.964   8.557   8.151
22225WAT     H266918   3.987   8.397   8.127
22226WAT      O66919   4.928   5.261   1.993
22226WAT     H166920   4.925   5.162   2.004
22226WAT     H266921   5.009   5.297   2.040
22227WAT      O66922   1.306   5.968   1.830
22227WAT     H166923   1.225   5.990   1.886
22227WAT     H266924   1.381   5.940   1.890
22228WAT      O66925   0.320   5.880   7.779
22228WAT     H166926   0.413   5.896   7.746
22228WAT     H266927   0.275   5.812   7.721
22229WAT      O66928   9.773   1.688   5.301
22229WAT     H166929   9.863   1.645   5.305
22229WAT     H266930   9.766   1.746   5.220
22230WAT      O66931   5.484   5.034   8.218
22230WAT     H166932   5.425   4.954   8.209
22230WAT     H266933   5.439   5.103   8.275
22231WAT      O66934   1.097   4.587   1.173
22231WAT     H166935   1.033   4.533   1.118
22231WAT     H266936   1.119   4.538   1.257
22232WAT      O66937   9.801   0.340   3.608
22232WAT     H166938   9.738   0.269   3.640
22232WAT     H266939   9.758   0.393   3.536
22233WAT      O66940   2.033   8.208   4.807
22233WAT     H166941   2.083   8.264   4.874
22233WAT     H266942   2.038   8.251   4.717
22234WAT      O66943   5.313   2.708   0.275
22234WAT     H166944   5.363   2.761   0.207
22234WAT     H266945   5.261   2.770   0.334
22235WAT      O66946   7.523   0.960   2.266
22235WAT     H166947   7.568   1.048   2.247
22235WAT     H266948   7.524   0.904   2.184
22236WAT      O66949   4.334   0.840   8.117
22236WAT     H166950   4.313   0.937   8.113
22236WAT     H266951   4.284   0.798   8.193
22237WAT      O66952   2.713   2.478   5.522
22237WAT     H166953   2.710   2.413   5.598
22237WAT     H266954   2.805   2.516   5.515
22238WAT      O66955   3.712   1.793   9.320
22238WAT     H166956   3.763   1.711   9.292
22238WAT     H266957   3.761   1.839   9.395
22239WAT      O66958   2.700   7.124   1.210
22239WAT     H166959   2.717   7.065   1.132
22239WAT     H266960   2.779   7.122   1.271
22240WAT      O66961   3.493   3.745   2.842
22240WAT     H166962   3.585   3.776   2.866
22240WAT     H266963   3.454   3.807   2.774
22241WAT      O66964   0.148   1.322   5.266
22241WAT     H166965   0.169   1.304   5.169
22241WAT     H266966   0.118   1.417   5.276
22242WAT      O66967   7.193   0.429   6.153
22242WAT     H166968   7.225   0.336   6.165
22242WAT     H266969   7.161   0.466   6.241
22243WAT      O66970   2.638   8.084   1.857
22243WAT     H166971   2.694   8.011   1.896
22243WAT     H266972   2.680   8.173   1.878
22244WAT      O66973   9.700   5.044   5.709
22244WAT     H166974   9.615   5.075   5.667
22244WAT     H266975   9.761   5.122   5.724
22245WAT      O66976   1.399   5.697   8.179
22245WAT     H166977   1.375   5.612   8.225
22245WAT     H266978   1.491   5.726   8.206
22246WAT      O66979   9.274   4.891   5.284
22246WAT     H166980   9.288   4.813   5.223
22246WAT     H266981   9.178   4.898   5.309
22247WAT      O66982   0.572   2.283   3.651
22247WAT     H166983   0.475   2.258   3.655
22247WAT     H266984   0.628   2.200   3.656
22248WAT      O66985   9.048   4.100   5.992
22248WAT     H166986   9.067   4.108   5.894
22248WAT     H266987   9.097   4.171   6.042
22249WAT      O66988   4.708   0.196   2.430
22249WAT     H166989   4.659   0.199   2.343
22249WAT     H266990   4.692   0.108   2.474
22250WAT      O66991   3.701   4.701   7.724
22250WAT     H166992   3.663   4.612   7.747
22250WAT     H266993   3.695   4.761   7.804
22251WAT      O66994   2.635   5.717   1.711
22251WAT     H166995   2.653   5.626   1.672
22251WAT     H266996   2.706   5.780   1.681
22252WAT      O66997   9.583   5.749   5.240
22252WAT     H166998   9.544   5.830   5.285
22252WAT     H266999   9.509   5.695   5.201
22253WAT      O67000   7.203   5.577   1.505
22253WAT     H167001   7.281   5.640   1.498
22253WAT     H267002   7.120   5.628   1.524
22254WAT      O67003   8.892   9.355   0.122
22254WAT     H167004   8.915   9.341   0.025
22254WAT     H267005   8.849   9.273   0.158
22255WAT      O67006   4.909   0.370   6.518
22255WAT     H167007   4.938   0.275   6.523
22255WAT     H267008   4.818   0.380   6.557
22256WAT      O67009   5.874   9.799   3.902
22256WAT     H167010   5.803   9.729   3.896
22256WAT     H267011   5.955   9.768   3.852
22257WAT      O67012   1.052   4.634   8.324
22257WAT     H167013   1.140   4.588   8.322
22257WAT     H267014   0.992   4.589   8.390
22258WAT      O67015   2.701   5.433   7.516
22258WAT     H167016   2.694   5.391   7.606
22258WAT     H267017   2.611   5.440   7.474
22259WAT      O67018   7.700   7.768   0.748
22259WAT     H167019   7.626   7.834   0.738
22259WAT     H267020   7.787   7.811   0.725
22260WAT      O67021   1.878   5.982   6.113
22260WAT     H167022   1.881   6.074   6.153
22260WAT     H267023   1.801   5.931   6.152
22261WAT      O67024   2.730   4.080   4.657
22261WAT     H167025   2.774   4.146   4.718
22261WAT     H267026   2.754   4.100   4.562
22262WAT      O67027   3.085   8.494   3.721
22262WAT     H167028   3.154   8.567   3.721
22262WAT     H267029   3.019   8.511   3.647
22263WAT      O67030   0.432   4.309   2.916
22263WAT     H167031   0.511   4.251   2.897
22263WAT     H267032   0.435   4.341   3.011
22264WAT      O67033   9.199   6.558   7.558
22264WAT     H167034   9.152   6.607   7.485
22264WAT     H267035   9.167   6.463   7.561
22265WAT      O67036   7.301   7.100   6.219
22265WAT     H167037   7.359   7.173   6.183
22265WAT     H267038   7.279   7.035   6.146
22266WAT      O67039   7.425   1.283   4.832
22266WAT     H167040   7.517   1.245   4.837
22266WAT     H267041   7.376   1.240   4.756
22267WAT      O67042   5.594   7.311   8.001
22267WAT     H167043   5.555   7.395   8.039
22267WAT     H267044   5.620   7.249   8.075
22268WAT      O67045   8.033   1.277   0.640
22268WAT     H167046   8.132   1.286   0.644
22268WAT     H267047   7.997   1.274   0.734
22269WAT      O67048   5.124   3.680   8.542
22269WAT     H167049   5.179   3.754   8.504
22269WAT     H267050   5.112   3.608   8.473
22270WAT      O67051   3.036   3.457   3.834
22270WAT     H167052   3.123   3.409   3.819
22270WAT     H267053   2.996   3.481   3.745
22271WAT      O67054   8.628   8.573   4.536
22271WAT     H167055   8.560   8.602   4.469
22271WAT     H267056   8.678   8.494   4.500
22272WAT      O67057   3.302   5.684   5.469
22272WAT     H167058   3.295   5.655   5.564
22272WAT     H267059   3.354   5.616   5.417
22273WAT      O67060   5.230   4.154   5.391
22273WAT     H167061   5.161   4.082   5.378
22273WAT     H267062   5.296   4.124   5.460
22274WAT      O67063   7.415   9.790   0.883
22274WAT     H167064   7.441   9.765   0.789
22274WAT     H267065   7.453   9.879   0.906
22275WAT      O67066   1.911   9.550   4.026
22275WAT     H167067   1.860   9.617   3.973
22275WAT     H267068   1.946   9.479   3.965
22276WAT      O67069   9.693   4.006   7.224
22276WAT     H167070   9.648   3.959   7.148
22276WAT     H267071   9.790   3.983   7.225
22277WAT      O67072   3.462   9.632   3.770
22277WAT     H167073   3.498   9.688   3.844
22277WAT     H267074   3.389   9.574   3.805
22278WAT      O67075   1.912   4.781   4.697
22278WAT     H167076   1.845   4.710   4.675
22278WAT     H267077   1.889   4.821   4.786
22279WAT      O67078   0.363   3.254   0.390
22279WAT     H167079   0.409   3.239   0.477
22279WAT     H267080   0.271   3.216   0.393
22280WAT      O67081   8.185   7.606   9.803
22280WAT     H167082   8.234   7.593   9.717
22280WAT     H267083   8.087   7.607   9.786
22281WAT      O67084   5.586   8.377   9.418
22281WAT     H167085   5.654   8.430   9.367
22281WAT     H267086   5.628   8.294   9.454
22282WAT      O67087   9.074   3.141   5.847
22282WAT     H167088   9.030   3.225   5.880
22282WAT     H267089   9.117   3.094   5.924
22283WAT      O67090   9.204   2.789   2.750
22283WAT     H167091   9.269   2.757   2.681
22283WAT     H267092   9.253   2.828   2.827
22284WAT      O67093   6.759   2.165   2.430
22284WAT     H167094   6.664   2.148   2.406
22284WAT     H267095   6.765   2.245   2.491
22285WAT      O67096   8.654   0.464   4.427
22285WAT     H167097   8.565   0.503   4.452
22285WAT     H267098   8.656   0.448   4.328
22286WAT      O67099   6.412   5.949   2.426
22286WAT     H167100   6.410   6.044   2.459
22286WAT     H267101   6.329   5.902   2.456
22287WAT      O67102   3.793   2.481   6.375
22287WAT     H167103   3.826   2.574   6.395
22287WAT     H267104   3.783   2.431   6.461
22288WAT      O67105   0.635   5.453   6.978
22288WAT     H167106   0.606   5.388   6.908
22288WAT     H267107   0.646   5.543   6.936
22289WAT      O67108   0.549   9.270   0.062
22289WAT     H167109   0.481   9.229   0.001
22289WAT     H267110   0.623   9.310   0.008
22290WAT      O67111   2.459   7.541   3.798
22290WAT     H167112   2.517   7.496   3.730
22290WAT     H267113   2.508   7.547   3.885
22291WAT      O67114   2.966   7.659   7.385
22291WAT     H167115   2.980   7.698   7.294
22291WAT     H267116   2.899   7.586   7.380
22292WAT      O67117   6.142   4.841   7.408
22292WAT     H167118   6.224   4.802   7.366
22292WAT     H267119   6.155   4.939   7.421
22293WAT      O67120   2.534   0.634   0.560
22293WAT     H167121   2.446   0.658   0.600
22293WAT     H267122   2.606   0.689   0.603
22294WAT      O67123   4.795   8.387   5.101
22294WAT     H167124   4.733   8.310   5.118
22294WAT     H267125   4.742   8.469   5.082
22295WAT      O67126   9.160   3.700   7.808
22295WAT     H167127   9.161   3.601   7.813
22295WAT     H267128   9.068   3.732   7.786
22296WAT      O67129   0.517   7.232   1.112
22296WAT     H167130   0.581   7.246   1.188
22296WAT     H267131   0.438   7.291   1.124
22297WAT      O67132   8.387   3.187   4.395
22297WAT     H167133   8.335   3.182   4.480
22297WAT     H267134   8.382   3.100   4.348
22298WAT      O67135   7.247   2.396   3.825
22298WAT     H167136   7.267   2.372   3.730
22298WAT     H267137   7.207   2.488   3.828
22299WAT      O67138   5.262   1.018   0.098
22299WAT     H167139   5.328   1.039   0.171
22299WAT     H267140   5.230   1.104   0.057
22300WAT      O67141   1.080   3.699   3.060
22300WAT     H167142   1.132   3.627   3.107
22300WAT     H267143   1.142   3.768   3.025
22301WAT      O67144   4.966   8.622   2.779
22301WAT     H167145   4.960   8.690   2.706
22301WAT     H267146   4.874   8.604   2.814
22302WAT      O67147   0.185   3.612   4.626
22302WAT     H167148   0.243   3.531   4.639
22302WAT     H267149   0.096   3.596   4.668
22303WAT      O67150   1.449   0.393   3.014
22303WAT     H167151   1.399   0.433   3.091
22303WAT     H267152   1.412   0.429   2.929
22304WAT      O67153   2.543   4.053   1.797
22304WAT     H167154   2.467   4.086   1.852
22304WAT     H267155   2.604   3.997   1.853
22305WAT      O67156   4.471   4.740   3.566
22305WAT     H167157   4.414   4.821   3.556
22305WAT     H267158   4.414   4.661   3.587
22306WAT      O67159   6.873   8.526   7.750
22306WAT     H167160   6.822   8.598   7.797
22306WAT     H267161   6.896   8.556   7.657
22307WAT      O67162   2.175   5.020   2.673
22307WAT     H167163   2.143   5.042   2.581
22307WAT     H267164   2.111   4.956   2.716
22308WAT      O67165   3.044   8.307   7.894
22308WAT     H167166   2.957   8.262   7.876
22308WAT     H267167   3.103   8.246   7.947
22309WAT      O67168   0.902   5.927   3.586
22309WAT     H167169   0.940   5.848   3.537
22309WAT     H267170   0.929   6.011   3.539
22310WAT      O67171   8.254   1.481   2.052
22310WAT     H167172   8.289   1.573   2.071
22310WAT     H267173   8.154   1.483   2.052
22311WAT      O67174   3.811   4.358   9.362
22311WAT     H167175   3.790   4.261   9.347
22311WAT     H267176   3.906   4.375   9.336
22312WAT      O67177   4.512   8.667   8.804
22312WAT     H167178   4.540   8.682   8.710
22312WAT     H267179   4.435   8.727   8.826
22313WAT      O67180   0.321   5.367   8.891
22313WAT     H167181   0.334   5.465   8.906
22313WAT     H267182   0.276   5.352   8.803
22314WAT      O67183   0.944   8.928   1.986
22314WAT     H167184   0.936   8.831   2.010
22314WAT     H267185   0.866   8.955   1.930
22315WAT      O67186   2.183   2.145   6.748
22315WAT     H167187   2.180   2.076   6.820
22315WAT     H267188   2.236   2.111   6.671
22316WAT      O67189   7.683   2.678   4.863
22316WAT     H167190   7.605   2.662   4.801
22316WAT     H267191   7.663   2.758   4.920
22317WAT      O67192   9.429   3.471   8.947
22317WAT     H167193   9.433   3.503   9.041
22317WAT     H267194   9.509   3.415   8.927
22318WAT      O67195   9.077   8.742   3.712
22318WAT     H167196   9.105   8.667   3.652
22318WAT     H267197   9.109   8.829   3.673
22319WAT      O67198   5.010   3.585   4.669
22319WAT     H167199   5.088   3.571   4.607
22319WAT     H267200   5.021   3.671   4.718
22320WAT      O67201   4.591   5.552   6.454
22320WAT     H167202   4.563   5.527   6.361
22320WAT     H267203   4.570   5.476   6.516
22321WAT      O67204   5.921   0.019   1.946
22321WAT     H167205   6.020   0.020   1.931
22321WAT     H267206   5.902  -0.014   2.039
22322WAT      O67207   8.692   1.111   9.642
22322WAT     H167208   8.764   1.127   9.709
22322WAT     H267209   8.700   1.178   9.569
22323WAT      O67210   7.417   5.493   4.541
22323WAT     H167211   7.447   5.489   4.636
22323WAT     H267212   7.487   5.538   4.486
22324WAT      O67213   0.689   0.141   8.665
22324WAT     H167214   0.668   0.063   8.606
22324WAT     H267215   0.655   0.124   8.757
22325WAT      O67216   1.200   6.086   0.213
22325WAT     H167217   1.221   6.164   0.155
22325WAT     H267218   1.183   6.117   0.307
22326WAT      O67219   6.120   2.026   1.480
22326WAT     H167220   6.027   2.059   1.496
22326WAT     H267221   6.175   2.098   1.438
22327WAT      O67222   9.191   0.414   1.282
22327WAT     H167223   9.091   0.414   1.284
22327WAT     H267224   9.223   0.501   1.244
22328WAT      O67225   0.084   3.922   7.261
22328WAT     H167226   0.114   3.883   7.348
22328WAT     H267227   0.154   3.984   7.226
22329WAT      O67228   9.147   2.393   8.916
22329WAT     H167229   9.238   2.394   8.958
22329WAT     H267230   9.127   2.484   8.878
22330WAT      O67231   2.717   3.279   7.473
22330WAT     H167232   2.727   3.191   7.519
22330WAT     H267233   2.706   3.264   7.375
22331WAT      O67234   3.982   0.014   5.803
22331WAT     H167235   3.882   0.012   5.807
22331WAT     H267236   4.011   0.070   5.725
22332WAT      O67237   8.366   3.546   7.961
22332WAT     H167238   8.383   3.510   8.053
22332WAT     H267239   8.451   3.547   7.910
22333WAT      O67240   1.905   1.108   2.070
22333WAT     H167241   1.978   1.164   2.109
22333WAT     H267242   1.837   1.088   2.141
22334WAT      O67243   1.018   5.550   1.446
22334WAT     H167244   0.975   5.614   1.510
22334WAT     H267245   0.996   5.578   1.352
22335WAT      O67246   7.237   7.740   5.086
22335WAT     H167247   7.193   7.828   5.070
22335WAT     H267248   7.285   7.711   5.004
22336WAT      O67249   7.902   2.560   5.744
22336WAT     H167250   7.901   2.592   5.839
22336WAT     H267251   7.942   2.468   5.741
22337WAT      O67252   5.506   5.305   7.661
22337WAT     H167253   5.506   5.397   7.700
22337WAT     H267254   5.599   5.267   7.665
22338WAT      O67255   8.473   4.118   5.445
22338WAT     H167256   8.392   4.149   5.493
22338WAT     H267257   8.532   4.196   5.424
22339WAT      O67258   4.441   8.331   5.197
22339WAT     H167259   4.453   8.351   5.295
22339WAT     H267260   4.425   8.417   5.148
22340WAT      O67261   8.754   6.668   4.574
22340WAT     H167262   8.791   6.761   4.568
22340WAT     H267263   8.808   6.607   4.516
22341WAT      O67264   7.382   7.835   1.774
22341WAT     H167265   7.289   7.840   1.811
22341WAT     H267266   7.412   7.740   1.771
22342WAT      O67267   9.570   0.258   1.485
22342WAT     H167268   9.555   0.177   1.429
22342WAT     H267269   9.551   0.340   1.431
22343WAT      O67270   3.599   9.436   0.592
22343WAT     H167271   3.551   9.439   0.504
22343WAT     H267272   3.696   9.416   0.576
22344WAT      O67273   6.913   5.085   6.003
22344WAT     H167274   7.013   5.092   5.995
22344WAT     H267275   6.888   5.078   6.100
22345WAT      O67276   0.814   6.513   6.439
22345WAT     H167277   0.762   6.478   6.517
22345WAT     H267278   0.907   6.533   6.468
22346WAT      O67279   1.290   1.581   5.330
22346WAT     H167280   1.193   1.608   5.327
22346WAT     H267281   1.296   1.485   5.359
22347WAT      O67282   2.518   3.230   8.406
22347WAT     H167283   2.585   3.270   8.344
22347WAT     H267284   2.428   3.229   8.362
22348WAT      O67285   8.358   5.956   8.584
22348WAT     H167286   8.403   5.897   8.651
22348WAT     H267287   8.275   5.995   8.625
22349WAT      O67288   5.330   0.311   0.934
22349WAT     H167289   5.258   0.369   0.971
22349WAT     H267290   5.345   0.333   0.837
22350WAT      O67291   8.224   0.465   2.295
22350WAT     H167292   8.161   0.460   2.372
22350WAT     H267293   8.300   0.526   2.318
22351WAT      O67294   5.242   6.548   6.498
22351WAT     H167295   5.275   6.557   6.404
22351WAT     H267296   5.234   6.451   6.521
22352WAT      O67297   5.106   7.584   0.322
22352WAT     H167298   5.151   7.664   0.282
22352WAT     H267299   5.010   7.581   0.292
22353WAT      O67300   2.602   0.172   7.675
22353WAT     H167301   2.634   0.257   7.631
22353WAT     H267302   2.512   0.188   7.715
22354WAT      O67303   4.568   0.079   7.981
22354WAT     H167304   4.572   0.033   7.892
22354WAT     H267305   4.497   0.149   7.978
22355WAT      O67306   6.034   7.441   9.884
22355WAT     H167307   6.017   7.355   9.932
22355WAT     H267308   6.067   7.421   9.792
22356WAT      O67309   3.608   6.635   8.678
22356WAT     H167310   3.696   6.602   8.643
22356WAT     H267311   3.538   6.564   8.666
22357WAT      O67312   3.039   1.651   7.771
22357WAT     H167313   2.959   1.656   7.831
22357WAT     H267314   3.012   1.674   7.678
22358WAT      O67315   2.969   1.487   8.597
22358WAT     H167316   2.907   1.512   8.671
22358WAT     H267317   2.932   1.519   8.510
22359WAT      O67318   4.383   0.955   0.336
22359WAT     H167319   4.434   0.973   0.253
22359WAT     H267320   4.443   0.915   0.405
22360WAT      O67321   7.116   4.498   5.606
22360WAT     H167322   7.136   4.517   5.509
22360WAT     H267323   7.180   4.549   5.663
22361WAT      O67324   4.308   9.479   8.640
22361WAT     H167325   4.378   9.422   8.596
22361WAT     H267326   4.350   9.564   8.672
22362WAT      O67327   1.922   7.200   8.288
22362WAT     H167328   2.001   7.142   8.307
22362WAT     H267329   1.853   7.146   8.239
22363WAT      O67330   6.940   1.163   1.115
22363WAT     H167331   6.846   1.192   1.098
22363WAT     H267332   6.985   1.142   1.029
22364WAT      O67333   5.674   2.720   0.836
22364WAT     H167334   5.647   2.677   0.750
22364WAT     H267335   5.746   2.666   0.879
22365WAT      O67336   4.755   2.810   1.921
22365WAT     H167337   4.684   2.775   1.860
22365WAT     H267338   4.754   2.757   2.007
22366WAT      O67339   9.452   6.427   1.990
22366WAT     H167340   9.542   6.415   1.948
22366WAT     H267341   9.412   6.512   1.958
22367WAT      O67342   7.707   2.142   1.682
22367WAT     H167343   7.794   2.170   1.641
22367WAT     H267344   7.680   2.053   1.644
22368WAT      O67345   2.478   2.808   6.489
22368WAT     H167346   2.476   2.709   6.473
22368WAT     H267347   2.572   2.840   6.488
22369WAT      O67348   1.943   2.141   5.403
22369WAT     H167349   1.844   2.147   5.418
22369WAT     H267350   1.960   2.112   5.309
22370WAT      O67351   4.618   4.020   5.661
22370WAT     H167352   4.536   4.034   5.717
22370WAT     H267353   4.664   3.936   5.688
22371WAT      O67354   1.556   4.925   1.332
22371WAT     H167355   1.637   4.868   1.347
22371WAT     H267356   1.494   4.915   1.409
22372WAT      O67357   6.545   0.938   5.856
22372WAT     H167358   6.603   0.874   5.804
22372WAT     H267359   6.546   0.913   5.952
22373WAT      O67360   7.927   4.293   4.765
22373WAT     H167361   7.830   4.271   4.770
22373WAT     H267362   7.959   4.327   4.853
22374WAT      O67363   0.254   2.531   5.025
22374WAT     H167364   0.284   2.538   4.930
22374WAT     H267365   0.264   2.436   5.056
22375WAT      O67366   4.270   7.838   9.790
22375WAT     H167367   4.352   7.886   9.821
22375WAT     H267368   4.233   7.782   9.864
22376WAT      O67369   3.662   2.014   2.916
22376WAT     H167370   3.579   1.965   2.943
22376WAT     H267371   3.640   2.080   2.844
22377WAT      O67372   0.367   1.803   2.256
22377WAT     H167373   0.297   1.855   2.306
22377WAT     H267374   0.326   1.762   2.175
22378WAT      O67375   1.527   5.692   6.341
22378WAT     H167376   1.474   5.652   6.267
22378WAT     H267377   1.465   5.715   6.417
22379WAT      O67378   5.720   6.893   9.038
22379WAT     H167379   5.743   6.975   9.091
22379WAT     H267380   5.625   6.897   9.009
22380WAT      O67381   3.331   5.437   8.683
22380WAT     H167382   3.361   5.500   8.611
22380WAT     H267383   3.309   5.349   8.642
22381WAT      O67384   7.560   1.539   7.135
22381WAT     H167385   7.522   1.509   7.048
22381WAT     H267386   7.627   1.472   7.167
22382WAT      O67387   8.542   7.514   4.089
22382WAT     H167388   8.538   7.503   3.990
22382WAT     H267389   8.638   7.513   4.119
22383WAT      O67390   4.949   0.709   1.804
22383WAT     H167391   4.877   0.716   1.872
22383WAT     H267392   5.027   0.659   1.843
22384WAT      O67393   6.990   6.080   7.451
22384WAT     H167394   6.982   6.098   7.353
22384WAT     H267395   7.008   5.982   7.465
22385WAT      O67396   6.583   6.605   1.920
22385WAT     H167397   6.589   6.579   2.017
22385WAT     H267398   6.671   6.590   1.876
22386WAT      O67399   5.954   8.503   7.557
22386WAT     H167400   5.962   8.514   7.458
22386WAT     H267401   5.978   8.409   7.582
22387WAT      O67402   5.555   7.193   1.307
22387WAT     H167403   5.483   7.221   1.243
22387WAT     H267404   5.574   7.095   1.294
22388WAT      O67405   4.873   6.954   5.186
22388WAT     H167406   4.858   6.967   5.088
22388WAT     H267407   4.913   6.863   5.202
22389WAT      O67408   8.121   5.717   4.726
22389WAT     H167409   8.058   5.794   4.716
22389WAT     H267410   8.091   5.659   4.801
22390WAT      O67411   9.765   0.144   4.456
22390WAT     H167412   9.832   0.101   4.396
22390WAT     H267413   9.729   0.077   4.521
22391WAT      O67414   2.862   5.842   2.354
22391WAT     H167415   2.771   5.863   2.319
22391WAT     H267416   2.918   5.925   2.354
22392WAT      O67417   2.822   5.433   6.341
22392WAT     H167418   2.922   5.441   6.348
22392WAT     H267419   2.788   5.380   6.419
22393WAT      O67420   7.244   7.959   7.537
22393WAT     H167421   7.173   8.011   7.583
22393WAT     H267422   7.277   7.887   7.597
22394WAT      O67423   3.654   6.009   2.989
22394WAT     H167424   3.578   5.977   2.932
22394WAT     H267425   3.621   6.075   3.056
22395WAT      O67426   6.897   6.211   2.031
22395WAT     H167427   6.864   6.221   1.937
22395WAT     H267428   6.914   6.302   2.071
22396WAT      O67429   7.323   8.103   2.284
22396WAT     H167430   7.386   8.055   2.222
22396WAT     H267431   7.265   8.164   2.230
22397WAT      O67432   8.572   5.471   4.790
22397WAT     H167433   8.664   5.463   4.829
22397WAT     H267434   8.515   5.527   4.850
22398WAT      O67435   1.265   1.407   8.014
22398WAT     H167436   1.343   1.383   8.073
22398WAT     H267437   1.251   1.506   8.018
22399WAT      O67438   7.222   0.053   8.809
22399WAT     H167439   7.229   0.144   8.848
22399WAT     H267440   7.141   0.007   8.846
22400WAT      O67441   8.309   3.362   1.429
22400WAT     H167442   8.227   3.350   1.485
22400WAT     H267443   8.391   3.344   1.483
22401WAT      O67444   0.135   2.302   0.881
22401WAT     H167445   0.124   2.227   0.815
22401WAT     H267446   0.176   2.267   0.965
22402WAT      O67447   4.842   7.541   0.211
22402WAT     H167448   4.795   7.472   0.266
22402WAT     H267449   4.849   7.509   0.116
22403WAT      O67450   7.201   4.287   7.282
22403WAT     H167451   7.199   4.324   7.189
22403WAT     H267452   7.274   4.331   7.334
22404WAT      O67453   4.618   3.299   2.464
22404WAT     H167454   4.676   3.265   2.537
22404WAT     H267455   4.572   3.222   2.419
22405WAT      O67456   2.561   1.547   3.528
22405WAT     H167457   2.548   1.644   3.510
22405WAT     H267458   2.577   1.532   3.626
22406WAT      O67459   0.327   5.942   4.653
22406WAT     H167460   0.289   6.011   4.591
22406WAT     H267461   0.259   5.871   4.669
22407WAT      O67462   8.641   2.999   4.891
22407WAT     H167463   8.589   3.023   4.809
22407WAT     H267464   8.716   2.937   4.866
22408WAT      O67465   0.798   2.055   7.162
22408WAT     H167466   0.781   1.957   7.175
22408WAT     H267467   0.742   2.089   7.087
22409WAT      O67468   2.660   7.216   5.112
22409WAT     H167469   2.647   7.132   5.058
22409WAT     H267470   2.630   7.295   5.059
22410WAT      O67471   9.034   8.734   5.586
22410WAT     H167472   9.046   8.829   5.614
22410WAT     H267473   8.970   8.729   5.510
22411WAT      O67474   6.515   4.831   4.802
22411WAT     H167475   6.483   4.875   4.718
22411WAT     H267476   6.561   4.899   4.860
22412WAT      O67477   5.245   0.478   2.328
22412WAT     H167478   5.230   0.522   2.239
22412WAT     H267479   5.252   0.548   2.399
22413WAT      O67480   0.831   6.755   7.804
22413WAT     H167481   0.865   6.809   7.727
22413WAT     H267482   0.801   6.666   7.772
22414WAT      O67483   5.855   8.351   1.896
22414WAT     H167484   5.813   8.321   1.811
22414WAT     H267485   5.882   8.447   1.888
22415WAT      O67486   3.425   3.985   2.626
22415WAT     H167487   3.453   4.078   2.604
22415WAT     H267488   3.335   3.985   2.668
22416WAT      O67489   2.835   5.453   2.665
22416WAT     H167490   2.868   5.394   2.591
22416WAT     H267491   2.749   5.495   2.638
22417WAT      O67492   2.398   5.991   1.137
22417WAT     H167493   2.343   6.002   1.219
22417WAT     H267494   2.372   6.060   1.069
22418WAT      O67495   0.387   4.150   7.872
22418WAT     H167496   0.347   4.185   7.957
22418WAT     H267497   0.464   4.089   7.894
22419WAT      O67498   9.525   0.968   5.710
22419WAT     H167499   9.622   0.989   5.713
22419WAT     H267500   9.498   0.948   5.616
22420WAT      O67501   9.479   7.074   5.199
22420WAT     H167502   9.502   6.976   5.200
22420WAT     H267503   9.379   7.085   5.204
22421WAT      O67504   1.053   0.964   7.227
22421WAT     H167505   1.133   1.022   7.242
22421WAT     H267506   0.990   1.009   7.164
22422WAT      O67507   5.485   7.496   2.310
22422WAT     H167508   5.552   7.433   2.349
22422WAT     H267509   5.532   7.566   2.256
22423WAT      O67510   2.517   2.458   2.552
22423WAT     H167511   2.492   2.475   2.456
22423WAT     H267512   2.528   2.360   2.567
22424WAT      O67513   4.243   1.309   5.707
22424WAT     H167514   4.176   1.244   5.743
22424WAT     H267515   4.254   1.294   5.609
22425WAT      O67516   8.623   6.777   9.288
22425WAT     H167517   8.618   6.822   9.377
22425WAT     H267518   8.532   6.769   9.249
22426WAT      O67519   2.893   0.908   8.343
22426WAT     H167520   2.835   0.987   8.328
22426WAT     H267521   2.855   0.828   8.296
22427WAT      O67522   8.455   3.087   0.677
22427WAT     H167523   8.547   3.116   0.703
22427WAT     H267524   8.433   3.001   0.724
22428WAT      O67525   2.455   9.502   0.492
22428WAT     H167526   2.378   9.565   0.496
22428WAT     H267527   2.513   9.525   0.413
22429WAT      O67528   8.008   9.635   8.076
22429WAT     H167529   7.923   9.602   8.036
22429WAT     H267530   8.051   9.560   8.128
22430WAT      O67531   1.207   8.190   1.976
22430WAT     H167532   1.112   8.170   1.998
22430WAT     H267533   1.263   8.179   2.059
22431WAT      O67534   2.178   0.129   7.635
22431WAT     H167535   2.209   0.195   7.567
22431WAT     H267536   2.078   0.126   7.637
22432WAT      O67537   0.880   1.400   9.098
22432WAT     H167538   0.966   1.419   9.146
22432WAT     H267539   0.874   1.458   9.017
22433WAT      O67540   0.590   8.249   2.567
22433WAT     H167541   0.654   8.220   2.496
22433WAT     H267542   0.570   8.347   2.557
22434WAT      O67543   3.853   8.277   2.342
22434WAT     H167544   3.947   8.278   2.308
22434WAT     H267545   3.823   8.182   2.355
22435WAT      O67546   1.053   0.559   4.316
22435WAT     H167547   1.031   0.612   4.235
22435WAT     H267548   1.047   0.461   4.295
22436WAT      O67549   0.694   0.062   6.231
22436WAT     H167550   0.654   0.059   6.323
22436WAT     H267551   0.745  -0.022   6.215
22437WAT      O67552   4.987   1.762   5.248
22437WAT     H167553   4.897   1.790   5.283
22437WAT     H267554   4.975   1.708   5.165
22438WAT      O67555   5.094   7.281   4.174
22438WAT     H167556   5.140   7.370   4.172
22438WAT     H267557   5.001   7.292   4.209
22439WAT      O67558   4.780   8.366   4.273
22439WAT     H167559   4.774   8.399   4.179
22439WAT     H267560   4.780   8.444   4.336
22440WAT      O67561   6.858   6.165   8.559
22440WAT     H167562   6.839   6.194   8.466
22440WAT     H267563   6.822   6.073   8.574
22441WAT      O67564   6.325   0.869   9.170
22441WAT     H167565   6.271   0.901   9.092
22441WAT     H267566   6.335   0.943   9.237
22442WAT      O67567   6.355   8.521   5.790
22442WAT     H167568   6.399   8.567   5.713
22442WAT     H267569   6.255   8.524   5.778
22443WAT      O67570   9.339   1.358   8.359
22443WAT     H167571   9.422   1.336   8.410
22443WAT     H267572   9.322   1.288   8.290
22444WAT      O67573   9.205   2.253   0.643
22444WAT     H167574   9.261   2.334   0.627
22444WAT     H267575   9.265   2.173   0.650
22445WAT      O67576   0.212   3.668   3.807
22445WAT     H167577   0.259   3.752   3.835
22445WAT     H267578   0.251   3.636   3.720
22446WAT      O67579   8.721   1.028   1.252
22446WAT     H167580   8.730   0.992   1.159
22446WAT     H267581   8.771   0.968   1.316
22447WAT      O67582   9.802   9.260   7.494
22447WAT     H167583   9.709   9.228   7.515
22447WAT     H267584   9.846   9.293   7.578
22448WAT      O67585   0.882   5.603   6.478
22448WAT     H167586   0.876   5.513   6.434
22448WAT     H267587   0.820   5.606   6.557
22449WAT      O67588   7.647   0.165   3.410
22449WAT     H167589   7.706   0.151   3.331
22449WAT     H267590   7.593   0.248   3.398
22450WAT      O67591   6.558   5.580   0.547
22450WAT     H167592   6.544   5.616   0.455
22450WAT     H267593   6.563   5.656   0.612
22451WAT      O67594   7.040   4.334   5.302
22451WAT     H167595   6.956   4.362   5.348
22451WAT     H267596   7.016   4.289   5.215
22452WAT      O67597   5.472   8.853   5.637
22452WAT     H167598   5.376   8.833   5.656
22452WAT     H267599   5.490   8.950   5.656
22453WAT      O67600   6.326   6.291   6.451
22453WAT     H167601   6.360   6.372   6.500
22453WAT     H267602   6.345   6.302   6.353
22454WAT      O67603   0.914   1.719   4.791
22454WAT     H167604   0.822   1.682   4.782
22454WAT     H267605   0.977   1.647   4.817
22455WAT      O67606   5.661   8.178   0.469
22455WAT     H167607   5.743   8.231   0.491
22455WAT     H267608   5.639   8.188   0.372
22456WAT      O67609   5.351   3.661   2.194
22456WAT     H167610   5.345   3.568   2.160
22456WAT     H267611   5.439   3.701   2.168
22457WAT      O67612   8.637   1.436   1.035
22457WAT     H167613   8.668   1.379   1.111
22457WAT     H267614   8.688   1.522   1.035
22458WAT      O67615   4.184   2.782   9.543
22458WAT     H167616   4.210   2.690   9.571
22458WAT     H267617   4.093   2.779   9.502
22459WAT      O67618   4.794   5.725   8.098
22459WAT     H167619   4.705   5.710   8.140
22459WAT     H267620   4.782   5.778   8.014
22460WAT      O67621   3.805   9.511   0.980
22460WAT     H167622   3.867   9.449   0.932
22460WAT     H267623   3.857   9.564   1.048
22461WAT      O67624   0.625   6.487   2.688
22461WAT     H167625   0.655   6.519   2.598
22461WAT     H267626   0.704   6.472   2.747
22462WAT      O67627   7.169   2.351   9.124
22462WAT     H167628   7.149   2.382   9.031
22462WAT     H267629   7.241   2.408   9.163
22463WAT      O67630   7.050   7.272   7.541
22463WAT     H167631   7.004   7.196   7.496
22463WAT     H267632   7.028   7.357   7.494
22464WAT      O67633   4.323   5.463   9.518
22464WAT     H167634   4.233   5.491   9.551
22464WAT     H267635   4.355   5.385   9.573
22465WAT      O67636   2.509   8.494   9.025
22465WAT     H167637   2.580   8.534   9.083
22465WAT     H267638   2.463   8.420   9.074
22466WAT      O67639   3.134   9.766   8.933
22466WAT     H167640   3.221   9.719   8.924
22466WAT     H267641   3.096   9.786   8.843
22467WAT      O67642   2.266   1.580   8.461
22467WAT     H167643   2.294   1.657   8.517
22467WAT     H267644   2.170   1.591   8.434
22468WAT      O67645   5.304   5.675   3.946
22468WAT     H167646   5.347   5.671   3.856
22468WAT     H267647   5.362   5.628   4.013
22469WAT      O67648   4.442   8.137   6.999
22469WAT     H167649   4.429   8.099   7.090
22469WAT     H267650   4.505   8.214   7.003
22470WAT      O67651   0.694   5.429   2.408
22470WAT     H167652   0.724   5.375   2.487
22470WAT     H267653   0.623   5.493   2.437
22471WAT      O67654   7.794   6.522   3.863
22471WAT     H167655   7.878   6.574   3.880
22471WAT     H267656   7.761   6.542   3.770
22472WAT      O67657   3.708   7.865   8.198
22472WAT     H167658   3.690   7.790   8.136
22472WAT     H267659   3.794   7.848   8.247
22473WAT      O67660   0.461   6.450   9.754
22473WAT     H167661   0.498   6.394   9.681
22473WAT     H267662   0.404   6.394   9.815
22474WAT      O67663   9.521   6.231   3.011
22474WAT     H167664   9.478   6.185   2.933
22474WAT     H267665   9.578   6.165   3.061
22475WAT      O67666   7.901   7.699   5.860
22475WAT     H167667   7.911   7.619   5.919
22475WAT     H267668   7.886   7.670   5.766
22476WAT      O67669   8.906   0.837   6.880
22476WAT     H167670   8.965   0.915   6.898
22476WAT     H267671   8.810   0.865   6.887
22477WAT      O67672   5.404   9.127   6.532
22477WAT     H167673   5.351   9.046   6.507
22477WAT     H267674   5.481   9.100   6.591
22478WAT      O67675   8.713   1.145   7.023
22478WAT     H167676   8.767   1.209   7.079
22478WAT     H267677   8.630   1.192   6.991
22479WAT      O67678   3.782   0.976   2.544
22479WAT     H167679   3.793   0.977   2.445
22479WAT     H267680   3.801   1.067   2.581
22480WAT      O67681   2.910   4.123   3.389
22480WAT     H167682   2.828   4.066   3.388
22480WAT     H267683   2.928   4.157   3.296
22481WAT      O67684   5.349   5.496   7.813
22481WAT     H167685   5.340   5.586   7.771
22481WAT     H267686   5.407   5.503   7.895
22482WAT      O67687   3.845   1.641   8.961
22482WAT     H167688   3.857   1.608   9.054
22482WAT     H267689   3.853   1.741   8.959
22483WAT      O67690   1.926   9.038   2.588
22483WAT     H167691   2.007   9.094   2.573
22483WAT     H267692   1.847   9.097   2.603
22484WAT      O67693   1.303   3.382   1.087
22484WAT     H167694   1.370   3.356   1.157
22484WAT     H267695   1.278   3.301   1.034
22485WAT      O67696   5.842   2.120   9.635
22485WAT     H167697   5.828   2.179   9.556
22485WAT     H267698   5.807   2.166   9.717
22486WAT      O67699   8.356   4.229   3.521
22486WAT     H167700   8.452   4.257   3.525
22486WAT     H267701   8.349   4.143   3.471
22487WAT      O67702   0.587   1.497   8.026
22487WAT     H167703   0.554   1.504   8.120
22487WAT     H267704   0.520   1.450   7.969
22488WAT      O67705   8.755   0.048   5.418
22488WAT     H167706   8.676  -0.000   5.455
22488WAT     H267707   8.735   0.078   5.325
22489WAT      O67708   4.262   1.339   2.133
22489WAT     H167709   4.241   1.262   2.194
22489WAT     H267710   4.295   1.304   2.045
22490WAT      O67711   7.184   1.462   9.435
22490WAT     H167712   7.086   1.443   9.431
22490WAT     H267713   7.233   1.399   9.375
22491WAT      O67714   7.020   9.812   2.676
22491WAT     H167715   7.076   9.798   2.758
22491WAT     H267716   6.939   9.866   2.700
22492WAT      O67717   8.845   3.429   5.342
22492WAT     H167718   8.873   3.516   5.381
22492WAT     H267719   8.842   3.360   5.415
22493WAT      O67720   2.090   1.751   7.434
22493WAT     H167721   2.118   1.835   7.388
22493WAT     H267722   1.991   1.741   7.428
22494WAT      O67723   5.792   5.927   7.302
22494WAT     H167724   5.701   5.890   7.282
22494WAT     H267725   5.848   5.857   7.346
22495WAT      O67726   3.441   5.639   3.315
22495WAT     H167727   3.503   5.567   3.283
22495WAT     H267728   3.386   5.604   3.391
22496WAT      O67729   7.791   2.017   5.844
22496WAT     H167730   7.795   2.117   5.839
22496WAT     H267731   7.788   1.988   5.940
22497WAT      O67732   7.402   5.887   3.165
22497WAT     H167733   7.367   5.842   3.083
22497WAT     H267734   7.502   5.891   3.160
22498WAT      O67735   3.521   1.907   4.066
22498WAT     H167736   3.603   1.880   4.116
22498WAT     H267737   3.504   1.841   3.993
22499WAT      O67738   6.080   3.581   9.229
22499WAT     H167739   5.988   3.621   9.232
22499WAT     H267740   6.128   3.602   9.314
22500WAT      O67741   7.238   7.987   4.610
22500WAT     H167742   7.230   8.054   4.684
22500WAT     H267743   7.275   8.031   4.529
22501WAT      O67744   1.304   4.851   7.025
22501WAT     H167745   1.231   4.892   7.080
22501WAT     H267746   1.304   4.752   7.038
22502WAT      O67747   1.447   3.929   4.231
22502WAT     H167748   1.459   4.005   4.294
22502WAT     H267749   1.482   3.954   4.141
22503WAT      O67750   4.481   3.093   2.318
22503WAT     H167751   4.542   3.064   2.245
22503WAT     H267752   4.393   3.118   2.280
22504WAT      O67753   1.147   9.222   0.238
22504WAT     H167754   1.241   9.241   0.266
22504WAT     H267755   1.101   9.308   0.217
22505WAT      O67756   6.422   5.925   9.073
22505WAT     H167757   6.339   5.897   9.025
22505WAT     H267758   6.452   6.014   9.037
22506WAT      O67759   6.684   6.043   7.375
22506WAT     H167760   6.681   5.945   7.398
22506WAT     H267761   6.730   6.055   7.287
22507WAT      O67762   7.893   1.439   4.649
22507WAT     H167763   7.811   1.468   4.698
22507WAT     H267764   7.895   1.339   4.642
22508WAT      O67765   4.247   0.354   2.320
22508WAT     H167766   4.299   0.376   2.403
22508WAT     H267767   4.280   0.411   2.244
22509WAT      O67768   9.723   7.127   5.290
22509WAT     H167769   9.745   7.185   5.369
22509WAT     H267770   9.624   7.114   5.284
22510WAT      O67771   2.428   7.339   0.619
22510WAT     H167772   2.502   7.406   0.630
22510WAT     H267773   2.461   7.248   0.646
22511WAT      O67774   8.137   0.324   6.169
22511WAT     H167775   8.190   0.315   6.085
22511WAT     H267776   8.197   0.352   6.244
22512WAT      O67777   6.515   7.066   7.448
22512WAT     H167778   6.502   7.063   7.547
22512WAT     H267779   6.566   6.986   7.418
22513WAT      O67780   7.788   6.141   5.095
22513WAT     H167781   7.764   6.047   5.070
22513WAT     H267782   7.836   6.141   5.182
22514WAT      O67783   0.499   1.330   2.744
22514WAT     H167784   0.475   1.350   2.649
22514WAT     H267785   0.429   1.270   2.783
22515WAT      O67786   1.911   9.427   3.031
22515WAT     H167787   1.865   9.340   3.014
22515WAT     H267788   1.864   9.476   3.105
22516WAT      O67789   7.686   0.620   6.063
22516WAT     H167790   7.693   0.665   5.974
22516WAT     H267791   7.619   0.670   6.119
22517WAT      O67792   9.770   6.658   1.187
22517WAT     H167793   9.759   6.561   1.170
22517WAT     H267794   9.837   6.696   1.124
22518WAT      O67795   8.028   6.703   0.940
22518WAT     H167796   8.080   6.666   1.016
22518WAT     H267797   7.986   6.628   0.888
22519WAT      O67798   1.762   5.681   8.507
22519WAT     H167799   1.674   5.699   8.552
22519WAT     H267800   1.836   5.711   8.566
22520WAT      O67801   2.320   9.705   1.366
22520WAT     H167802   2.291   9.612   1.341
22520WAT     H267803   2.264   9.738   1.441
22521WAT      O67804   8.556   7.662   9.612
22521WAT     H167805   8.651   7.630   9.622
22521WAT     H267806   8.550   7.724   9.535
22522WAT      O67807   4.437   3.379   8.158
22522WAT     H167808   4.533   3.404   8.150
22522WAT     H267809   4.385   3.420   8.083
22523WAT      O67810   2.760   5.386   1.184
22523WAT     H167811   2.694   5.457   1.208
22523WAT     H267812   2.814   5.416   1.105
22524WAT      O67813   7.244   6.221   8.153
22524WAT     H167814   7.225   6.306   8.202
22524WAT     H267815   7.283   6.241   8.064
22525WAT      O67816   8.539   5.227   0.561
22525WAT     H167817   8.566   5.258   0.470
22525WAT     H267818   8.528   5.128   0.561
22526WAT      O67819   6.787   0.709   7.100
22526WAT     H167820   6.816   0.804   7.114
22526WAT     H267821   6.793   0.659   7.187
22527WAT      O67822   8.773   2.093   7.144
22527WAT     H167823   8.783   2.015   7.205
22527WAT     H267824   8.738   2.171   7.195
22528WAT      O67825   7.380   3.326   1.920
22528WAT     H167826   7.371   3.317   1.821
22528WAT     H267827   7.432   3.408   1.942
22529WAT      O67828   1.933   2.346   7.439
22529WAT     H167829   1.998   2.276   7.409
22529WAT     H267830   1.980   2.434   7.443
22530WAT      O67831   9.485   9.058   3.098
22530WAT     H167832   9.458   8.962   3.088
22530WAT     H267833   9.555   9.066   3.169
22531WAT      O67834   8.077   1.261   2.735
22531WAT     H167835   8.013   1.236   2.808
22531WAT     H267836   8.164   1.288   2.774
22532WAT      O67837   5.150   4.655   6.068
22532WAT     H167838   5.124   4.686   5.976
22532WAT     H267839   5.240   4.694   6.091
22533WAT      O67840   7.903   8.686   8.299
22533WAT     H167841   7.966   8.618   8.337
22533WAT     H267842   7.836   8.712   8.369
22534WAT      O67843   0.387   2.968   3.026
22534WAT     H167844   0.457   2.947   3.094
22534WAT     H267845   0.331   2.887   3.009
22535WAT      O67846   4.166   7.593   4.229
22535WAT     H167847   4.140   7.683   4.264
22535WAT     H267848   4.199   7.603   4.135
22536WAT      O67849   2.699   5.097   4.824
22536WAT     H167850   2.605   5.069   4.842
22536WAT     H267851   2.723   5.078   4.729
22537WAT      O67852   0.592   5.104   1.734
22537WAT     H167853   0.666   5.162   1.700
22537WAT     H267854   0.532   5.158   1.794
22538WAT      O67855   0.342   3.160   7.158
22538WAT     H167856   0.256   3.141   7.205
22538WAT     H267857   0.366   3.256   7.171
22539WAT      O67858   0.629   4.727   9.405
22539WAT     H167859   0.710   4.777   9.372
22539WAT     H267860   0.646   4.629   9.400
22540WAT      O67861   5.478   6.399   9.452
22540WAT     H167862   5.482   6.347   9.367
22540WAT     H267863   5.543   6.359   9.518
22541WAT      O67864   3.780   2.807   0.181
22541WAT     H167865   3.876   2.831   0.194
22541WAT     H267866   3.732   2.884   0.139
22542WAT      O67867   6.880   3.576   2.479
22542WAT     H167868   6.807   3.640   2.504
22542WAT     H267869   6.840   3.495   2.436
22543WAT      O67870   6.151   9.729   5.780
22543WAT     H167871   6.115   9.808   5.730
22543WAT     H267872   6.228   9.690   5.730
22544WAT      O67873   1.368   0.175   2.872
22544WAT     H167874   1.420   0.231   2.937
22544WAT     H267875   1.431   0.122   2.815
22545WAT      O67876   4.699   9.838   6.680
22545WAT     H167877   4.605   9.853   6.709
22545WAT     H267878   4.759   9.836   6.760
22546WAT      O67879   0.538   3.445   7.479
22546WAT     H167880   0.452   3.416   7.522
22546WAT     H267881   0.587   3.505   7.543
22547WAT      O67882   2.670   6.356   6.014
22547WAT     H167883   2.736   6.281   6.014
22547WAT     H267884   2.702   6.429   6.074
22548WAT      O67885   2.118   3.338   0.602
22548WAT     H167886   2.131   3.327   0.700
22548WAT     H267887   2.025   3.310   0.577
22549WAT      O67888   6.974   3.193   7.828
22549WAT     H167889   7.013   3.248   7.754
22549WAT     H267890   6.949   3.103   7.793
22550WAT      O67891   5.546   2.428   0.096
22550WAT     H167892   5.452   2.451   0.071
22550WAT     H267893   5.556   2.436   0.195
22551WAT      O67894   5.593   0.780   0.748
22551WAT     H167895   5.679   0.773   0.699
22551WAT     H267896   5.602   0.735   0.837
22552WAT      O67897   1.649   1.819   9.871
22552WAT     H167898   1.604   1.832   9.783
22552WAT     H267899   1.599   1.751   9.925
22553WAT      O67900   1.485   7.547   5.382
22553WAT     H167901   1.450   7.537   5.475
22553WAT     H267902   1.538   7.466   5.358
22554WAT      O67903   4.482   3.822   7.534
22554WAT     H167904   4.502   3.756   7.607
22554WAT     H267905   4.533   3.798   7.452
22555WAT      O67906   1.979   3.365   2.079
22555WAT     H167907   2.026   3.402   2.159
22555WAT     H267908   1.881   3.358   2.098
22556WAT      O67909   0.923   3.636   4.108
22556WAT     H167910   0.895   3.708   4.171
22556WAT     H267911   1.021   3.619   4.117
22557WAT      O67912   5.950   0.641   8.148
22557WAT     H167913   5.943   0.711   8.219
22557WAT     H267914   5.904   0.673   8.065
22558WAT      O67915   9.830   4.901   2.100
22558WAT     H167916   9.925   4.877   2.080
22558WAT     H267917   9.779   4.819   2.125
22559WAT      O67918   4.016   1.098   8.192
22559WAT     H167919   3.976   1.181   8.231
22559WAT     H267920   3.976   1.080   8.103
22560WAT      O67921   9.852   7.016   9.371
22560WAT     H167922   9.828   7.051   9.461
22560WAT     H267923   9.789   7.053   9.303
22561WAT      O67924   1.299   5.270   1.601
22561WAT     H167925   1.266   5.258   1.507
22561WAT     H267926   1.318   5.367   1.617
22562WAT      O67927   3.620   1.929   5.848
22562WAT     H167928   3.630   1.940   5.947
22562WAT     H267929   3.559   2.001   5.813
22563WAT      O67930   2.294   7.411   4.054
22563WAT     H167931   2.319   7.457   4.139
22563WAT     H267932   2.218   7.460   4.011
22564WAT      O67933   5.264   5.328   5.854
22564WAT     H167934   5.266   5.278   5.767
22564WAT     H267935   5.350   5.379   5.865
22565WAT      O67936   9.560   3.386   6.946
22565WAT     H167937   9.612   3.465   6.977
22565WAT     H267938   9.503   3.352   7.020
22566WAT      O67939   1.203   9.701   8.006
22566WAT     H167940   1.112   9.712   8.046
22566WAT     H267941   1.215   9.606   7.975
22567WAT      O67942   7.086   7.632   8.821
22567WAT     H167943   7.107   7.567   8.748
22567WAT     H267944   7.143   7.612   8.900
22568WAT      O67945   2.569   1.105   2.765
22568WAT     H167946   2.627   1.102   2.846
22568WAT     H267947   2.504   1.029   2.768
22569WAT      O67948   6.147   3.498   1.039
22569WAT     H167949   6.085   3.429   1.002
22569WAT     H267950   6.169   3.565   0.968
22570WAT      O67951   9.308   4.584   5.859
22570WAT     H167952   9.313   4.656   5.928
22570WAT     H267953   9.380   4.518   5.874
22571WAT      O67954   8.831   6.129   3.208
22571WAT     H167955   8.809   6.034   3.187
22571WAT     H267956   8.750   6.176   3.241
22572WAT      O67957   1.424   2.366   3.731
22572WAT     H167958   1.420   2.273   3.767
22572WAT     H267959   1.491   2.370   3.657
22573WAT      O67960   1.673   0.449   9.260
22573WAT     H167961   1.636   0.421   9.172
22573WAT     H267962   1.650   0.381   9.330
22574WAT      O67963   9.367   4.298   1.402
22574WAT     H167964   9.337   4.327   1.493
22574WAT     H267965   9.320   4.213   1.377
22575WAT      O67966   9.279   2.732   9.130
22575WAT     H167967   9.362   2.779   9.162
22575WAT     H267968   9.269   2.646   9.179
22576WAT      O67969   7.022   0.526   4.872
22576WAT     H167970   7.001   0.440   4.826
22576WAT     H267971   6.980   0.527   4.962
22577WAT      O67972   8.909   3.355   9.718
22577WAT     H167973   8.953   3.270   9.691
22577WAT     H267974   8.810   3.348   9.705
22578WAT      O67975   8.880   2.324   3.135
22578WAT     H167976   8.880   2.418   3.168
22578WAT     H267977   8.920   2.321   3.043
22579WAT      O67978   4.004   3.826   7.910
22579WAT     H167979   3.915   3.853   7.873
22579WAT     H267980   4.065   3.905   7.912
22580WAT      O67981   1.051   6.303   8.064
22580WAT     H167982   0.976   6.278   8.125
22580WAT     H267983   1.082   6.395   8.087
22581WAT      O67984   7.372   7.721   6.014
22581WAT     H167985   7.337   7.773   5.936
22581WAT     H267986   7.466   7.691   5.994
22582WAT      O67987   0.121   5.039   6.807
22582WAT     H167988   0.029   5.070   6.829
22582WAT     H267989   0.180   5.048   6.888
22583WAT      O67990   1.515   1.556   0.134
22583WAT     H167991   1.585   1.515   0.076
22583WAT     H267992   1.465   1.485   0.183
22584WAT      O67993   5.196   7.857   1.747
22584WAT     H167994   5.104   7.871   1.710
22584WAT     H267995   5.214   7.759   1.754
22585WAT      O67996   7.889   4.342   6.125
22585WAT     H167997   7.956   4.268   6.131
22585WAT     H267998   7.906   4.397   6.044
22586WAT      O67999   2.108   7.116   8.588
22586WAT     H168000   2.139   7.111   8.494
22586WAT     H268001   2.025   7.061   8.600
22587WAT      O68002   3.356   1.174   1.085
22587WAT     H168003   3.323   1.268   1.093
22587WAT     H268004   3.389   1.158   0.992
22588WAT      O68005   6.304   1.155   8.227
22588WAT     H168006   6.374   1.226   8.220
22588WAT     H268007   6.315   1.106   8.313
22589WAT      O68008   3.313   8.347   2.707
22589WAT     H168009   3.344   8.314   2.619
22589WAT     H268010   3.288   8.270   2.765
22590WAT      O68011   8.646   9.461   7.668
22590WAT     H168012   8.653   9.363   7.648
22590WAT     H268013   8.606   9.473   7.759
22591WAT      O68014   3.815   2.715   3.540
22591WAT     H168015   3.805   2.678   3.632
22591WAT     H268016   3.725   2.733   3.501
22592WAT      O68017   7.112   1.313   2.327
22592WAT     H168018   7.168   1.325   2.245
22592WAT     H268019   7.124   1.392   2.388
22593WAT      O68020   5.363   2.687   1.974
22593WAT     H168021   5.386   2.682   1.876
22593WAT     H268022   5.306   2.768   1.990
22594WAT      O68023   3.141   5.834   9.699
22594WAT     H168024   3.084   5.906   9.738
22594WAT     H268025   3.178   5.864   9.611
22595WAT      O68026   3.711   9.436   1.868
22595WAT     H168027   3.780   9.403   1.933
22595WAT     H268028   3.722   9.535   1.856
22596WAT      O68029   3.320   1.758   5.830
22596WAT     H168030   3.225   1.790   5.828
22596WAT     H268031   3.373   1.805   5.759
22597WAT      O68032   6.204   2.552   8.834
22597WAT     H168033   6.143   2.610   8.780
22597WAT     H268034   6.222   2.467   8.784
22598WAT      O68035   7.866   8.177   7.254
22598WAT     H168036   7.784   8.164   7.199
22598WAT     H268037   7.947   8.166   7.197
22599WAT      O68038   0.302   0.837   7.290
22599WAT     H168039   0.341   0.928   7.303
22599WAT     H268040   0.360   0.769   7.334
22600WAT      O68041   2.802   1.507   8.816
22600WAT     H168042   2.827   1.411   8.806
22600WAT     H268043   2.763   1.523   8.907
22601WAT      O68044   8.682   0.970   2.770
22601WAT     H168045   8.605   1.004   2.825
22601WAT     H268046   8.729   1.048   2.729
22602WAT      O68047   0.054   7.181   2.750
22602WAT     H168048   0.077   7.276   2.772
22602WAT     H268049  -0.028   7.155   2.800
22603WAT      O68050   5.387   8.803   8.911
22603WAT     H168051   5.435   8.839   8.991
22603WAT     H268052   5.410   8.706   8.900
22604WAT      O68053   3.489   5.599   3.925
22604WAT     H168054   3.416   5.557   3.978
22604WAT     H268055   3.451   5.669   3.865
22605WAT      O68056   3.592   3.986   1.202
22605WAT     H168057   3.574   3.973   1.104
22605WAT     H268058   3.655   3.915   1.234
22606WAT      O68059   9.109   7.045   5.412
22606WAT     H168060   9.148   7.128   5.372
22606WAT     H268061   9.010   7.043   5.396
22607WAT      O68062   8.924   6.814   7.016
22607WAT     H168063   8.996   6.798   7.085
22607WAT     H268064   8.958   6.879   6.948
22608WAT      O68065   3.310   3.769   0.731
22608WAT     H168066   3.335   3.766   0.828
22608WAT     H268067   3.220   3.727   0.718
22609WAT      O68068   6.104   0.791   0.331
22609WAT     H168069   6.088   0.882   0.292
22609WAT     H268070   6.190   0.791   0.381
22610WAT      O68071   1.451   3.901   8.930
22610WAT     H168072   1.523   3.838   8.960
22610WAT     H268073   1.438   3.972   8.999
22611WAT      O68074   2.872   7.486   1.049
22611WAT     H168075   2.953   7.514   1.101
22611WAT     H268076   2.792   7.486   1.109
22612WAT      O68077   6.298   5.805   1.803
22612WAT     H168078   6.341   5.715   1.813
22612WAT     H268079   6.324   5.843   1.714
22613WAT      O68080   1.072   3.668   6.053
22613WAT     H168081   0.973   3.654   6.046
22613WAT     H268082   1.112   3.595   6.108
22614WAT      O68083   2.205   3.458   8.626
22614WAT     H168084   2.303   3.442   8.616
22614WAT     H268085   2.162   3.376   8.666
22615WAT      O68086   9.085   1.736   2.192
22615WAT     H168087   9.100   1.795   2.272
22615WAT     H268088   9.173   1.699   2.162
22616WAT      O68089   8.430   5.602   5.344
22616WAT     H168090   8.435   5.694   5.383
22616WAT     H268091   8.522   5.562   5.340
22617WAT      O68092   1.479   2.566   1.248
22617WAT     H168093   1.519   2.598   1.162
22617WAT     H268094   1.534   2.600   1.324
22618WAT      O68095   7.910   5.659   6.601
22618WAT     H168096   7.877   5.716   6.677
22618WAT     H268097   7.986   5.602   6.633
22619WAT      O68098   5.273   1.436   0.214
22619WAT     H168099   5.298   1.533   0.216
22619WAT     H268100   5.282   1.397   0.305
22620WAT      O68101   1.635   2.079   1.613
22620WAT     H168102   1.596   2.140   1.544
22620WAT     H268103   1.635   2.125   1.702
22621WAT      O68104   0.708   4.654   8.280
22621WAT     H168105   0.746   4.575   8.329
22621WAT     H268106   0.755   4.664   8.192
22622WAT      O68107   6.776   1.540   8.151
22622WAT     H168108   6.791   1.446   8.124
22622WAT     H268109   6.721   1.543   8.235
22623WAT      O68110   5.205   3.729   8.190
22623WAT     H168111   5.218   3.785   8.109
22623WAT     H268112   5.263   3.765   8.264
22624WAT      O68113   5.543   9.287   0.131
22624WAT     H168114   5.530   9.377   0.171
22624WAT     H268115   5.623   9.243   0.173
22625WAT      O68116   7.631   3.564   4.393
22625WAT     H168117   7.729   3.578   4.383
22625WAT     H268118   7.582   3.645   4.362
22626WAT      O68119   4.754   6.776   1.254
22626WAT     H168120   4.737   6.874   1.247
22626WAT     H268121   4.667   6.727   1.256
22627WAT      O68122   3.190   9.022   3.614
22627WAT     H168123   3.265   8.965   3.581
22627WAT     H268124   3.126   8.965   3.667
22628WAT      O68125   9.304   7.499   9.539
22628WAT     H168126   9.350   7.490   9.450
22628WAT     H268127   9.209   7.469   9.530
22629WAT      O68128   3.400   1.311   6.774
22629WAT     H168129   3.338   1.256   6.830
22629WAT     H268130   3.395   1.281   6.679
22630WAT      O68131   8.466   0.883   5.872
22630WAT     H168132   8.553   0.920   5.903
22630WAT     H268133   8.474   0.785   5.857
22631WAT      O68134   2.574   5.378   3.224
22631WAT     H168135   2.526   5.303   3.270
22631WAT     H268136   2.616   5.344   3.140
22632WAT      O68137   5.698   7.993   2.088
22632WAT     H168138   5.783   7.951   2.055
22632WAT     H268139   5.709   8.092   2.092
22633WAT      O68140   8.131   7.848   6.386
22633WAT     H168141   8.096   7.809   6.301
22633WAT     H268142   8.091   7.939   6.400
22634WAT      O68143   8.311   3.429   1.774
22634WAT     H168144   8.361   3.353   1.733
22634WAT     H268145   8.375   3.505   1.791
22635WAT      O68146   5.043   9.532   8.149
22635WAT     H168147   4.974   9.492   8.089
22635WAT     H268148   4.998   9.582   8.223
22636WAT      O68149   2.385   0.913   8.749
22636WAT     H168150   2.436   0.993   8.779
22636WAT     H268151   2.288   0.937   8.740
22637WAT      O68152   1.274   1.217   0.589
22637WAT     H168153   1.330   1.293   0.624
22637WAT     H268154   1.323   1.171   0.515
22638WAT      O68155   5.688   1.420   5.842
22638WAT     H168156   5.645   1.330   5.849
22638WAT     H268157   5.785   1.412   5.867
22639WAT      O68158   1.429   4.174   0.436
22639WAT     H168159   1.445   4.134   0.527
22639WAT     H268160   1.494   4.134   0.371
22640WAT      O68161   9.695   3.368   1.528
22640WAT     H168162   9.727   3.385   1.621
22640WAT     H268163   9.709   3.271   1.506
22641WAT      O68164   3.414   4.064   7.054
22641WAT     H168165   3.352   4.132   7.094
22641WAT     H268166   3.429   3.990   7.120
22642WAT      O68167   5.602   0.249   7.825
22642WAT     H168168   5.622   0.155   7.799
22642WAT     H268169   5.512   0.275   7.788
22643WAT      O68170   4.498   7.988   5.952
22643WAT     H168171   4.547   8.074   5.933
22643WAT     H268172   4.401   8.000   5.935
22644WAT      O68173   4.114   3.445   6.317
22644WAT     H168174   4.030   3.416   6.362
22644WAT     H268175   4.105   3.435   6.218
22645WAT      O68176   0.672   4.520   8.708
22645WAT     H168177   0.578   4.545   8.684
22645WAT     H268178   0.728   4.603   8.712
22646WAT      O68179   7.818   1.245   8.263
22646WAT     H168180   7.725   1.277   8.241
22646WAT     H268181   7.841   1.274   8.356
22647WAT      O68182   7.795   7.355   7.375
22647WAT     H168183   7.758   7.446   7.392
22647WAT     H268184   7.753   7.289   7.437
22648WAT      O68185   9.265   1.138   8.604
22648WAT     H168186   9.190   1.155   8.668
22648WAT     H268187   9.332   1.078   8.646
22649WAT      O68188   4.031   4.650   2.996
22649WAT     H168189   4.077   4.630   2.909
22649WAT     H268190   4.060   4.740   3.029
22650WAT      O68191   4.991   8.408   8.257
22650WAT     H168192   5.026   8.322   8.222
22650WAT     H268193   5.043   8.484   8.218
22651WAT      O68194   9.107   7.051   8.788
22651WAT     H168195   9.086   7.036   8.885
22651WAT     H268196   9.122   6.962   8.744
22652WAT      O68197   2.104   9.566   2.865
22652WAT     H168198   2.020   9.567   2.921
22652WAT     H268199   2.080   9.574   2.769
22653WAT      O68200   9.289   6.165   0.674
22653WAT     H168201   9.319   6.184   0.767
22653WAT     H268202   9.367   6.172   0.611
22654WAT      O68203   0.288   9.621   8.983
22654WAT     H168204   0.220   9.614   9.056
22654WAT     H268205   0.375   9.584   9.016
22655WAT      O68206   9.208   6.983   9.159
22655WAT     H168207   9.126   6.962   9.107
22655WAT     H268208   9.215   7.082   9.172
22656WAT      O68209   3.779   8.593   2.383
22656WAT     H168210   3.741   8.520   2.439
22656WAT     H268211   3.790   8.562   2.288
22657WAT      O68212   9.335   4.122   1.015
22657WAT     H168213   9.422   4.160   1.045
22657WAT     H268214   9.290   4.186   0.953
22658WAT      O68215   6.601   8.150   4.699
22658WAT     H168216   6.563   8.210   4.629
22658WAT     H268217   6.589   8.054   4.672
22659WAT      O68218   6.451   1.731   1.092
22659WAT     H168219   6.365   1.778   1.110
22659WAT     H268220   6.434   1.652   1.033
22660WAT      O68221   4.313   1.184   5.073
22660WAT     H168222   4.300   1.272   5.027
22660WAT     H268223   4.237   1.168   5.136
22661WAT      O68224   5.925   5.942   0.776
22661WAT     H168225   5.915   5.862   0.835
22661WAT     H268226   5.895   5.918   0.683
22662WAT      O68227   9.276   3.674   2.220
22662WAT     H168228   9.190   3.722   2.203
22662WAT     H268229   9.260   3.576   2.223
22663WAT      O68230   7.669   0.570   7.961
22663WAT     H168231   7.628   0.661   7.962
22663WAT     H268232   7.602   0.503   7.995
22664WAT      O68233   9.859   2.949   0.139
22664WAT     H168234   9.855   2.852   0.162
22664WAT     H268235   9.876   2.960   0.041
22665WAT      O68236   3.006   5.292   3.767
22665WAT     H168237   2.918   5.244   3.767
22665WAT     H268238   3.024   5.328   3.675
22666WAT      O68239   9.048   7.622   5.727
22666WAT     H168240   9.026   7.526   5.744
22666WAT     H268241   9.017   7.677   5.805
22667WAT      O68242   1.198   0.913   1.673
22667WAT     H168243   1.191   0.939   1.770
22667WAT     H268244   1.197   0.996   1.617
22668WAT      O68245   9.585   1.397   9.091
22668WAT     H168246   9.641   1.453   9.152
22668WAT     H268247   9.499   1.375   9.136
22669WAT      O68248   8.531   6.512   7.331
22669WAT     H168249   8.510   6.499   7.428
22669WAT     H268250   8.605   6.450   7.304
22670WAT      O68251   1.733   6.404   2.115
22670WAT     H168252   1.659   6.337   2.103
22670WAT     H268253   1.758   6.409   2.212
22671WAT      O68254   1.962   8.187   5.283
22671WAT     H168255   1.864   8.205   5.279
22671WAT     H268256   1.978   8.088   5.283
22672WAT      O68257   2.847   6.058   7.946
22672WAT     H168258   2.910   5.981   7.941
22672WAT     H268259   2.896   6.143   7.927
22673WAT      O68260   1.928   3.266   6.408
22673WAT     H168261   1.895   3.216   6.488
22673WAT     H268262   1.967   3.353   6.437
22674WAT      O68263   1.052   2.048   6.287
22674WAT     H168264   0.974   2.105   6.258
22674WAT     H268265   1.025   1.992   6.366
22675WAT      O68266   2.081   4.793   7.690
22675WAT     H168267   2.047   4.838   7.607
22675WAT     H268268   2.011   4.798   7.761
22676WAT      O68269   0.471   5.445   1.093
22676WAT     H168270   0.467   5.363   1.035
22676WAT     H268271   0.540   5.508   1.057
22677WAT      O68272   8.559   7.675   2.079
22677WAT     H168273   8.544   7.650   2.175
22677WAT     H268274   8.505   7.616   2.020
22678WAT      O68275   2.338   5.407   8.734
22678WAT     H168276   2.252   5.356   8.733
22678WAT     H268277   2.359   5.436   8.828
22679WAT      O68278   9.664   1.993   6.924
22679WAT     H168279   9.748   1.957   6.963
22679WAT     H268280   9.638   2.077   6.971
22680WAT      O68281   3.861   4.466   0.786
22680WAT     H168282   3.790   4.442   0.720
22680WAT     H268283   3.869   4.565   0.792
22681WAT      O68284   2.860   4.772   9.642
22681WAT     H168285   2.932   4.720   9.597
22681WAT     H268286   2.817   4.716   9.713
22682WAT      O68287   7.779   1.940   6.104
22682WAT     H168288   7.826   1.950   6.191
22682WAT     H268289   7.685   1.910   6.120
22683WAT      O68290   1.016   4.074   3.100
22683WAT     H168291   1.039   4.008   3.171
22683WAT     H268292   1.040   4.037   3.010
22684WAT      O68293   6.450   5.699   5.973
22684WAT     H168294   6.463   5.627   6.041
22684WAT     H268295   6.379   5.671   5.909
22685WAT      O68296   8.735   5.014   5.684
22685WAT     H168297   8.685   5.013   5.598
22685WAT     H268298   8.822   5.062   5.672
22686WAT      O68299   4.559   1.514   9.489
22686WAT     H168300   4.656   1.539   9.484
22686WAT     H268301   4.537   1.451   9.414
22687WAT      O68302   4.156   5.146   3.135
22687WAT     H168303   4.134   5.241   3.114
22687WAT     H268304   4.204   5.142   3.223
22688WAT      O68305   3.952   8.538   7.292
22688WAT     H168306   3.953   8.579   7.383
22688WAT     H268307   3.945   8.438   7.301
22689WAT      O68308   5.236   5.445   6.756
22689WAT     H168309   5.227   5.541   6.727
22689WAT     H268310   5.160   5.392   6.717
22690WAT      O68311   5.547   6.175   3.955
22690WAT     H168312   5.582   6.225   3.875
22690WAT     H268313   5.618   6.172   4.025
22691WAT      O68314   9.252   6.050   7.869
22691WAT     H168315   9.230   6.141   7.834
22691WAT     H268316   9.168   6.003   7.895
22692WAT      O68317   4.996   8.753   2.529
22692WAT     H168318   5.089   8.762   2.565
22692WAT     H268319   4.997   8.689   2.452
22693WAT      O68320   0.100   3.754   6.786
22693WAT     H168321   0.169   3.698   6.740
22693WAT     H268322   0.096   3.729   6.882
22694WAT      O68323   2.329   1.714   5.408
22694WAT     H168324   2.414   1.683   5.364
22694WAT     H268325   2.327   1.813   5.412
22695WAT      O68326   0.930   2.546   0.170
22695WAT     H168327   0.868   2.472   0.195
22695WAT     H268328   0.887   2.605   0.101
22696WAT      O68329   3.853   0.190   2.440
22696WAT     H168330   3.848   0.152   2.348
22696WAT     H268331   3.804   0.130   2.504
22697WAT      O68332   1.970   1.478   3.257
22697WAT     H168333   1.955   1.539   3.179
22697WAT     H268334   1.897   1.490   3.324
22698WAT      O68335   7.396   1.523   6.622
22698WAT     H168336   7.414   1.616   6.590
22698WAT     H268337   7.481   1.471   6.627
22699WAT      O68338   3.588   3.942   3.646
22699WAT     H168339   3.505   3.978   3.690
22699WAT     H268340   3.572   3.848   3.617
22700WAT      O68341   7.247   0.288   4.365
22700WAT     H168342   7.334   0.314   4.406
22700WAT     H268343   7.175   0.348   4.399
22701WAT      O68344   3.220   3.890   4.271
22701WAT     H168345   3.131   3.930   4.247
22701WAT     H268346   3.219   3.792   4.251
22702WAT      O68347   6.107   9.721   6.939
22702WAT     H168348   6.111   9.622   6.952
22702WAT     H268349   6.136   9.767   7.023
22703WAT      O68350   3.601   5.770   5.425
22703WAT     H168351   3.684   5.819   5.400
22703WAT     H268352   3.568   5.718   5.345
22704WAT      O68353   0.397   5.475   9.836
22704WAT     H168354   0.479   5.532   9.832
22704WAT     H268355   0.392   5.418   9.754
22705WAT      O68356   3.199   6.865   6.620
22705WAT     H168357   3.254   6.947   6.601
22705WAT     H268358   3.120   6.891   6.675
22706WAT      O68359   5.523   7.550   2.760
22706WAT     H168360   5.611   7.567   2.715
22706WAT     H268361   5.451   7.597   2.710
22707WAT      O68362   7.679   9.199   0.809
22707WAT     H168363   7.736   9.123   0.838
22707WAT     H268364   7.695   9.278   0.868
22708WAT      O68365   2.567   5.888   6.493
22708WAT     H168366   2.489   5.829   6.474
22708WAT     H268367   2.584   5.891   6.591
22709WAT      O68368   0.879   0.083   6.898
22709WAT     H168369   0.795   0.137   6.892
22709WAT     H268370   0.924   0.082   6.809
22710WAT      O68371   6.125   0.427   6.723
22710WAT     H168372   6.218   0.401   6.698
22710WAT     H268373   6.064   0.408   6.647
22711WAT      O68374   3.696   4.110   4.613
22711WAT     H168375   3.684   4.011   4.607
22711WAT     H268376   3.644   4.155   4.541
22712WAT      O68377   1.317   5.077   7.843
22712WAT     H168378   1.302   5.133   7.762
22712WAT     H268379   1.387   5.120   7.900
22713WAT      O68380   5.584   6.194   2.386
22713WAT     H168381   5.566   6.097   2.373
22713WAT     H268382   5.659   6.223   2.325
22714WAT      O68383   8.642   5.794   9.797
22714WAT     H168384   8.633   5.798   9.697
22714WAT     H268385   8.552   5.811   9.838
22715WAT      O68386   9.728   7.169   3.068
22715WAT     H168387   9.715   7.268   3.065
22715WAT     H268388   9.714   7.137   3.162
22716WAT      O68389   7.074   3.404   3.173
22716WAT     H168390   7.096   3.315   3.213
22716WAT     H268391   6.985   3.435   3.208
22717WAT      O68392   8.308   2.917   2.997
22717WAT     H168393   8.338   2.891   2.905
22717WAT     H268394   8.269   2.838   3.044
22718WAT      O68395   1.650   4.784   0.652
22718WAT     H168396   1.700   4.733   0.582
22718WAT     H268397   1.564   4.817   0.614
22719WAT      O68398   2.231   8.186   9.539
22719WAT     H168399   2.313   8.241   9.553
22719WAT     H268400   2.192   8.162   9.628
22720WAT      O68401   9.097   5.393   6.010
22720WAT     H168402   9.133   5.482   6.038
22720WAT     H268403   9.020   5.405   5.948
22721WAT      O68404   6.897   9.325   1.950
22721WAT     H168405   6.993   9.303   1.938
22721WAT     H268406   6.842   9.241   1.939
22722WAT      O68407   8.105   7.486   4.804
22722WAT     H168408   8.205   7.485   4.803
22722WAT     H268409   8.071   7.403   4.759
22723WAT      O68410   9.100   3.654   3.664
22723WAT     H168411   9.070   3.559   3.675
22723WAT     H268412   9.175   3.673   3.728
22724WAT      O68413   3.737   7.607   9.638
22724WAT     H168414   3.692   7.678   9.691
22724WAT     H268415   3.670   7.538   9.611
22725WAT      O68416   5.216   2.453   1.951
22725WAT     H168417   5.251   2.544   1.971
22725WAT     H268418   5.151   2.425   2.022
22726WAT      O68419   2.135   2.165   1.665
22726WAT     H168420   2.083   2.105   1.605
22726WAT     H268421   2.191   2.109   1.727
22727WAT      O68422   8.598   6.201   3.403
22727WAT     H168423   8.528   6.143   3.445
22727WAT     H268424   8.633   6.266   3.471
22728WAT      O68425   5.737   2.945   3.749
22728WAT     H168426   5.640   2.926   3.731
22728WAT     H268427   5.792   2.921   3.669
22729WAT      O68428   4.656   2.126   5.025
22729WAT     H168429   4.610   2.134   5.114
22729WAT     H268430   4.622   2.196   4.963
22730WAT      O68431   8.721   5.514   5.392
22730WAT     H168432   8.795   5.448   5.385
22730WAT     H268433   8.756   5.607   5.380
22731WAT      O68434   1.679   1.807   0.465
22731WAT     H168435   1.722   1.717   0.470
22731WAT     H268436   1.728   1.865   0.399
22732WAT      O68437   7.802   3.652   9.092
22732WAT     H168438   7.814   3.573   9.153
22732WAT     H268439   7.874   3.653   9.023
22733WAT      O68440   5.625   2.781   6.146
22733WAT     H168441   5.689   2.748   6.215
22733WAT     H268442   5.532   2.776   6.182
22734WAT      O68443   7.654   0.703   5.243
22734WAT     H168444   7.581   0.674   5.304
22734WAT     H268445   7.634   0.796   5.210
22735WAT      O68446   5.207   6.994   8.769
22735WAT     H168447   5.211   6.987   8.869
22735WAT     H268448   5.112   7.004   8.741
22736WAT      O68449   5.646   7.216   9.722
22736WAT     H168450   5.699   7.143   9.765
22736WAT     H268451   5.701   7.299   9.715
22737WAT      O68452   8.172   8.678   7.168
22737WAT     H168453   8.090   8.633   7.204
22737WAT     H268454   8.146   8.762   7.121
22738WAT      O68455   3.846   6.277   8.303
22738WAT     H168456   3.835   6.208   8.375
22738WAT     H268457   3.823   6.236   8.215
22739WAT      O68458   5.352   4.906   5.855
22739WAT     H168459   5.379   4.812   5.834
22739WAT     H268460   5.299   4.943   5.779
22740WAT      O68461   8.316   5.540   8.755
22740WAT     H168462   8.355   5.490   8.677
22740WAT     H268463   8.235   5.492   8.788
22741WAT      O68464   5.465   4.083   2.427
22741WAT     H168465   5.533   4.012   2.444
22741WAT     H268466   5.375   4.050   2.457
22742WAT      O68467   4.273   9.602   5.661
22742WAT     H168468   4.369   9.574   5.669
22742WAT     H268469   4.245   9.597   5.565
22743WAT      O68470   8.802   6.529   1.522
22743WAT     H168471   8.897   6.511   1.496
22743WAT     H268472   8.740   6.491   1.453
22744WAT      O68473   1.205   4.751   2.865
22744WAT     H168474   1.286   4.809   2.876
22744WAT     H268475   1.125   4.808   2.848
22745WAT      O68476   1.397   9.472   0.538
22745WAT     H168477   1.464   9.542   0.565
22745WAT     H268478   1.418   9.440   0.446
22746WAT      O68479   0.399   8.675   0.218
22746WAT     H168480   0.396   8.580   0.187
22746WAT     H268481   0.408   8.678   0.317
22747WAT      O68482   8.513   6.293   6.544
22747WAT     H168483   8.454   6.362   6.503
22747WAT     H268484   8.537   6.224   6.475
22748WAT      O68485   3.972   8.595   2.017
22748WAT     H168486   4.060   8.641   2.019
22748WAT     H268487   3.901   8.658   2.050
22749WAT      O68488   8.533   2.059   7.430
22749WAT     H168489   8.485   2.005   7.499
22749WAT     H268490   8.623   2.019   7.412
22750WAT      O68491   8.270   4.480   7.480
22750WAT     H168492   8.264   4.571   7.521
22750WAT     H268493   8.186   4.461   7.428
22751WAT      O68494   7.776   2.325   5.879
22751WAT     H168495   7.738   2.404   5.927
22751WAT     H268496   7.766   2.338   5.780
22752WAT      O68497   1.519   4.120   7.464
22752WAT     H168498   1.497   4.140   7.369
22752WAT     H268499   1.602   4.064   7.468
22753WAT      O68500   7.913   7.145   8.710
22753WAT     H168501   7.964   7.060   8.726
22753WAT     H268502   7.897   7.191   8.798
22754WAT      O68503   3.546   3.084   9.436
22754WAT     H168504   3.616   3.105   9.367
22754WAT     H268505   3.486   3.011   9.402
22755WAT      O68506   1.739   2.878   6.331
22755WAT     H168507   1.827   2.884   6.378
22755WAT     H268508   1.747   2.917   6.240
22756WAT      O68509   9.853   1.793   9.056
22756WAT     H168510   9.875   1.890   9.060
22756WAT     H268511   9.797   1.775   8.975
22757WAT      O68512   1.596   8.632   1.372
22757WAT     H168513   1.550   8.574   1.304
22757WAT     H268514   1.533   8.650   1.447
22758WAT      O68515   9.317   2.210   6.011
22758WAT     H168516   9.396   2.199   5.950
22758WAT     H268517   9.342   2.180   6.103
22759WAT      O68518   4.236   8.460   9.017
22759WAT     H168519   4.311   8.434   9.077
22759WAT     H268520   4.181   8.532   9.061
22760WAT      O68521   9.517   8.962   5.711
22760WAT     H168522   9.467   9.012   5.640
22760WAT     H268523   9.480   8.870   5.719
22761WAT      O68524   9.407   9.168   2.815
22761WAT     H168525   9.426   9.133   2.907
22761WAT     H268526   9.321   9.220   2.817
22762WAT      O68527   4.145   7.055   8.295
22762WAT     H168528   4.058   7.044   8.343
22762WAT     H268529   4.206   6.978   8.318
22763WAT      O68530   5.166   1.802   7.510
22763WAT     H168531   5.158   1.758   7.599
22763WAT     H268532   5.128   1.742   7.439
22764WAT      O68533   3.431   1.136   0.828
22764WAT     H168534   3.524   1.124   0.863
22764WAT     H268535   3.435   1.177   0.737
22765WAT      O68536   2.996   3.303   6.435
22765WAT     H168537   2.971   3.371   6.366
22765WAT     H268538   2.993   3.345   6.526
22766WAT      O68539   4.052   3.923   6.490
22766WAT     H168540   4.072   3.826   6.504
22766WAT     H268541   3.959   3.942   6.520
22767WAT      O68542   5.069   5.851   0.512
22767WAT     H168543   4.987   5.859   0.569
22767WAT     H268544   5.048   5.795   0.432
22768WAT      O68545   0.113   3.413   8.120
22768WAT     H168546   0.060   3.478   8.065
22768WAT     H268547   0.188   3.461   8.165
22769WAT      O68548   0.600   3.187   5.987
22769WAT     H168549   0.696   3.160   5.994
22769WAT     H268550   0.584   3.230   5.898
22770WAT      O68551   7.127   5.912   6.510
22770WAT     H168552   7.211   5.874   6.472
22770WAT     H268553   7.128   5.904   6.609
22771WAT      O68554   7.750   2.690   2.263
22771WAT     H168555   7.757   2.628   2.185
22771WAT     H268556   7.839   2.733   2.279
22772WAT      O68557   4.184   6.462   7.106
22772WAT     H168558   4.175   6.383   7.045
22772WAT     H268559   4.274   6.459   7.150
22773WAT      O68560   6.099   0.194   8.277
22773WAT     H168561   6.106   0.104   8.233
22773WAT     H268562   6.073   0.262   8.210
22774WAT      O68563   0.592   2.339   6.002
22774WAT     H168564   0.638   2.255   6.030
22774WAT     H268565   0.585   2.341   5.902
22775WAT      O68566   6.087   1.200   9.473
22775WAT     H168567   5.993   1.183   9.444
22775WAT     H268568   6.142   1.118   9.460
22776WAT      O68569   4.257   7.254   7.589
22776WAT     H168570   4.279   7.300   7.675
22776WAT     H268571   4.236   7.158   7.607
22777WAT      O68572   6.326   1.903   3.053
22777WAT     H168573   6.312   1.805   3.068
22777WAT     H268574   6.412   1.931   3.097
22778WAT      O68575   1.790   7.368   7.430
22778WAT     H168576   1.692   7.351   7.424
22778WAT     H268577   1.807   7.466   7.429
22779WAT      O68578   6.291   9.587   3.502
22779WAT     H168579   6.321   9.523   3.573
22779WAT     H268580   6.233   9.657   3.542
22780WAT      O68581   5.296   1.133   2.826
22780WAT     H168582   5.338   1.153   2.915
22780WAT     H268583   5.198   1.117   2.839
22781WAT      O68584   7.242   7.342   6.520
22781WAT     H168585   7.224   7.249   6.553
22781WAT     H268586   7.228   7.346   6.421
22782WAT      O68587   7.330   3.592   3.343
22782WAT     H168588   7.364   3.682   3.372
22782WAT     H268589   7.407   3.535   3.314
22783WAT      O68590   4.410   6.897   3.878
22783WAT     H168591   4.489   6.872   3.934
22783WAT     H268592   4.441   6.938   3.793
22784WAT      O68593   8.427   5.538   9.318
22784WAT     H168594   8.372   5.462   9.284
22784WAT     H268595   8.444   5.603   9.244
22785WAT      O68596   5.391   3.156   6.485
22785WAT     H168597   5.347   3.069   6.507
22785WAT     H268598   5.455   3.144   6.409
22786WAT      O68599   4.384   6.480   1.290
22786WAT     H168600   4.336   6.443   1.369
22786WAT     H268601   4.460   6.419   1.265
22787WAT      O68602   2.596   9.054   0.782
22787WAT     H168603   2.534   9.126   0.750
22787WAT     H268604   2.690   9.089   0.783
22788WAT      O68605   0.660   3.215   4.297
22788WAT     H168606   0.675   3.313   4.310
22788WAT     H268607   0.636   3.173   4.384
22789WAT      O68608   8.112   6.357   9.873
22789WAT     H168609   8.169   6.391   9.948
22789WAT     H268610   8.040   6.297   9.911
22790WAT      O68611   1.068   7.351   1.795
22790WAT     H168612   1.056   7.432   1.738
22790WAT     H268613   1.048   7.269   1.741
22791WAT      O68614   6.425   4.333   8.176
22791WAT     H168615   6.422   4.433   8.167
22791WAT     H268616   6.457   4.309   8.267
22792WAT      O68617   8.602   5.561   1.176
22792WAT     H168618   8.585   5.468   1.143
22792WAT     H268619   8.579   5.567   1.273
22793WAT      O68620   5.596   9.790   2.812
22793WAT     H168621   5.534   9.724   2.854
22793WAT     H268622   5.544   9.867   2.775
22794WAT      O68623   4.859   7.378   4.315
22794WAT     H168624   4.803   7.323   4.254
22794WAT     H268625   4.801   7.430   4.377
22795WAT      O68626   2.794   0.591   1.005
22795WAT     H168627   2.814   0.541   0.921
22795WAT     H268628   2.873   0.589   1.066
22796WAT      O68629   0.319   9.218   0.361
22796WAT     H168630   0.263   9.241   0.441
22796WAT     H268631   0.412   9.254   0.374
22797WAT      O68632   6.645   2.342   3.703
22797WAT     H168633   6.679   2.280   3.632
22797WAT     H268634   6.697   2.328   3.787
22798WAT      O68635   7.469   6.021   6.144
22798WAT     H168636   7.445   6.059   6.233
22798WAT     H268637   7.516   5.934   6.157
22799WAT      O68638   1.024   7.728   6.071
22799WAT     H168639   1.056   7.641   6.034
22799WAT     H268640   1.098   7.773   6.120
22800WAT      O68641   4.624   5.152   1.123
22800WAT     H168642   4.616   5.221   1.051
22800WAT     H268643   4.633   5.061   1.082
22801WAT      O68644   4.199   6.884   3.562
22801WAT     H168645   4.274   6.946   3.585
22801WAT     H268646   4.117   6.938   3.544
22802WAT      O68647   4.793   6.113   1.572
22802WAT     H168648   4.818   6.104   1.668
22802WAT     H268649   4.804   6.024   1.526
22803WAT      O68650   1.833   9.288   7.818
22803WAT     H168651   1.881   9.225   7.758
22803WAT     H268652   1.802   9.367   7.765
22804WAT      O68653   2.156   3.161   5.520
22804WAT     H168654   2.158   3.076   5.468
22804WAT     H268655   2.167   3.239   5.458
22805WAT      O68656   3.893   1.902   1.190
22805WAT     H168657   3.951   1.910   1.271
22805WAT     H268658   3.901   1.810   1.152
22806WAT      O68659   3.304   1.065   2.078
22806WAT     H168660   3.273   1.057   2.173
22806WAT     H268661   3.305   0.975   2.035
22807WAT      O68662   7.092   6.209   8.704
22807WAT     H168663   7.004   6.198   8.657
22807WAT     H268664   7.076   6.244   8.797
22808WAT      O68665   3.273   9.421   3.461
22808WAT     H168666   3.351   9.469   3.422
22808WAT     H268667   3.302   9.372   3.543
22809WAT      O68668   0.341   2.913   2.081
22809WAT     H168669   0.358   3.004   2.042
22809WAT     H268670   0.291   2.857   2.015
22810WAT      O68671   3.465   5.726   6.999
22810WAT     H168672   3.413   5.680   6.927
22810WAT     H268673   3.474   5.665   7.078
22811WAT      O68674   2.458   5.711   5.024
22811WAT     H168675   2.495   5.750   4.941
22811WAT     H268676   2.529   5.706   5.094
22812WAT      O68677   8.942   8.303   7.822
22812WAT     H168678   8.932   8.217   7.872
22812WAT     H268679   8.928   8.380   7.884
22813WAT      O68680   2.434   7.958   2.015
22813WAT     H168681   2.374   7.920   1.945
22813WAT     H268682   2.490   8.031   1.975
22814WAT      O68683   6.257   5.045   0.550
22814WAT     H168684   6.203   5.059   0.467
22814WAT     H268685   6.199   5.005   0.621
22815WAT      O68686   9.689   7.458   8.243
22815WAT     H168687   9.657   7.549   8.271
22815WAT     H268688   9.617   7.391   8.262
22816WAT      O68689   1.293   1.577   7.194
22816WAT     H168690   1.300   1.640   7.117
22816WAT     H268691   1.374   1.587   7.252
22817WAT      O68692   2.315   2.668   4.971
22817WAT     H168693   2.255   2.588   4.967
22817WAT     H268694   2.284   2.735   4.903
22818WAT      O68695   5.947   9.558   3.283
22818WAT     H168696   5.998   9.475   3.306
22818WAT     H268697   5.958   9.625   3.356
22819WAT      O68698   5.025   8.260   6.021
22819WAT     H168699   5.113   8.212   6.022
22819WAT     H268700   4.961   8.213   5.960
22820WAT      O68701   7.453   4.524   7.182
22820WAT     H168702   7.382   4.514   7.112
22820WAT     H268703   7.411   4.531   7.272
22821WAT      O68704   3.159   0.647   0.019
22821WAT     H168705   3.179   0.669   0.115
22821WAT     H268706   3.193   0.720  -0.040
22822WAT      O68707   8.644   8.121   0.957
22822WAT     H168708   8.693   8.055   1.014
22822WAT     H268709   8.617   8.077   0.872
22823WAT      O68710   3.002   3.708   3.933
22823WAT     H168711   3.021   3.688   4.030
22823WAT     H268712   3.033   3.632   3.877
22824WAT      O68713   8.175   1.630   6.400
22824WAT     H168714   8.144   1.619   6.306
22824WAT     H268715   8.097   1.632   6.462
22825WAT      O68716   5.522   8.189   8.897
22825WAT     H168717   5.561   8.177   8.806
22825WAT     H268718   5.595   8.194   8.965
22826WAT      O68719   7.330   7.201   1.514
22826WAT     H168720   7.262   7.162   1.452
22826WAT     H268721   7.357   7.133   1.582
22827WAT      O68722   2.758   5.626   6.885
22827WAT     H168723   2.810   5.590   6.962
22827WAT     H268724   2.822   5.660   6.815
22828WAT      O68725   2.564   6.582   0.165
22828WAT     H168726   2.588   6.593   0.261
22828WAT     H268727   2.524   6.491   0.150
22829WAT      O68728   3.872   5.147   1.577
22829WAT     H168729   3.862   5.087   1.656
22829WAT     H268730   3.818   5.111   1.501
22830WAT      O68731   8.133   2.708   9.809
22830WAT     H168732   8.161   2.678   9.901
22830WAT     H268733   8.037   2.735   9.811
22831WAT      O68734   1.685   1.072   0.322
22831WAT     H168735   1.671   1.170   0.309
22831WAT     H268736   1.688   1.027   0.233
22832WAT      O68737   7.634   0.915   0.106
22832WAT     H168738   7.635   0.988   0.173
22832WAT     H268739   7.705   0.931   0.038
22833WAT      O68740   3.413   4.975   0.623
22833WAT     H168741   3.369   5.040   0.685
22833WAT     H268742   3.394   4.881   0.653
22834WAT      O68743   5.299   2.391   9.405
22834WAT     H168744   5.210   2.435   9.413
22834WAT     H268745   5.370   2.453   9.439
22835WAT      O68746   8.202   7.116   8.807
22835WAT     H168747   8.170   7.125   8.712
22835WAT     H268748   8.234   7.205   8.839
22836WAT      O68749   1.322   3.877   4.595
22836WAT     H168750   1.378   3.796   4.582
22836WAT     H268751   1.378   3.950   4.635
22837WAT      O68752   1.669   5.819   5.372
22837WAT     H168753   1.693   5.849   5.464
22837WAT     H268754   1.744   5.764   5.334
22838WAT      O68755   3.383   2.135   4.438
22838WAT     H168756   3.422   2.053   4.396
22838WAT     H268757   3.401   2.133   4.537
22839WAT      O68758   7.935   3.164   3.225
22839WAT     H168759   8.000   3.238   3.240
22839WAT     H268760   7.842   3.201   3.226
22840WAT      O68761   7.514   4.260   0.567
22840WAT     H168762   7.579   4.185   0.557
22840WAT     H268763   7.481   4.262   0.662
22841WAT      O68764   5.194   5.983   6.419
22841WAT     H168765   5.130   6.030   6.358
22841WAT     H268766   5.209   6.039   6.501
22842WAT      O68767   8.138   6.843   9.843
22842WAT     H168768   8.228   6.881   9.822
22842WAT     H268769   8.068   6.890   9.789
22843WAT      O68770   6.941   6.319   8.099
22843WAT     H168771   7.014   6.347   8.162
22843WAT     H268772   6.966   6.232   8.056
22844WAT      O68773   0.514   9.007   6.618
22844WAT     H168774   0.506   8.975   6.713
22844WAT     H268775   0.520   8.929   6.557
22845WAT      O68776   0.164   1.419   9.043
22845WAT     H168777   0.182   1.516   9.028
22845WAT     H268778   0.123   1.380   8.961
22846WAT      O68779   0.780   8.318   4.267
22846WAT     H168780   0.824   8.352   4.350
22846WAT     H268781   0.832   8.350   4.187
22847WAT      O68782   4.817   8.768   7.698
22847WAT     H168783   4.847   8.863   7.709
22847WAT     H268784   4.761   8.742   7.776
22848WAT      O68785   2.107   4.325   9.818
22848WAT     H168786   2.187   4.364   9.772
22848WAT     H268787   2.132   4.294   9.909
22849WAT      O68788   5.384   8.351   0.397
22849WAT     H168789   5.430   8.438   0.379
22849WAT     H268790   5.426   8.279   0.342
22850WAT      O68791   9.656   0.515   1.877
22850WAT     H168792   9.715   0.456   1.931
22850WAT     H268793   9.705   0.598   1.851
22851WAT      O68794   6.399   7.367   2.414
22851WAT     H168795   6.357   7.410   2.334
22851WAT     H268796   6.497   7.388   2.415
22852WAT      O68797   4.902   5.044   7.418
22852WAT     H168798   4.882   5.142   7.426
22852WAT     H268799   4.821   4.992   7.444
22853WAT      O68800   6.717   1.142   8.514
22853WAT     H168801   6.658   1.217   8.544
22853WAT     H268802   6.668   1.085   8.448
22854WAT      O68803   7.357   9.130   5.591
22854WAT     H168804   7.377   9.169   5.501
22854WAT     H268805   7.276   9.173   5.630
22855WAT      O68806   8.782   1.294   1.251
22855WAT     H168807   8.868   1.325   1.211
22855WAT     H268808   8.786   1.195   1.266
22856WAT      O68809   4.889   2.020   3.328
22856WAT     H168810   4.829   2.044   3.252
22856WAT     H268811   4.983   2.009   3.294
22857WAT      O68812   5.680   1.225   6.448
22857WAT     H168813   5.580   1.220   6.445
22857WAT     H268814   5.707   1.292   6.517
22858WAT      O68815   7.116   7.009   6.960
22858WAT     H168816   7.112   6.989   7.058
22858WAT     H268817   7.178   6.945   6.915
22859WAT      O68818   4.185   7.305   6.842
22859WAT     H168819   4.113   7.240   6.866
22859WAT     H268820   4.248   7.314   6.919
22860WAT      O68821   8.175   9.201   2.288
22860WAT     H168822   8.114   9.280   2.293
22860WAT     H268823   8.228   9.195   2.373
22861WAT      O68824   4.368   5.767   2.489
22861WAT     H168825   4.306   5.702   2.533
22861WAT     H268826   4.359   5.761   2.390
22862WAT      O68827   1.131   0.973   7.908
22862WAT     H168828   1.078   0.998   7.988
22862WAT     H268829   1.181   0.888   7.926
22863WAT      O68830   6.242   4.436   7.602
22863WAT     H168831   6.180   4.510   7.628
22863WAT     H268832   6.202   4.348   7.628
22864WAT      O68833   6.516   8.778   9.583
22864WAT     H168834   6.446   8.730   9.635
22864WAT     H268835   6.606   8.754   9.618
22865WAT      O68836   8.106   5.614   0.119
22865WAT     H168837   8.121   5.558   0.201
22865WAT     H268838   8.127   5.710   0.140
22866WAT      O68839   7.483   3.953   5.189
22866WAT     H168840   7.404   4.011   5.167
22866WAT     H268841   7.561   4.011   5.214
22867WAT      O68842   8.724   7.381   0.308
22867WAT     H168843   8.703   7.428   0.394
22867WAT     H268844   8.756   7.288   0.328
22868WAT      O68845   9.303   9.350   5.627
22868WAT     H168846   9.254   9.339   5.713
22868WAT     H268847   9.348   9.440   5.625
22869WAT      O68848   3.757   4.993   5.654
22869WAT     H168849   3.814   5.051   5.712
22869WAT     H268850   3.757   5.029   5.561
22870WAT      O68851   4.732   2.781   3.108
22870WAT     H168852   4.813   2.837   3.089
22870WAT     H268853   4.696   2.804   3.199
22871WAT      O68854   0.973   6.967   5.113
22871WAT     H168855   0.951   6.882   5.162
22871WAT     H268856   0.904   7.036   5.135
22872WAT      O68857   5.627   3.586   0.325
22872WAT     H168858   5.629   3.640   0.409
22872WAT     H268859   5.710   3.603   0.272
22873WAT      O68860   8.614   4.137   6.881
22873WAT     H168861   8.647   4.051   6.842
22873WAT     H268862   8.574   4.119   6.971
22874WAT      O68863   5.407   2.181   3.057
22874WAT     H168864   5.368   2.260   3.012
22874WAT     H268865   5.436   2.114   2.988
22875WAT      O68866   4.957   2.892   1.139
22875WAT     H168867   5.011   2.952   1.198
22875WAT     H268868   4.921   2.944   1.061
22876WAT      O68869   1.088   1.455   6.649
22876WAT     H168870   1.084   1.511   6.732
22876WAT     H268871   1.130   1.367   6.670
22877WAT      O68872   6.530   7.133   5.517
22877WAT     H168873   6.619   7.176   5.500
22877WAT     H268874   6.543   7.039   5.547
22878WAT      O68875   2.776   3.316   3.170
22878WAT     H168876   2.694   3.260   3.158
22878WAT     H268877   2.789   3.335   3.267
22879WAT      O68878   6.333   4.079   8.035
22879WAT     H168879   6.233   4.079   8.026
22879WAT     H268880   6.369   4.168   8.007
22880WAT      O68881   1.461   5.039   6.356
22880WAT     H168882   1.546   4.990   6.371
22880WAT     H268883   1.418   5.058   6.445
22881WAT      O68884   0.238   0.285   2.187
22881WAT     H168885   0.232   0.190   2.157
22881WAT     H268886   0.304   0.334   2.128
22882WAT      O68887   7.865   7.813   7.690
22882WAT     H168888   7.824   7.734   7.644
22882WAT     H268889   7.798   7.854   7.752
22883WAT      O68890   9.531   1.030   2.635
22883WAT     H168891   9.439   1.067   2.620
22883WAT     H268892   9.526   0.930   2.638
22884WAT      O68893   0.637   7.285   7.985
22884WAT     H168894   0.631   7.299   7.886
22884WAT     H268895   0.733   7.291   8.014
22885WAT      O68896   2.876   6.218   2.973
22885WAT     H168897   2.826   6.137   2.943
22885WAT     H268898   2.973   6.209   2.950
22886WAT      O68899   0.438   6.656   9.203
22886WAT     H168900   0.355   6.677   9.152
22886WAT     H268901   0.458   6.730   9.267
22887WAT      O68902   0.527   2.185   5.138
22887WAT     H168903   0.525   2.092   5.175
22887WAT     H268904   0.608   2.196   5.081
22888WAT      O68905   5.356   2.161   1.559
22888WAT     H168906   5.398   2.190   1.473
22888WAT     H268907   5.318   2.240   1.606
22889WAT      O68908   4.786   1.568   8.339
22889WAT     H168909   4.862   1.611   8.388
22889WAT     H268910   4.708   1.630   8.336
22890WAT      O68911   8.258   2.596   3.787
22890WAT     H168912   8.264   2.549   3.875
22890WAT     H268913   8.321   2.673   3.786
22891WAT      O68914   0.029   8.039   5.971
22891WAT     H168915   0.029   8.135   6.002
22891WAT     H268916   0.029   7.979   6.051
22892WAT      O68917   2.021   5.130   4.658
22892WAT     H168918   2.056   5.077   4.581
22892WAT     H268919   2.079   5.116   4.738
22893WAT      O68920   6.710   6.497   5.627
22893WAT     H168921   6.662   6.492   5.540
22893WAT     H268922   6.808   6.479   5.612
22894WAT      O68923   4.888   1.203   7.240
22894WAT     H168924   4.807   1.161   7.199
22894WAT     H268925   4.891   1.183   7.338
22895WAT      O68926   6.998   9.375   0.963
22895WAT     H168927   6.963   9.468   0.965
22895WAT     H268928   7.006   9.344   0.868
22896WAT      O68929   7.990   3.062   5.234
22896WAT     H168930   7.974   3.148   5.185
22896WAT     H268931   8.085   3.033   5.220
22897WAT      O68932   6.532   4.472   7.195
22897WAT     H168933   6.541   4.406   7.269
22897WAT     H268934   6.534   4.424   7.107
22898WAT      O68935   6.041   2.098   5.134
22898WAT     H168936   6.007   2.004   5.142
22898WAT     H268937   6.125   2.108   5.186
22899WAT      O68938   3.466   1.573   2.273
22899WAT     H168939   3.546   1.621   2.310
22899WAT     H268940   3.486   1.476   2.262
22900WAT      O68941   1.644   3.077   2.330
22900WAT     H168942   1.574   3.072   2.258
22900WAT     H268943   1.605   3.048   2.417
22901WAT      O68944   6.123   2.917   0.642
22901WAT     H168945   6.097   2.924   0.738
22901WAT     H268946   6.216   2.951   0.630
22902WAT      O68947   1.755   1.856   5.085
22902WAT     H168948   1.844   1.860   5.131
22902WAT     H268949   1.702   1.779   5.121
22903WAT      O68950   3.093   0.660   9.421
22903WAT     H168951   3.083   0.744   9.473
22903WAT     H268952   3.088   0.681   9.323
22904WAT      O68953   9.118   4.589   2.694
22904WAT     H168954   9.072   4.529   2.761
22904WAT     H268955   9.215   4.596   2.717
22905WAT      O68956   5.240   6.269   9.494
22905WAT     H168957   5.195   6.288   9.581
22905WAT     H268958   5.327   6.318   9.490
22906WAT      O68959   6.824   8.566   0.954
22906WAT     H168960   6.856   8.617   0.875
22906WAT     H268961   6.850   8.614   1.038
22907WAT      O68962   1.027   8.239   5.231
22907WAT     H168963   1.010   8.173   5.304
22907WAT     H268964   1.002   8.330   5.263
22908WAT      O68965   4.923   5.424   4.278
22908WAT     H168966   4.857   5.370   4.331
22908WAT     H268967   4.959   5.368   4.203
22909WAT      O68968   5.191   3.757   0.841
22909WAT     H168969   5.253   3.829   0.809
22909WAT     H268970   5.209   3.672   0.791
22910WAT      O68971   9.691   7.650   0.885
22910WAT     H168972   9.598   7.667   0.916
22910WAT     H268973   9.739   7.593   0.952
22911WAT      O68974   2.797   0.841   1.281
22911WAT     H168975   2.862   0.906   1.320
22911WAT     H268976   2.704   0.871   1.301
22912WAT      O68977   2.355   6.488   4.515
22912WAT     H168978   2.288   6.420   4.487
22912WAT     H268979   2.337   6.574   4.467
22913WAT      O68980   4.585   0.099   8.606
22913WAT     H168981   4.611   0.024   8.667
22913WAT     H268982   4.505   0.146   8.644
22914WAT      O68983   1.646   5.375   4.231
22914WAT     H168984   1.687   5.289   4.259
22914WAT     H268985   1.702   5.417   4.160
22915WAT      O68986   9.484   7.383   8.459
22915WAT     H168987   9.476   7.306   8.522
22915WAT     H268988   9.393   7.409   8.426
22916WAT      O68989   3.247   8.817   3.088
22916WAT     H168990   3.206   8.764   3.013
22916WAT     H268991   3.333   8.858   3.057
22917WAT      O68992   5.202   8.961   3.183
22917WAT     H168993   5.103   8.976   3.185
22917WAT     H268994   5.244   9.002   3.264
22918WAT      O68995   7.091   5.828   8.493
22918WAT     H168996   7.141   5.912   8.470
22918WAT     H268997   7.129   5.752   8.440
22919WAT      O68998   3.368   0.272   1.978
22919WAT     H168999   3.305   0.328   2.032
22919WAT     H269000   3.452   0.256   2.031
22920WAT      O69001   2.543   7.397   4.926
22920WAT     H169002   2.483   7.475   4.944
22920WAT     H269003   2.622   7.427   4.873
22921WAT      O69004   5.237   0.624   9.687
22921WAT     H169005   5.208   0.628   9.591
22921WAT     H269006   5.158   0.607   9.745
22922WAT      O69007   3.411   9.492   5.497
22922WAT     H169008   3.464   9.576   5.505
22922WAT     H269009   3.314   9.515   5.488
22923WAT      O69010   7.241   4.656   8.036
22923WAT     H169011   7.161   4.717   8.032
22923WAT     H269012   7.316   4.697   7.985
22924WAT      O69013   0.987   9.469   8.866
22924WAT     H169014   0.992   9.561   8.905
22924WAT     H269015   1.064   9.415   8.899
22925WAT      O69016   0.174   5.783   2.380
22925WAT     H169017   0.110   5.852   2.348
22925WAT     H269018   0.229   5.820   2.455
22926WAT      O69019   8.011   4.046   8.182
22926WAT     H169020   8.060   4.086   8.260
22926WAT     H269021   7.928   4.099   8.164
22927WAT      O69022   5.769   0.964   5.365
22927WAT     H169023   5.684   0.912   5.363
22927WAT     H269024   5.784   0.999   5.457
22928WAT      O69025   3.636   4.113   0.830
22928WAT     H169026   3.689   4.028   0.835
22928WAT     H269027   3.589   4.117   0.742
22929WAT      O69028   8.026   8.409   4.971
22929WAT     H169029   7.926   8.416   4.962
22929WAT     H269030   8.057   8.320   4.938
22930WAT      O69031   2.570   2.445   8.259
22930WAT     H169032   2.628   2.479   8.185
22930WAT     H269033   2.622   2.445   8.344
22931WAT      O69034   0.737   3.513   4.328
22931WAT     H169035   0.745   3.593   4.388
22931WAT     H269036   0.654   3.521   4.273
22932WAT      O69037   2.485   8.273   7.434
22932WAT     H169038   2.491   8.371   7.414
22932WAT     H269039   2.417   8.258   7.506
22933WAT      O69040   9.416   3.762   2.853
22933WAT     H169041   9.359   3.843   2.838
22933WAT     H269042   9.495   3.787   2.909
22934WAT      O69043   3.745   1.059   0.168
22934WAT     H169044   3.839   1.038   0.195
22934WAT     H269045   3.745   1.141   0.110
22935WAT      O69046   1.044   9.422   4.444
22935WAT     H169047   1.086   9.331   4.445
22935WAT     H269048   1.093   9.481   4.379
22936WAT      O69049   8.132   1.041   1.883
22936WAT     H169050   8.037   1.072   1.879
22936WAT     H269051   8.185   1.086   1.811
22937WAT      O69052   1.438   0.225   4.866
22937WAT     H169053   1.421   0.295   4.934
22937WAT     H269054   1.376   0.238   4.788
22938WAT      O69055   6.438   9.011   2.343
22938WAT     H169056   6.433   8.952   2.424
22938WAT     H269057   6.345   9.041   2.319
22939WAT      O69058   6.184   4.934   5.597
22939WAT     H169059   6.180   4.853   5.655
22939WAT     H269060   6.108   4.995   5.618
22940WAT      O69061   6.855   5.181   8.627
22940WAT     H169062   6.764   5.158   8.663
22940WAT     H269063   6.859   5.156   8.530
22941WAT      O69064   1.183   5.354   9.845
22941WAT     H169065   1.109   5.342   9.778
22941WAT     H269066   1.151   5.325   9.935
22942WAT      O69067   6.691   6.033   8.040
22942WAT     H169068   6.765   5.990   7.989
22942WAT     H269069   6.684   5.991   8.130
22943WAT      O69070   7.471   7.411   6.299
22943WAT     H169071   7.484   7.508   6.279
22943WAT     H269072   7.452   7.399   6.396
22944WAT      O69073   5.598   2.386   7.146
22944WAT     H169074   5.607   2.287   7.131
22944WAT     H269075   5.682   2.432   7.120
22945WAT      O69076   0.212   5.525   6.750
22945WAT     H169077   0.139   5.589   6.727
22945WAT     H269078   0.177   5.454   6.810
22946WAT      O69079   9.370   0.128   6.173
22946WAT     H169080   9.285   0.104   6.126
22946WAT     H269081   9.386   0.064   6.248
22947WAT      O69082   7.267   6.878   2.023
22947WAT     H169083   7.258   6.969   2.062
22947WAT     H269084   7.355   6.870   1.976
22948WAT      O69085   2.521   3.816   0.865
22948WAT     H169086   2.535   3.738   0.926
22948WAT     H269087   2.550   3.791   0.773
22949WAT      O69088   3.721   1.593   2.461
22949WAT     H169089   3.796   1.576   2.398
22949WAT     H269090   3.726   1.528   2.537
22950WAT      O69091   2.320   3.906   1.474
22950WAT     H169092   2.382   3.915   1.396
22950WAT     H269093   2.247   3.974   1.466
22951WAT      O69094   9.870   4.057   5.267
22951WAT     H169095   9.865   4.133   5.332
22951WAT     H269096   9.794   3.994   5.285
22952WAT      O69097   9.849   7.437   6.445
22952WAT     H169098   9.891   7.520   6.481
22952WAT     H269099   9.834   7.447   6.347
22953WAT      O69100   0.383   4.200   4.854
22953WAT     H169101   0.314   4.233   4.919
22953WAT     H269102   0.473   4.202   4.897
22954WAT      O69103   4.991   1.242   2.114
22954WAT     H169104   4.992   1.268   2.017
22954WAT     H269105   5.076   1.195   2.137
22955WAT      O69106   3.524   1.043   6.769
22955WAT     H169107   3.427   1.037   6.793
22955WAT     H269108   3.534   1.099   6.686
22956WAT      O69109   5.616   4.652   9.109
22956WAT     H169110   5.657   4.619   9.194
22956WAT     H269111   5.587   4.747   9.120
22957WAT      O69112   1.034   7.731   7.635
22957WAT     H169113   1.079   7.718   7.546
22957WAT     H269114   0.956   7.668   7.642
22958WAT      O69115   5.450   9.354   9.024
22958WAT     H169116   5.497   9.268   9.043
22958WAT     H269117   5.427   9.399   9.110
22959WAT      O69118   9.001   6.381   3.377
22959WAT     H169119   9.020   6.307   3.312
22959WAT     H269120   9.066   6.376   3.453
22960WAT      O69121   8.818   6.207   3.927
22960WAT     H169122   8.801   6.165   3.838
22960WAT     H269123   8.731   6.234   3.968
22961WAT      O69124   6.437   7.584   8.772
22961WAT     H169125   6.356   7.642   8.782
22961WAT     H269126   6.511   7.637   8.729
22962WAT      O69127   5.150   7.738   1.122
22962WAT     H169128   5.058   7.743   1.082
22962WAT     H269129   5.143   7.736   1.222
22963WAT      O69130   9.559   5.178   0.077
22963WAT     H169131   9.519   5.270   0.083
22963WAT     H269132   9.650   5.178   0.119
22964WAT      O69133   4.393   9.524   0.018
22964WAT     H169134   4.480   9.475   0.028
22964WAT     H269135   4.410   9.622   0.019
22965WAT      O69136   2.965   8.120   2.209
22965WAT     H169137   3.019   8.065   2.146
22965WAT     H269138   2.957   8.214   2.174
22966WAT      O69139   3.143   7.258   2.416
22966WAT     H169140   3.183   7.241   2.506
22966WAT     H269141   3.189   7.201   2.347
22967WAT      O69142   1.301   0.162   9.695
22967WAT     H169143   1.341   0.244   9.654
22967WAT     H269144   1.267   0.102   9.622
22968WAT      O69145   1.753   6.702   5.765
22968WAT     H169146   1.809   6.752   5.831
22968WAT     H269147   1.785   6.607   5.759
22969WAT      O69148   8.654   8.454   7.977
22969WAT     H169149   8.664   8.476   8.075
22969WAT     H269150   8.737   8.481   7.928
22970WAT      O69151   5.980   3.519   6.078
22970WAT     H169152   6.011   3.540   6.171
22970WAT     H269153   6.053   3.542   6.013
22971WAT      O69154   5.668   8.393   2.348
22971WAT     H169155   5.609   8.354   2.277
22971WAT     H269156   5.616   8.399   2.434
22972WAT      O69157   3.588   4.940   3.294
22972WAT     H169158   3.536   4.908   3.215
22972WAT     H269159   3.531   5.000   3.350
22973WAT      O69160   6.926   2.418   2.033
22973WAT     H169161   6.948   2.492   1.970
22973WAT     H269162   6.865   2.452   2.104
22974WAT      O69163   6.174   6.158   7.826
22974WAT     H169164   6.131   6.098   7.893
22974WAT     H269165   6.111   6.173   7.750
22975WAT      O69166   4.483   5.335   2.866
22975WAT     H169167   4.542   5.256   2.846
22975WAT     H269168   4.540   5.416   2.879
22976WAT      O69169   8.976   7.275   2.024
22976WAT     H169170   8.889   7.312   2.058
22976WAT     H269171   8.962   7.181   1.994
22977WAT      O69172   9.590   3.711   4.253
22977WAT     H169173   9.502   3.751   4.276
22977WAT     H269174   9.663   3.762   4.298
22978WAT      O69175   9.043   8.279   9.374
22978WAT     H169176   8.959   8.226   9.386
22978WAT     H269177   9.101   8.268   9.455
22979WAT      O69178   9.234   3.482   2.536
22979WAT     H169179   9.170   3.455   2.608
22979WAT     H269180   9.287   3.562   2.567
22980WAT      O69181   9.145   3.433   7.824
22980WAT     H169182   9.146   3.415   7.922
22980WAT     H269183   9.132   3.347   7.774
22981WAT      O69184   9.160   6.826   2.799
22981WAT     H169185   9.187   6.915   2.834
22981WAT     H269186   9.179   6.756   2.868
22982WAT      O69187   5.314   6.977   8.433
22982WAT     H169188   5.283   7.067   8.402
22982WAT     H269189   5.267   6.953   8.517
22983WAT      O69190   0.556   3.162   6.417
22983WAT     H169191   0.567   3.075   6.369
22983WAT     H269192   0.638   3.218   6.403
22984WAT      O69193   2.306   1.026   6.490
22984WAT     H169194   2.298   0.929   6.464
22984WAT     H269195   2.282   1.036   6.586
22985WAT      O69196   9.879   4.002   4.891
22985WAT     H169197   9.950   4.002   4.821
22985WAT     H269198   9.856   3.908   4.916
22986WAT      O69199   2.410   7.819   9.640
22986WAT     H169200   2.345   7.774   9.580
22986WAT     H269201   2.498   7.828   9.593
22987WAT      O69202   3.477   4.582   2.588
22987WAT     H169203   3.427   4.529   2.656
22987WAT     H269204   3.485   4.677   2.619
22988WAT      O69205   1.912   7.091   7.793
22988WAT     H169206   1.857   7.135   7.722
22988WAT     H269207   1.917   7.150   7.873
22989WAT      O69208   2.512   5.572   9.346
22989WAT     H169209   2.426   5.521   9.346
22989WAT     H269210   2.550   5.570   9.253
22990WAT      O69211   6.674   6.767   6.901
22990WAT     H169212   6.730   6.740   6.979
22990WAT     H269213   6.729   6.821   6.837
22991WAT      O69214   7.969   2.349   7.801
22991WAT     H169215   7.885   2.376   7.753
22991WAT     H269216   7.979   2.404   7.884
22992WAT      O69217   7.563   4.090   0.261
22992WAT     H169218   7.580   4.165   0.197
22992WAT     H269219   7.597   4.116   0.352
22993WAT      O69220   2.348   6.425   8.006
22993WAT     H169221   2.261   6.457   8.045
22993WAT     H269222   2.355   6.326   8.017
22994WAT      O69223   5.144   0.672   7.712
22994WAT     H169224   5.048   0.677   7.683
22994WAT     H269225   5.203   0.705   7.638
22995WAT      O69226   4.369   0.078   4.156
22995WAT     H169227   4.428   0.068   4.236
22995WAT     H269228   4.322   0.165   4.160
22996WAT      O69229   8.133   0.668   2.966
22996WAT     H169230   8.091   0.736   3.026
22996WAT     H269231   8.232   0.684   2.962
22997WAT      O69232   6.090   4.377   0.345
22997WAT     H169233   6.178   4.420   0.365
22997WAT     H269234   6.019   4.447   0.343
22998WAT      O69235   9.686   3.766   8.444
22998WAT     H169236   9.656   3.710   8.521
22998WAT     H269237   9.758   3.829   8.475
22999WAT      O69238   6.373   0.857   1.396
22999WAT     H169239   6.440   0.926   1.424
22999WAT     H269240   6.320   0.891   1.319
23000WAT      O69241   2.278   1.504   9.316
23000WAT     H169242   2.274   1.595   9.358
23000WAT     H269243   2.334   1.444   9.372
23001WAT      O69244   3.718   9.628   1.538
23001WAT     H169245   3.700   9.714   1.490
23001WAT     H269246   3.738   9.646   1.634
23002WAT      O69247   4.200   8.334   4.613
23002WAT     H169248   4.226   8.370   4.704
23002WAT     H269249   4.173   8.410   4.554
23003WAT      O69250   6.707   4.533   5.870
23003WAT     H169251   6.721   4.434   5.879
23003WAT     H269252   6.751   4.579   5.947
23004WAT      O69253   8.481   3.870   0.511
23004WAT     H169254   8.388   3.835   0.522
23004WAT     H269255   8.485   3.963   0.548
23005WAT      O69256   6.895   4.936   9.289
23005WAT     H169257   6.831   4.894   9.352
23005WAT     H269258   6.883   4.897   9.198
23006WAT      O69259   7.510   8.303   4.583
23006WAT     H169260   7.453   8.381   4.558
23006WAT     H269261   7.537   8.253   4.500
23007WAT      O69262   6.319   8.228   2.865
23007WAT     H169263   6.354   8.134   2.873
23007WAT     H269264   6.222   8.230   2.885
23008WAT      O69265   2.919   4.003   0.741
23008WAT     H169266   2.838   4.054   0.770
23008WAT     H269267   2.891   3.922   0.689
23009WAT      O69268   2.348   7.369   9.633
23009WAT     H169269   2.279   7.401   9.568
23009WAT     H269270   2.391   7.448   9.677
23010WAT      O69271   0.212   1.031   0.361
23010WAT     H169272   0.154   1.060   0.437
23010WAT     H269273   0.172   1.064   0.275
23011WAT      O69274   3.628   4.160   2.248
23011WAT     H169275   3.611   4.124   2.156
23011WAT     H269276   3.542   4.166   2.298
23012WAT      O69277   1.390   6.803   6.861
23012WAT     H169278   1.466   6.783   6.923
23012WAT     H269279   1.309   6.753   6.890
23013WAT      O69280   4.045   3.573   3.476
23013WAT     H169281   4.008   3.569   3.569
23013WAT     H269282   3.984   3.628   3.419
23014WAT      O69283   6.454   7.631   8.378
23014WAT     H169284   6.425   7.726   8.392
23014WAT     H269285   6.375   7.576   8.349
23015WAT      O69286   7.633   3.867   9.343
23015WAT     H169287   7.656   3.908   9.255
23015WAT     H269288   7.535   3.846   9.346
23016WAT      O69289   2.445   4.067   9.342
23016WAT     H169290   2.396   3.987   9.375
23016WAT     H269291   2.426   4.145   9.401
23017WAT      O69292   0.064   5.765   6.684
23017WAT     H169293   0.123   5.802   6.756
23017WAT     H269294   0.103   5.787   6.594
23018WAT      O69295   2.507   9.712   4.766
23018WAT     H169296   2.450   9.641   4.726
23018WAT     H269297   2.459   9.800   4.762
23019WAT      O69298   1.565   0.487   2.338
23019WAT     H169299   1.558   0.583   2.368
23019WAT     H269300   1.591   0.484   2.242
23020WAT      O69301   9.610   8.069   0.029
23020WAT     H169302   9.561   8.084   0.115
23020WAT     H269303   9.701   8.109   0.035
23021WAT      O69304   9.421   7.913   8.897
23021WAT     H169305   9.478   7.993   8.911
23021WAT     H269306   9.394   7.875   8.985
23022WAT      O69307   4.035   3.552   2.269
23022WAT     H169308   4.114   3.596   2.311
23022WAT     H269309   3.963   3.620   2.254
23023WAT      O69310   8.019   4.993   9.144
23023WAT     H169311   8.080   5.018   9.069
23023WAT     H269312   8.061   4.920   9.197
23024WAT      O69313   1.082   1.126   2.610
23024WAT     H169314   1.082   1.077   2.697
23024WAT     H269315   1.002   1.100   2.557
23025WAT      O69316   9.110   4.569   5.008
23025WAT     H169317   9.057   4.485   5.018
23025WAT     H269318   9.049   4.646   4.991
23026WAT      O69319   1.913   7.082   3.988
23026WAT     H169320   1.873   7.048   4.073
23026WAT     H269321   1.936   7.005   3.928
23027WAT      O69322   5.976   3.950   7.669
23027WAT     H169323   5.912   3.950   7.746
23027WAT     H269324   6.014   3.859   7.658
23028WAT      O69325   1.927   7.522   3.126
23028WAT     H169326   1.980   7.477   3.197
23028WAT     H269327   1.975   7.515   3.038
23029WAT      O69328   2.906   7.259   7.884
23029WAT     H169329   2.917   7.285   7.980
23029WAT     H269330   2.814   7.283   7.853
23030WAT      O69331   1.479   1.227   6.712
23030WAT     H169332   1.474   1.278   6.627
23030WAT     H269333   1.478   1.129   6.692
23031WAT      O69334   8.171   3.916   6.797
23031WAT     H169335   8.168   3.838   6.859
23031WAT     H269336   8.142   3.999   6.845
23032WAT      O69337   0.862   6.294   4.748
23032WAT     H169338   0.895   6.349   4.825
23032WAT     H269339   0.882   6.198   4.765
23033WAT      O69340   7.692   3.253   0.462
23033WAT     H169341   7.722   3.179   0.523
23033WAT     H269342   7.760   3.266   0.390
23034WAT      O69343   4.235   8.702   2.061
23034WAT     H169344   4.191   8.726   2.148
23034WAT     H269345   4.300   8.774   2.036
23035WAT      O69346   8.504   1.209   9.175
23035WAT     H169347   8.533   1.122   9.217
23035WAT     H269348   8.414   1.197   9.133
23036WAT      O69349   5.225   8.977   4.047
23036WAT     H169350   5.168   8.895   4.047
23036WAT     H269351   5.316   8.954   4.083
23037WAT      O69352   9.649   8.304   6.695
23037WAT     H169353   9.696   8.307   6.607
23037WAT     H269354   9.669   8.218   6.742
23038WAT      O69355   7.685   4.850   8.372
23038WAT     H169356   7.605   4.832   8.315
23038WAT     H269357   7.738   4.925   8.333
23039WAT      O69358   3.835   0.513   1.963
23039WAT     H169359   3.834   0.561   1.875
23039WAT     H269360   3.927   0.519   2.003
23040WAT      O69361   0.196   0.028   0.376
23040WAT     H169362   0.266   0.084   0.332
23040WAT     H269363   0.211  -0.068   0.354
23041WAT      O69364   0.003   5.112   3.907
23041WAT     H169365  -0.052   5.059   3.843
23041WAT     H269366   0.093   5.130   3.868
23042WAT      O69367   2.984   2.112   1.959
23042WAT     H169368   2.915   2.053   1.916
23042WAT     H269369   2.942   2.164   2.033
23043WAT      O69370   2.369   7.417   2.970
23043WAT     H169371   2.391   7.471   3.051
23043WAT     H269372   2.407   7.325   2.979
23044WAT      O69373   0.047   9.482   8.679
23044WAT     H169374   0.129   9.538   8.692
23044WAT     H269375   0.035   9.460   8.582
23045WAT      O69376   3.083   5.999   8.131
23045WAT     H169377   3.084   6.087   8.179
23045WAT     H269378   3.080   5.925   8.198
23046WAT      O69379   3.751   2.558   6.718
23046WAT     H169380   3.683   2.551   6.791
23046WAT     H269381   3.841   2.533   6.753
23047WAT      O69382   0.588   1.117   6.280
23047WAT     H169383   0.645   1.036   6.268
23047WAT     H269384   0.499   1.102   6.239
23048WAT      O69385   7.827   2.362   1.857
23048WAT     H169386   7.920   2.397   1.847
23048WAT     H269387   7.807   2.300   1.781
23049WAT      O69388   8.789   3.591   5.724
23049WAT     H169389   8.713   3.527   5.737
23049WAT     H269390   8.753   3.678   5.691
23050WAT      O69391   2.812   6.052   6.767
23050WAT     H169392   2.911   6.062   6.765
23050WAT     H269393   2.776   6.051   6.673
23051WAT      O69394   7.244   5.336   8.566
23051WAT     H169395   7.259   5.417   8.622
23051WAT     H269396   7.209   5.363   8.476
23052WAT      O69397   7.843   3.476   9.343
23052WAT     H169398   7.820   3.552   9.404
23052WAT     H269399   7.939   3.451   9.356
23053WAT      O69400   6.240   8.945   4.957
23053WAT     H169401   6.339   8.958   4.963
23053WAT     H269402   6.221   8.853   4.923
23054WAT      O69403   6.531   7.502   3.502
23054WAT     H169404   6.441   7.459   3.494
23054WAT     H269405   6.600   7.444   3.460
23055WAT      O69406   3.756   2.789   2.258
23055WAT     H169407   3.848   2.787   2.296
23055WAT     H269408   3.713   2.876   2.280
23056WAT      O69409   1.860   0.065   4.700
23056WAT     H169410   1.816   0.008   4.769
23056WAT     H269411   1.812   0.152   4.692
23057WAT      O69412   7.824   8.293   4.275
23057WAT     H169413   7.890   8.258   4.209
23057WAT     H269414   7.865   8.369   4.326
23058WAT      O69415   8.429   0.479   0.882
23058WAT     H169416   8.427   0.385   0.915
23058WAT     H269417   8.418   0.479   0.782
23059WAT      O69418   8.338   1.664   1.800
23059WAT     H169419   8.374   1.571   1.787
23059WAT     H269420   8.354   1.694   1.894
23060WAT      O69421   0.043   6.885   5.362
23060WAT     H169422   0.052   6.971   5.312
23060WAT     H269423   0.045   6.904   5.461
23061WAT      O69424   5.851   7.826   8.785
23061WAT     H169425   5.878   7.791   8.696
23061WAT     H269426   5.917   7.894   8.815
23062WAT      O69427   6.111   6.561   1.446
23062WAT     H169428   6.146   6.468   1.461
23062WAT     H269429   6.013   6.556   1.429
23063WAT      O69430   3.111   0.080   2.032
23063WAT     H169431   3.207   0.104   2.021
23063WAT     H269432   3.079   0.030   1.951
23064WAT      O69433   0.630   7.129   4.526
23064WAT     H169434   0.690   7.064   4.480
23064WAT     H269435   0.627   7.109   4.624
23065WAT      O69436   7.110   1.076   2.472
23065WAT     H169437   7.121   1.109   2.566
23065WAT     H269438   7.123   1.153   2.409
23066WAT      O69439   6.259   0.499   2.362
23066WAT     H169440   6.337   0.557   2.387
23066WAT     H269441   6.286   0.436   2.290
23067WAT      O69442   9.314   9.091   1.445
23067WAT     H169443   9.268   9.097   1.357
23067WAT     H269444   9.391   9.027   1.439
23068WAT      O69445   0.283   3.058   4.528
23068WAT     H169446   0.292   2.971   4.480
23068WAT     H269447   0.239   3.125   4.468
23069WAT      O69448   1.047   7.344   9.402
23069WAT     H169449   1.066   7.359   9.305
23069WAT     H269450   1.025   7.247   9.417
23070WAT      O69451   9.466   4.469   9.711
23070WAT     H169452   9.453   4.400   9.639
23070WAT     H269453   9.550   4.448   9.761
23071WAT      O69454   2.530   1.760   0.990
23071WAT     H169455   2.627   1.784   0.983
23071WAT     H269456   2.516   1.667   0.957
23072WAT      O69457   6.204   5.843   2.538
23072WAT     H169458   6.264   5.782   2.589
23072WAT     H269459   6.109   5.824   2.561
23073WAT      O69460   1.564   6.819   7.677
23073WAT     H169461   1.490   6.802   7.611
23073WAT     H269462   1.525   6.833   7.768
23074WAT      O69463   1.816   0.484   8.982
23074WAT     H169464   1.791   0.504   9.077
23074WAT     H269465   1.758   0.536   8.920
23075WAT      O69466   0.093   1.239   3.635
23075WAT     H169467   0.098   1.172   3.709
23075WAT     H269468   0.083   1.191   3.547
23076WAT      O69469   6.078   1.950   7.883
23076WAT     H169470   6.105   2.006   7.805
23076WAT     H269471   6.150   1.955   7.953
23077WAT      O69472   0.032   4.695   1.872
23077WAT     H169473   0.075   4.635   1.939
23077WAT     H269474  -0.041   4.646   1.824
23078WAT      O69475   3.283   6.443   2.653
23078WAT     H169476   3.317   6.537   2.642
23078WAT     H269477   3.240   6.434   2.742
23079WAT      O69478   8.561   2.937   6.991
23079WAT     H169479   8.466   2.910   6.973
23079WAT     H269480   8.561   3.025   7.039
23080WAT      O69481   7.780   7.618   1.165
23080WAT     H169482   7.869   7.584   1.194
23080WAT     H269483   7.725   7.639   1.245
23081WAT      O69484   0.789   2.725   0.002
23081WAT     H169485   0.773   2.793   0.073
23081WAT     H269486   0.701   2.689  -0.030
23082WAT      O69487   5.044   9.604   0.518
23082WAT     H169488   5.085   9.623   0.608
23082WAT     H269489   5.071   9.677   0.455
23083WAT      O69490   2.623   6.745   7.803
23083WAT     H169491   2.683   6.676   7.843
23083WAT     H269492   2.530   6.709   7.796
23084WAT      O69493   6.472   7.751   0.315
23084WAT     H169494   6.428   7.828   0.361
23084WAT     H269495   6.571   7.759   0.323
23085WAT      O69496   7.339   6.936   5.529
23085WAT     H169497   7.426   6.952   5.483
23085WAT     H269498   7.265   6.980   5.478
23086WAT      O69499   3.764   6.882   9.237
23086WAT     H169500   3.774   6.973   9.197
23086WAT     H269501   3.708   6.888   9.319
23087WAT      O69502   9.665   6.617   4.144
23087WAT     H169503   9.583   6.636   4.198
23087WAT     H269504   9.641   6.556   4.068
23088WAT      O69505   1.188   5.025   3.894
23088WAT     H169506   1.166   5.077   3.812
23088WAT     H269507   1.283   4.994   3.890
23089WAT      O69508   8.160   3.128   5.953
23089WAT     H169509   8.232   3.195   5.935
23089WAT     H269510   8.076   3.175   5.979
23090WAT      O69511   7.858   3.491   7.319
23090WAT     H169512   7.798   3.413   7.302
23090WAT     H269513   7.825   3.543   7.398
23091WAT      O69514   4.479   5.903   9.333
23091WAT     H169515   4.381   5.891   9.348
23091WAT     H269516   4.509   5.987   9.380
23092WAT      O69517   5.083   0.769   3.750
23092WAT     H169518   5.160   0.803   3.804
23092WAT     H269519   5.078   0.819   3.663
23093WAT      O69520   6.747   3.550   8.164
23093WAT     H169521   6.777   3.468   8.115
23093WAT     H269522   6.777   3.631   8.113
23094WAT      O69523   8.112   7.408   7.496
23094WAT     H169524   8.118   7.384   7.399
23094WAT     H269525   8.138   7.504   7.508
23095WAT      O69526   7.054   0.301   4.683
23095WAT     H169527   6.990   0.247   4.738
23095WAT     H269528   7.145   0.261   4.691
23096WAT      O69529   3.311   5.608   6.535
23096WAT     H169530   3.310   5.650   6.625
23096WAT     H269531   3.219   5.606   6.498
23097WAT      O69532   2.153   7.645   4.588
23097WAT     H169533   2.065   7.621   4.546
23097WAT     H269534   2.142   7.650   4.687
23098WAT      O69535   0.145   5.132   2.643
23098WAT     H169536   0.088   5.146   2.724
23098WAT     H269537   0.187   5.218   2.616
23099WAT      O69538   0.814   2.119   7.668
23099WAT     H169539   0.852   2.051   7.729
23099WAT     H269540   0.715   2.107   7.662
23100WAT      O69541   0.986   6.509   3.122
23100WAT     H169542   1.044   6.527   3.043
23100WAT     H269543   0.978   6.410   3.136
23101WAT      O69544   6.894   6.141   9.311
23101WAT     H169545   6.826   6.205   9.274
23101WAT     H269546   6.948   6.104   9.236
23102WAT      O69547   9.382   1.786   5.130
23102WAT     H169548   9.284   1.773   5.145
23102WAT     H269549   9.432   1.704   5.157
23103WAT      O69550   9.687   8.120   3.077
23103WAT     H169551   9.737   8.187   3.133
23103WAT     H269552   9.589   8.131   3.092
23104WAT      O69553   5.527   6.275   1.349
23104WAT     H169554   5.465   6.329   1.293
23104WAT     H269555   5.513   6.177   1.330
23105WAT      O69556   0.033   7.825   4.442
23105WAT     H169557   0.074   7.916   4.446
23105WAT     H269558   0.105   7.756   4.439
23106WAT      O69559   1.333   3.789   2.941
23106WAT     H169560   1.423   3.808   2.979
23106WAT     H269561   1.343   3.740   2.855
23107WAT      O69562   2.412   7.645   4.922
23107WAT     H169563   2.494   7.702   4.911
23107WAT     H269564   2.340   7.679   4.862
23108WAT      O69565   1.928   4.904   7.189
23108WAT     H169566   2.026   4.891   7.205
23108WAT     H269567   1.882   4.815   7.195
23109WAT      O69568   1.313   3.431   9.468
23109WAT     H169569   1.285   3.366   9.397
23109WAT     H269570   1.411   3.451   9.457
23110WAT      O69571   8.523   3.101   1.041
23110WAT     H169572   8.452   3.146   0.987
23110WAT     H269573   8.502   3.112   1.139
23111WAT      O69574   1.538   7.103   6.224
23111WAT     H169575   1.488   7.055   6.152
23111WAT     H269576   1.510   7.199   6.226
23112WAT      O69577   1.475   5.190   4.491
23112WAT     H169578   1.569   5.186   4.459
23112WAT     H269579   1.471   5.164   4.587
23113WAT      O69580   7.316   0.671   1.206
23113WAT     H169581   7.388   0.669   1.275
23113WAT     H269582   7.290   0.765   1.186
23114WAT      O69583   5.613   5.355   2.310
23114WAT     H169584   5.636   5.433   2.368
23114WAT     H269585   5.521   5.367   2.273
23115WAT      O69586   9.187   3.764   9.267
23115WAT     H169587   9.118   3.692   9.279
23115WAT     H269588   9.239   3.773   9.352
23116WAT      O69589   5.630   1.644   2.250
23116WAT     H169590   5.686   1.664   2.330
23116WAT     H269591   5.599   1.729   2.208
23117WAT      O69592   8.561   9.378   8.392
23117WAT     H169593   8.656   9.359   8.369
23117WAT     H269594   8.523   9.302   8.445
23118WAT      O69595   9.302   5.350   3.816
23118WAT     H169596   9.388   5.360   3.866
23118WAT     H269597   9.225   5.369   3.877
23119WAT      O69598   7.123   5.092   7.885
23119WAT     H169599   7.085   5.025   7.821
23119WAT     H269600   7.050   5.128   7.943
23120WAT      O69601   3.054   7.229   1.800
23120WAT     H169602   3.040   7.252   1.896
23120WAT     H269603   3.080   7.133   1.791
23121WAT      O69604   7.476   4.459   4.189
23121WAT     H169605   7.382   4.425   4.187
23121WAT     H269606   7.505   4.481   4.096
23122WAT      O69607   5.319   4.264   7.057
23122WAT     H169608   5.284   4.343   7.007
23122WAT     H269609   5.391   4.221   7.005
23123WAT      O69610   2.138   8.122   7.851
23123WAT     H169611   2.070   8.083   7.914
23123WAT     H269612   2.156   8.217   7.876
23124WAT      O69613   2.720   5.912   5.564
23124WAT     H169614   2.772   5.996   5.575
23124WAT     H269615   2.629   5.934   5.526
23125WAT      O69616   7.235   3.676   5.509
23125WAT     H169617   7.253   3.772   5.488
23125WAT     H269618   7.137   3.656   5.496
23126WAT      O69619   3.956   7.504   6.789
23126WAT     H169620   4.040   7.450   6.791
23126WAT     H269621   3.908   7.494   6.876
23127WAT      O69622   0.859   3.625   8.213
23127WAT     H169623   0.777   3.638   8.270
23127WAT     H269624   0.844   3.547   8.152
23128WAT      O69625   8.806   8.648   3.737
23128WAT     H169626   8.897   8.689   3.739
23128WAT     H269627   8.742   8.708   3.786
23129WAT      O69628   8.907   6.740   2.388
23129WAT     H169629   8.816   6.701   2.386
23129WAT     H269630   8.956   6.707   2.468
23130WAT      O69631   6.587   1.934   6.040
23130WAT     H169632   6.607   1.960   6.135
23130WAT     H269633   6.567   1.836   6.036
23131WAT      O69634   1.104   5.384   2.743
23131WAT     H169635   1.189   5.332   2.728
23131WAT     H269636   1.069   5.416   2.655
23132WAT      O69637   1.976   1.533   1.400
23132WAT     H169638   1.946   1.591   1.476
23132WAT     H269639   1.936   1.566   1.315
23133WAT      O69640   6.664   9.229   3.744
23133WAT     H169641   6.697   9.185   3.661
23133WAT     H269642   6.566   9.248   3.735
23134WAT      O69643   3.906   5.100   9.427
23134WAT     H169644   3.855   5.042   9.489
23134WAT     H269645   3.851   5.120   9.346
23135WAT      O69646   6.606   0.831   2.916
23135WAT     H169647   6.550   0.772   2.857
23135WAT     H269648   6.677   0.875   2.861
23136WAT      O69649   3.633   1.622   1.476
23136WAT     H169650   3.603   1.595   1.384
23136WAT     H269651   3.568   1.585   1.543
23137WAT      O69652   6.409   2.196   8.151
23137WAT     H169653   6.372   2.289   8.161
23137WAT     H269654   6.445   2.185   8.058
23138WAT      O69655   7.580   3.733   3.714
23138WAT     H169656   7.610   3.828   3.725
23138WAT     H269657   7.512   3.712   3.784
23139WAT      O69658   9.108   3.849   0.119
23139WAT     H169659   9.157   3.828   0.034
23139WAT     H269660   9.122   3.775   0.185
23140WAT      O69661   0.236   0.287   4.145
23140WAT     H169662   0.196   0.256   4.058
23140WAT     H269663   0.328   0.249   4.155
23141WAT      O69664   0.695   5.615   3.178
23141WAT     H169665   0.646   5.557   3.113
23141WAT     H269666   0.690   5.575   3.269
23142WAT      O69667   0.289   5.549   1.779
23142WAT     H169668   0.254   5.507   1.863
23142WAT     H269669   0.339   5.632   1.802
23143WAT      O69670   1.058   8.090   6.817
23143WAT     H169671   1.093   8.006   6.775
23143WAT     H269672   1.050   8.161   6.747
23144WAT      O69673   7.096   7.676   0.820
23144WAT     H169674   7.157   7.718   0.887
23144WAT     H269675   7.022   7.739   0.797
23145WAT      O69676   8.532   2.858   7.923
23145WAT     H169677   8.606   2.922   7.947
23145WAT     H269678   8.571   2.767   7.908
23146WAT      O69679   2.704   8.663   0.973
23146WAT     H169680   2.768   8.606   1.025
23146WAT     H269681   2.745   8.752   0.957
23147WAT      O69682   1.023   5.960   4.893
23147WAT     H169683   1.107   5.910   4.869
23147WAT     H269684   0.966   5.971   4.812
23148WAT      O69685   0.490   2.055   2.096
23148WAT     H169686   0.511   1.965   2.134
23148WAT     H269687   0.427   2.045   2.019
23149WAT      O69688   5.582   3.173   5.550
23149WAT     H169689   5.521   3.167   5.470
23149WAT     H269690   5.596   3.269   5.574
23150WAT      O69691   7.697   5.786   9.584
23150WAT     H169692   7.664   5.856   9.648
23150WAT     H269693   7.792   5.807   9.560
23151WAT      O69694   7.029   2.148   7.660
23151WAT     H169695   6.996   2.059   7.693
23151WAT     H269696   7.129   2.149   7.663
23152WAT      O69697   9.322   7.266   8.890
23152WAT     H169698   9.252   7.216   8.839
23152WAT     H269699   9.294   7.362   8.900
23153WAT      O69700   5.027   0.530   3.258
23153WAT     H169701   5.052   0.443   3.298
23153WAT     H269702   5.016   0.598   3.330
23154WAT      O69703   8.712   3.132   9.253
23154WAT     H169704   8.801   3.120   9.299
23154WAT     H269705   8.656   3.194   9.307
23155WAT      O69706   7.218   7.194   0.480
23155WAT     H169707   7.272   7.200   0.564
23155WAT     H269708   7.186   7.100   0.468
23156WAT      O69709   5.250   8.329   1.195
23156WAT     H169710   5.209   8.412   1.157
23156WAT     H269711   5.236   8.253   1.132
23157WAT      O69712   4.838   5.629   2.396
23157WAT     H169713   4.833   5.538   2.355
23157WAT     H269714   4.831   5.698   2.324
23158WAT      O69715   0.647   6.712   2.012
23158WAT     H169716   0.633   6.712   1.913
23158WAT     H269717   0.559   6.698   2.058
23159WAT      O69718   9.170   1.929   6.716
23159WAT     H169719   9.261   1.902   6.747
23159WAT     H269720   9.145   2.017   6.757
23160WAT      O69721   1.735   1.891   7.121
23160WAT     H169722   1.785   1.829   7.060
23160WAT     H269723   1.701   1.969   7.068
23161WAT      O69724   7.484   9.713   6.706
23161WAT     H169725   7.546   9.775   6.753
23161WAT     H269726   7.392   9.753   6.704
23162WAT      O69727   0.332   3.196   2.458
23162WAT     H169728   0.265   3.208   2.532
23162WAT     H269729   0.335   3.100   2.431
23163WAT      O69730   8.737   9.247   4.401
23163WAT     H169731   8.835   9.237   4.380
23163WAT     H269732   8.703   9.162   4.442
23164WAT      O69733   6.362   1.205   8.675
23164WAT     H169734   6.442   1.260   8.650
23164WAT     H269735   6.374   1.169   8.767
23165WAT      O69736   9.319   9.545   7.804
23165WAT     H169737   9.222   9.563   7.785
23165WAT     H269738   9.333   9.447   7.816
23166WAT      O69739   9.495   1.270   0.290
23166WAT     H169740   9.551   1.346   0.256
23166WAT     H269741   9.536   1.183   0.263
23167WAT      O69742   6.810   6.523   4.743
23167WAT     H169743   6.828   6.476   4.830
23167WAT     H269744   6.731   6.482   4.698
23168WAT      O69745   6.820   6.061   1.582
23168WAT     H169746   6.810   6.142   1.639
23168WAT     H269747   6.852   5.984   1.639
23169WAT      O69748   1.466   8.681   8.085
23169WAT     H169749   1.435   8.749   8.151
23169WAT     H269750   1.428   8.591   8.109
23170WAT      O69751   1.708   3.313   2.205
23170WAT     H169752   1.681   3.226   2.247
23170WAT     H269753   1.635   3.346   2.145
23171WAT      O69754   8.474   6.163   5.275
23171WAT     H169755   8.494   6.205   5.187
23171WAT     H269756   8.549   6.183   5.339
23172WAT      O69757   3.246   4.819   6.867
23172WAT     H169758   3.224   4.724   6.847
23172WAT     H269759   3.345   4.831   6.871
23173WAT      O69760   7.354   2.593   6.339
23173WAT     H169761   7.401   2.542   6.411
23173WAT     H269762   7.349   2.690   6.365
23174WAT      O69763   2.524   0.118   4.593
23174WAT     H169764   2.544   0.211   4.561
23174WAT     H269765   2.425   0.105   4.598
23175WAT      O69766   4.338   0.088   3.082
23175WAT     H169767   4.282   0.170   3.089
23175WAT     H269768   4.404   0.086   3.157
23176WAT      O69769   8.865   2.830   0.875
23176WAT     H169770   8.785   2.821   0.934
23176WAT     H269771   8.847   2.789   0.786
23177WAT      O69772   8.488   6.211   8.887
23177WAT     H169773   8.546   6.221   8.806
23177WAT     H269774   8.523   6.270   8.960
23178WAT      O69775   2.606   8.894   0.132
23178WAT     H169776   2.671   8.861   0.200
23178WAT     H269777   2.518   8.848   0.145
23179WAT      O69778   0.232   7.746   8.057
23179WAT     H169779   0.273   7.714   8.142
23179WAT     H269780   0.134   7.764   8.072
23180WAT      O69781   6.411   7.331   6.015
23180WAT     H169782   6.430   7.262   5.945
23180WAT     H269783   6.401   7.421   5.972
23181WAT      O69784   6.351   3.958   2.011
23181WAT     H169785   6.443   3.943   2.047
23181WAT     H269786   6.328   3.885   1.947
23182WAT      O69787   2.544   3.381   5.476
23182WAT     H169788   2.593   3.313   5.530
23182WAT     H269789   2.594   3.468   5.479
23183WAT      O69790   2.825   2.244   3.187
23183WAT     H169791   2.783   2.329   3.218
23183WAT     H269792   2.839   2.248   3.088
23184WAT      O69793   3.407   8.124   5.749
23184WAT     H169794   3.463   8.184   5.692
23184WAT     H269795   3.312   8.155   5.746
23185WAT      O69796   0.743   3.666   7.569
23185WAT     H169797   0.814   3.728   7.536
23185WAT     H269798   0.773   3.624   7.656
23186WAT      O69799   9.720   4.556   5.880
23186WAT     H169800   9.655   4.480   5.876
23186WAT     H269801   9.789   4.539   5.950
23187WAT      O69802   7.965   8.467   1.133
23187WAT     H169803   8.059   8.433   1.133
23187WAT     H269804   7.902   8.390   1.118
23188WAT      O69805   8.541   5.920   1.786
23188WAT     H169806   8.500   6.007   1.760
23188WAT     H269807   8.492   5.881   1.864
23189WAT      O69808   4.946   2.920   2.979
23189WAT     H169809   5.040   2.944   2.954
23189WAT     H269810   4.906   2.864   2.907
23190WAT      O69811   4.464   6.823   6.980
23190WAT     H169812   4.407   6.788   7.053
23190WAT     H269813   4.544   6.870   7.019
23191WAT      O69814   4.260   8.934   3.711
23191WAT     H169815   4.174   8.899   3.676
23191WAT     H269816   4.260   9.034   3.706
23192WAT      O69817   5.289   3.590   3.617
23192WAT     H169818   5.265   3.673   3.669
23192WAT     H269819   5.273   3.606   3.520
23193WAT      O69820   8.604   9.279   2.428
23193WAT     H169821   8.651   9.368   2.434
23193WAT     H269822   8.554   9.275   2.341
23194WAT      O69823   8.683   8.059   7.557
23194WAT     H169824   8.623   8.015   7.624
23194WAT     H269825   8.688   8.002   7.474
23195WAT      O69826   1.859   4.363   8.649
23195WAT     H169827   1.890   4.334   8.558
23195WAT     H269828   1.855   4.463   8.653
23196WAT      O69829   1.134   4.877   9.152
23196WAT     H169830   1.100   4.943   9.218
23196WAT     H269831   1.079   4.794   9.155
23197WAT      O69832   0.219   5.116   0.924
23197WAT     H169833   0.243   5.025   0.890
23197WAT     H269834   0.169   5.107   1.010
23198WAT      O69835   4.363   5.092   7.779
23198WAT     H169836   4.361   5.037   7.862
23198WAT     H269837   4.457   5.102   7.747
23199WAT      O69838   6.540   2.089   1.551
23199WAT     H169839   6.582   2.164   1.500
23199WAT     H269840   6.473   2.126   1.615
23200WAT      O69841   7.570   2.176   8.017
23200WAT     H169842   7.616   2.189   8.104
23200WAT     H269843   7.472   2.195   8.028
23201WAT      O69844   0.943   5.664   1.706
23201WAT     H169845   0.846   5.657   1.730
23201WAT     H269846   0.961   5.753   1.665
23202WAT      O69847   7.252   0.668   4.797
23202WAT     H169848   7.287   0.727   4.870
23202WAT     H269849   7.165   0.627   4.826
23203WAT      O69850   2.035   8.141   6.406
23203WAT     H169851   2.003   8.157   6.312
23203WAT     H269852   1.963   8.168   6.470
23204WAT      O69853   9.607   9.670   9.071
23204WAT     H169854   9.660   9.661   8.988
23204WAT     H269855   9.544   9.593   9.079
23205WAT      O69856   6.967   9.265   4.193
23205WAT     H169857   6.931   9.244   4.102
23205WAT     H269858   7.061   9.298   4.185
23206WAT      O69859   7.456   7.081   8.027
23206WAT     H169860   7.528   7.149   8.043
23206WAT     H269861   7.415   7.055   8.114
23207WAT      O69862   4.533   2.061   2.025
23207WAT     H169863   4.609   2.074   1.962
23207WAT     H269864   4.552   1.982   2.084
23208WAT      O69865   8.184   5.450   3.186
23208WAT     H169866   8.121   5.374   3.169
23208WAT     H269867   8.168   5.488   3.277
23209WAT      O69868   0.294   0.196   8.528
23209WAT     H169869   0.210   0.224   8.481
23209WAT     H269870   0.321   0.266   8.593
23210WAT      O69871   0.797   8.375   3.911
23210WAT     H169872   0.755   8.399   3.823
23210WAT     H269873   0.773   8.281   3.934
23211WAT      O69874   2.867   0.778   3.628
23211WAT     H169875   2.778   0.760   3.587
23211WAT     H269876   2.901   0.695   3.672
23212WAT      O69877   7.605   6.224   9.176
23212WAT     H169878   7.638   6.132   9.198
23212WAT     H269879   7.682   6.281   9.148
23213WAT      O69880   2.513   3.474   0.350
23213WAT     H169881   2.422   3.492   0.388
23213WAT     H269882   2.580   3.532   0.396
23214WAT      O69883   6.483   4.637   3.206
23214WAT     H169884   6.392   4.617   3.242
23214WAT     H269885   6.549   4.637   3.280
23215WAT      O69886   8.375   8.324   5.303
23215WAT     H169887   8.377   8.351   5.399
23215WAT     H269888   8.281   8.333   5.268
23216WAT      O69889   1.615   1.447   5.398
23216WAT     H169890   1.704   1.404   5.386
23216WAT     H269891   1.581   1.428   5.491
23217WAT      O69892   5.815   8.018   1.790
23217WAT     H169893   5.898   8.042   1.739
23217WAT     H269894   5.735   8.033   1.732
23218WAT      O69895   1.696   0.422   0.921
23218WAT     H169896   1.763   0.469   0.979
23218WAT     H269897   1.656   0.346   0.971
23219WAT      O69898   0.059   4.791   5.874
23219WAT     H169899   0.156   4.787   5.896
23219WAT     H269900   0.017   4.702   5.891
23220WAT      O69901   3.729   5.871   7.694
23220WAT     H169902   3.662   5.805   7.729
23220WAT     H269903   3.738   5.859   7.595
23221WAT      O69904   2.684   3.826   1.959
23221WAT     H169905   2.775   3.805   1.993
23221WAT     H269906   2.642   3.896   2.017
23222WAT      O69907   5.313   5.225   1.777
23222WAT     H169908   5.236   5.175   1.738
23222WAT     H269909   5.396   5.204   1.725
23223WAT      O69910   5.307   2.007   9.590
23223WAT     H169911   5.359   2.092   9.601
23223WAT     H269912   5.307   1.981   9.494
23224WAT      O69913   5.486   6.576   3.843
23224WAT     H169914   5.437   6.501   3.797
23224WAT     H269915   5.578   6.584   3.805
23225WAT      O69916   4.832   7.974   1.948
23225WAT     H169917   4.734   7.964   1.962
23225WAT     H269918   4.881   7.914   2.011
23226WAT      O69919   6.645   3.014   8.118
23226WAT     H169920   6.695   2.951   8.059
23226WAT     H269921   6.650   2.982   8.213
23227WAT      O69922   7.559   3.738   0.911
23227WAT     H169923   7.617   3.817   0.892
23227WAT     H269924   7.594   3.688   0.990
23228WAT      O69925   6.593   5.145   6.168
23228WAT     H169926   6.675   5.123   6.221
23228WAT     H269927   6.514   5.099   6.207
23229WAT      O69928   7.479   3.945   8.000
23229WAT     H169929   7.478   4.021   8.064
23229WAT     H269930   7.474   3.979   7.907
23230WAT      O69931   0.057   8.204   3.424
23230WAT     H169932   0.048   8.303   3.411
23230WAT     H269933   0.070   8.160   3.335
23231WAT      O69934   1.367   2.806   0.877
23231WAT     H169935   1.291   2.761   0.923
23231WAT     H269936   1.427   2.737   0.837
23232WAT      O69937   7.637   3.216   1.342
23232WAT     H169938   7.674   3.125   1.322
23232WAT     H269939   7.572   3.241   1.270
23233WAT      O69940   5.896   2.956   3.978
23233WAT     H169941   5.966   2.912   3.920
23233WAT     H269942   5.817   2.979   3.922
23234WAT      O69943   4.878   0.663   7.626
23234WAT     H169944   4.805   0.709   7.575
23234WAT     H269945   4.843   0.637   7.716
23235WAT      O69946   5.150   5.612   8.073
23235WAT     H169947   5.062   5.661   8.067
23235WAT     H269948   5.133   5.515   8.090
23236WAT      O69949   6.829   3.469   3.173
23236WAT     H169950   6.776   3.414   3.108
23236WAT     H269951   6.768   3.534   3.219
23237WAT      O69952   1.813   8.756   2.598
23237WAT     H169953   1.860   8.820   2.537
23237WAT     H269954   1.715   8.758   2.580
23238WAT      O69955   8.960   0.711   9.075
23238WAT     H169956   8.958   0.784   9.008
23238WAT     H269957   8.872   0.707   9.123
23239WAT      O69958   8.850   2.009   4.138
23239WAT     H169959   8.925   1.965   4.090
23239WAT     H269960   8.885   2.082   4.197
23240WAT      O69961   1.430   8.277   0.315
23240WAT     H169962   1.355   8.342   0.325
23240WAT     H269963   1.480   8.296   0.230
23241WAT      O69964   2.247   2.263   8.442
23241WAT     H169965   2.320   2.243   8.508
23241WAT     H269966   2.220   2.358   8.449
23242WAT      O69967   3.175   9.401   8.736
23242WAT     H169968   3.190   9.499   8.727
23242WAT     H269969   3.077   9.382   8.737
23243WAT      O69970   7.996   3.580   2.913
23243WAT     H169971   7.916   3.520   2.914
23243WAT     H269972   8.007   3.620   2.822
23244WAT      O69973   0.244   3.943   2.703
23244WAT     H169974   0.220   4.036   2.732
23244WAT     H269975   0.341   3.940   2.678
23245WAT      O69976   0.994   3.855   2.387
23245WAT     H169977   0.975   3.939   2.337
23245WAT     H269978   1.062   3.801   2.337
23246WAT      O69979   2.804   4.898   6.244
23246WAT     H169980   2.850   4.947   6.169
23246WAT     H269981   2.705   4.905   6.232
23247WAT      O69982   0.244   0.999   3.195
23247WAT     H169983   0.178   1.034   3.261
23247WAT     H269984   0.198   0.981   3.107
23248WAT      O69985   5.194   3.731   1.105
23248WAT     H169986   5.157   3.640   1.126
23248WAT     H269987   5.183   3.750   1.008
23249WAT      O69988   0.548   7.563   0.603
23249WAT     H169989   0.463   7.595   0.562
23249WAT     H269990   0.572   7.621   0.681
23250WAT      O69991   6.132   0.234   6.341
23250WAT     H169992   6.178   0.145   6.331
23250WAT     H269993   6.048   0.234   6.287
23251WAT      O69994   5.306   8.901   0.870
23251WAT     H169995   5.359   8.868   0.948
23251WAT     H269996   5.263   8.823   0.824
23252WAT      O69997   5.910   0.284   6.993
23252WAT     H169998   5.879   0.212   6.931
23252WAT     H269999   5.884   0.261   7.087
23253WAT      O70000   8.879   8.228   1.813
23253WAT     H170001   8.921   8.289   1.880
23253WAT     H270002   8.914   8.250   1.721
23254WAT      O70003   5.441   9.714   5.306
23254WAT     H170004   5.455   9.642   5.239
23254WAT     H270005   5.528   9.758   5.327
23255WAT      O70006   7.609   2.527   0.753
23255WAT     H170007   7.614   2.464   0.675
23255WAT     H270008   7.608   2.475   0.838
23256WAT      O70009   1.000   4.169   5.818
23256WAT     H170010   0.930   4.225   5.774
23256WAT     H270011   1.065   4.228   5.865
23257WAT      O70012   9.661   9.447   6.169
23257WAT     H170013   9.691   9.405   6.083
23257WAT     H270014   9.675   9.381   6.243
23258WAT      O70015   8.891   8.020   0.767
23258WAT     H170016   8.910   8.055   0.859
23258WAT     H270017   8.797   8.042   0.742
23259WAT      O70018   7.013   8.519   5.678
23259WAT     H170019   7.033   8.447   5.745
23259WAT     H270020   7.099   8.562   5.649
23260WAT      O70021   2.361   5.208   5.840
23260WAT     H170022   2.392   5.219   5.934
23260WAT     H270023   2.268   5.170   5.839
23261WAT      O70024   1.610   8.376   9.480
23261WAT     H170025   1.666   8.430   9.417
23261WAT     H270026   1.647   8.284   9.486
23262WAT      O70027   4.897   5.150   1.182
23262WAT     H170028   4.799   5.153   1.202
23262WAT     H270029   4.929   5.242   1.157
23263WAT      O70030   1.243   8.683   2.491
23263WAT     H170031   1.301   8.644   2.562
23263WAT     H270032   1.182   8.751   2.531
23264WAT      O70033   2.291   7.077   3.809
23264WAT     H170034   2.206   7.044   3.851
23264WAT     H270035   2.328   7.007   3.749
23265WAT      O70036   7.257   9.495   1.272
23265WAT     H170037   7.320   9.449   1.335
23265WAT     H270038   7.264   9.594   1.284
23266WAT      O70039   8.716   0.639   8.299
23266WAT     H170040   8.716   0.591   8.387
23266WAT     H270041   8.645   0.600   8.240
23267WAT      O70042   4.198   9.715   9.030
23267WAT     H170043   4.193   9.707   9.130
23267WAT     H270044   4.194   9.811   9.004
23268WAT      O70045   2.921   8.755   2.200
23268WAT     H170046   2.876   8.687   2.256
23268WAT     H270047   2.865   8.838   2.195
23269WAT      O70048   0.723   7.364   4.395
23269WAT     H170049   0.707   7.272   4.431
23269WAT     H270050   0.679   7.432   4.455
23270WAT      O70051   5.744   9.508   7.370
23270WAT     H170052   5.800   9.585   7.401
23270WAT     H270053   5.662   9.542   7.325
23271WAT      O70054   1.882   3.484   6.689
23271WAT     H170055   1.858   3.543   6.766
23271WAT     H270056   1.806   3.422   6.669
23272WAT      O70057   7.100   4.961   6.718
23272WAT     H170058   7.096   5.041   6.778
23272WAT     H270059   7.086   4.878   6.772
23273WAT      O70060   9.816   9.822   8.444
23273WAT     H170061   9.860   9.912   8.449
23273WAT     H270062   9.762   9.817   8.360
23274WAT      O70063   8.650   5.713   7.925
23274WAT     H170064   8.586   5.649   7.882
23274WAT     H270065   8.743   5.676   7.920
23275WAT      O70066   5.822   5.782   6.027
23275WAT     H170067   5.864   5.812   5.941
23275WAT     H270068   5.761   5.853   6.061
23276WAT      O70069   4.188   0.391   0.806
23276WAT     H170070   4.110   0.410   0.746
23276WAT     H270071   4.263   0.354   0.753
23277WAT      O70072   9.443   5.464   4.826
23277WAT     H170073   9.525   5.431   4.780
23277WAT     H270074   9.419   5.554   4.789
23278WAT      O70075   8.144   7.321   7.217
23278WAT     H170076   8.065   7.380   7.198
23278WAT     H270077   8.166   7.269   7.135
23279WAT      O70078   3.602   1.270   1.522
23279WAT     H170079   3.582   1.239   1.429
23279WAT     H270080   3.695   1.307   1.525
23280WAT      O70081   1.454   7.725   4.002
23280WAT     H170082   1.401   7.644   3.978
23280WAT     H270083   1.500   7.760   3.921
23281WAT      O70084   2.678   1.065   8.642
23281WAT     H170085   2.724   0.981   8.613
23281WAT     H270086   2.742   1.123   8.691
23282WAT      O70087   2.809   4.980   5.044
23282WAT     H170088   2.790   5.027   4.958
23282WAT     H270089   2.724   4.939   5.079
23283WAT      O70090   5.132   4.055   2.227
23283WAT     H170091   5.042   4.072   2.266
23283WAT     H270092   5.201   4.056   2.300
23284WAT      O70093   7.777   0.735   5.826
23284WAT     H170094   7.750   0.755   5.731
23284WAT     H270095   7.870   0.768   5.841
23285WAT      O70096   9.820   6.283   0.971
23285WAT     H170097   9.769   6.201   0.946
23285WAT     H270098   9.917   6.260   0.983
23286WAT      O70099   8.072   3.752   1.319
23286WAT     H170100   8.100   3.712   1.232
23286WAT     H270101   8.029   3.681   1.376
23287WAT      O70102   4.108   7.743   6.500
23287WAT     H170103   4.179   7.807   6.529
23287WAT     H270104   4.036   7.739   6.569
23288WAT      O70105   5.635   0.389   7.162
23288WAT     H170106   5.721   0.401   7.211
23288WAT     H270107   5.653   0.378   7.064
23289WAT      O70108   4.427   1.519   9.730
23289WAT     H170109   4.493   1.520   9.655
23289WAT     H270110   4.441   1.599   9.788
23290WAT      O70111   3.745   3.553   4.561
23290WAT     H170112   3.761   3.529   4.465
23290WAT     H270113   3.800   3.493   4.620
23291WAT      O70114   6.382   0.977   5.068
23291WAT     H170115   6.301   0.966   5.011
23291WAT     H270116   6.463   0.977   5.011
23292WAT      O70117   5.203   3.603   5.860
23292WAT     H170118   5.245   3.569   5.776
23292WAT     H270119   5.247   3.561   5.939
23293WAT      O70120   4.325   0.650   0.678
23293WAT     H170121   4.279   0.580   0.732
23293WAT     H270122   4.324   0.737   0.727
23294WAT      O70123   8.042   4.947   7.681
23294WAT     H170124   8.114   4.911   7.740
23294WAT     H270125   8.014   4.876   7.615
23295WAT      O70126   3.326   0.206   9.293
23295WAT     H170127   3.246   0.195   9.234
23295WAT     H270128   3.357   0.300   9.290
23296WAT      O70129   4.652   3.178   8.015
23296WAT     H170130   4.686   3.255   8.069
23296WAT     H270131   4.637   3.206   7.921
23297WAT      O70132   9.766   6.667   2.161
23297WAT     H170133   9.859   6.677   2.195
23297WAT     H270134   9.735   6.573   2.176
23298WAT      O70135   8.168   7.746   6.893
23298WAT     H170136   8.263   7.767   6.869
23298WAT     H270137   8.166   7.698   6.980
23299WAT      O70138   6.883   9.526   0.262
23299WAT     H170139   6.814   9.533   0.190
23299WAT     H270140   6.963   9.477   0.227
23300WAT      O70141   8.213   5.689   9.397
23300WAT     H170142   8.151   5.638   9.456
23300WAT     H270143   8.304   5.648   9.401
23301WAT      O70144   4.482   8.402   9.146
23301WAT     H170145   4.569   8.404   9.098
23301WAT     H270146   4.498   8.399   9.244
23302WAT      O70147   0.970   1.658   7.980
23302WAT     H170148   0.991   1.683   8.074
23302WAT     H270149   0.872   1.670   7.964
23303WAT      O70150   7.527   7.985   7.589
23303WAT     H170151   7.558   7.958   7.498
23303WAT     H270152   7.443   8.039   7.581
23304WAT      O70153   8.453   8.031   9.058
23304WAT     H170154   8.514   8.052   9.134
23304WAT     H270155   8.495   7.962   8.999
23305WAT      O70156   0.660   1.207   8.226
23305WAT     H170157   0.617   1.192   8.138
23305WAT     H270158   0.668   1.121   8.275
23306WAT      O70159   0.033   6.560   4.508
23306WAT     H170160   0.040   6.574   4.409
23306WAT     H270161   0.120   6.582   4.551
23307WAT      O70162   8.021   5.725   4.270
23307WAT     H170163   8.051   5.686   4.183
23307WAT     H270164   8.083   5.799   4.296
23308WAT      O70165   6.397   4.067   8.316
23308WAT     H170166   6.379   4.071   8.218
23308WAT     H270167   6.477   4.124   8.338
23309WAT      O70168   4.026   0.898   9.301
23309WAT     H170169   4.051   0.854   9.214
23309WAT     H270170   4.069   0.848   9.376
23310WAT      O70171   8.245   4.274   8.176
23310WAT     H170172   8.218   4.309   8.087
23310WAT     H270173   8.308   4.338   8.220
23311WAT      O70174   3.186   3.630   0.136
23311WAT     H170175   3.216   3.582   0.054
23311WAT     H270176   3.120   3.701   0.110
23312WAT      O70177   1.586   0.054   4.435
23312WAT     H170178   1.636   0.124   4.384
23312WAT     H270179   1.603   0.065   4.533
23313WAT      O70180   1.355   7.839   7.928
23313WAT     H170181   1.284   7.909   7.918
23313WAT     H270182   1.318   7.750   7.900
23314WAT      O70183   0.557   9.095   8.671
23314WAT     H170184   0.580   9.012   8.620
23314WAT     H270185   0.609   9.098   8.756
23315WAT      O70186   7.355   5.041   0.694
23315WAT     H170187   7.370   5.130   0.738
23315WAT     H270188   7.427   5.025   0.627
23316WAT      O70189   9.738   5.569   3.195
23316WAT     H170190   9.689   5.521   3.122
23316WAT     H270191   9.831   5.532   3.202
23317WAT      O70192   0.466   8.888   0.843
23317WAT     H170193   0.500   8.910   0.934
23317WAT     H270194   0.525   8.818   0.802
23318WAT      O70195   0.052   2.706   8.456
23318WAT     H170196   0.147   2.720   8.485
23318WAT     H270197   0.018   2.789   8.412
23319WAT      O70198   0.366   8.822   9.656
23319WAT     H170199   0.429   8.886   9.700
23319WAT     H270200   0.355   8.741   9.714
23320WAT      O70201   5.179   6.859   4.652
23320WAT     H170202   5.210   6.765   4.639
23320WAT     H270203   5.254   6.922   4.632
23321WAT      O70204   6.825   9.360   3.386
23321WAT     H170205   6.784   9.330   3.300
23321WAT     H270206   6.783   9.445   3.416
23322WAT      O70207   2.702   8.458   4.666
23322WAT     H170208   2.641   8.501   4.732
23322WAT     H270209   2.649   8.398   4.606
23323WAT      O70210   2.920   3.929   1.519
23323WAT     H170211   2.854   3.978   1.462
23323WAT     H270212   2.932   3.836   1.484
23324WAT      O70213   6.181   3.969   9.841
23324WAT     H170214   6.088   3.974   9.878
23324WAT     H270215   6.220   4.061   9.838
23325WAT      O70216   4.349   4.688   3.116
23325WAT     H170217   4.317   4.599   3.084
23325WAT     H270218   4.296   4.716   3.197
23326WAT      O70219   0.232   4.730   7.092
23326WAT     H170220   0.185   4.677   7.021
23326WAT     H270221   0.179   4.727   7.177
23327WAT      O70222   0.472   4.302   2.551
23327WAT     H170223   0.462   4.398   2.527
23327WAT     H270224   0.563   4.285   2.587
23328WAT      O70225   9.120   7.619   3.964
23328WAT     H170226   9.204   7.577   3.999
23328WAT     H270227   9.132   7.642   3.867
23329WAT      O70228   5.196   3.806   0.536
23329WAT     H170229   5.161   3.898   0.557
23329WAT     H270230   5.132   3.738   0.571
23330WAT      O70231   7.383   2.245   4.299
23330WAT     H170232   7.410   2.167   4.355
23330WAT     H270233   7.462   2.303   4.282
23331WAT      O70234   9.403   2.451   0.565
23331WAT     H170235   9.402   2.391   0.486
23331WAT     H270236   9.492   2.447   0.609
23332WAT      O70237   4.147   7.667   0.827
23332WAT     H170238   4.154   7.619   0.740
23332WAT     H270239   4.197   7.753   0.822
23333WAT      O70240   9.033   4.206   2.301
23333WAT     H170241   9.060   4.151   2.380
23333WAT     H270242   9.015   4.300   2.330
23334WAT      O70243   6.422   0.160   1.294
23334WAT     H170244   6.388   0.116   1.211
23334WAT     H270245   6.513   0.124   1.315
23335WAT      O70246   4.757   4.896   3.225
23335WAT     H170247   4.846   4.921   3.187
23335WAT     H270248   4.717   4.976   3.271
23336WAT      O70249   1.343   2.100   3.311
23336WAT     H170250   1.419   2.164   3.297
23336WAT     H270251   1.268   2.148   3.358
23337WAT      O70252   7.632   7.896   7.853
23337WAT     H170253   7.581   7.848   7.924
23337WAT     H270254   7.584   7.888   7.765
23338WAT      O70255   3.174   1.300   9.843
23338WAT     H170256   3.113   1.263   9.772
23338WAT     H270257   3.119   1.343   9.915
23339WAT      O70258   1.421   4.634   6.717
23339WAT     H170259   1.515   4.624   6.751
23339WAT     H270260   1.389   4.727   6.735
23340WAT      O70261   9.132   8.356   7.651
23340WAT     H170262   9.212   8.401   7.691
23340WAT     H270263   9.058   8.353   7.718
23341WAT      O70264   0.839   7.761   4.678
23341WAT     H170265   0.804   7.677   4.637
23341WAT     H270266   0.813   7.765   4.775
23342WAT      O70267   8.959   1.940   4.983
23342WAT     H170268   8.976   1.842   4.987
23342WAT     H270269   9.045   1.990   4.995
23343WAT      O70270   8.111   0.198   9.723
23343WAT     H170271   8.073   0.246   9.644
23343WAT     H270272   8.179   0.132   9.692
23344WAT      O70273   0.684   8.688   4.250
23344WAT     H170274   0.592   8.649   4.245
23344WAT     H270275   0.739   8.655   4.174
23345WAT      O70276   5.700   0.123   9.343
23345WAT     H170277   5.732   0.033   9.375
23345WAT     H270278   5.637   0.110   9.266
23346WAT      O70279   5.751   1.919   0.251
23346WAT     H170280   5.825   1.852   0.256
23346WAT     H270281   5.789   2.010   0.233
23347WAT      O70282   3.892   1.994   4.527
23347WAT     H170283   3.868   1.897   4.513
23347WAT     H270284   3.852   2.049   4.455
23348WAT      O70285   9.759   3.173   4.297
23348WAT     H170286   9.725   3.127   4.214
23348WAT     H270287   9.761   3.272   4.281
23349WAT      O70288   1.232   7.146   5.923
23349WAT     H170289   1.295   7.068   5.927
23349WAT     H270290   1.284   7.230   5.908
23350WAT      O70291   9.771   0.756   9.233
23350WAT     H170292   9.736   0.662   9.234
23350WAT     H270293   9.845   0.762   9.165
23351WAT      O70294   9.589   3.873   6.978
23351WAT     H170295   9.507   3.864   6.922
23351WAT     H270296   9.661   3.916   6.923
23352WAT      O70297   0.254   6.774   9.023
23352WAT     H170298   0.293   6.864   9.004
23352WAT     H270299   0.185   6.783   9.095
23353WAT      O70300   6.740   4.565   3.038
23353WAT     H170301   6.798   4.538   3.115
23353WAT     H270302   6.655   4.606   3.072
23354WAT      O70303   0.929   4.075   8.848
23354WAT     H170304   0.866   4.020   8.902
23354WAT     H270305   0.951   4.026   8.763
23355WAT      O70306   1.482   9.007   1.215
23355WAT     H170307   1.507   8.940   1.145
23355WAT     H270308   1.524   8.981   1.302
23356WAT      O70309   8.144   8.314   0.086
23356WAT     H170310   8.150   8.367   0.002
23356WAT     H270311   8.133   8.217   0.064
23357WAT      O70312   2.753   8.178   0.162
23357WAT     H170313   2.773   8.157   0.258
23357WAT     H270314   2.679   8.120   0.130
23358WAT      O70315   4.003   2.657   9.797
23358WAT     H170316   3.991   2.585   9.865
23358WAT     H270317   4.076   2.632   9.734
23359WAT      O70318   5.786   3.333   6.953
23359WAT     H170319   5.794   3.431   6.933
23359WAT     H270320   5.876   3.299   6.982
23360WAT      O70321   7.502   3.626   8.126
23360WAT     H170322   7.565   3.638   8.203
23360WAT     H270323   7.527   3.689   8.052
23361WAT      O70324   0.554   3.466   7.943
23361WAT     H170325   0.553   3.532   7.867
23361WAT     H270326   0.479   3.486   8.006
23362WAT      O70327   7.369   4.935   6.401
23362WAT     H170328   7.351   4.893   6.490
23362WAT     H270329   7.359   5.034   6.408
23363WAT      O70330   2.996   8.326   7.503
23363WAT     H170331   3.015   8.230   7.482
23363WAT     H270332   3.062   8.358   7.571
23364WAT      O70333   8.056   7.000   0.851
23364WAT     H170334   8.013   6.916   0.884
23364WAT     H270335   8.154   6.985   0.840
23365WAT      O70336   3.803   5.787   9.343
23365WAT     H170337   3.788   5.836   9.257
23365WAT     H270338   3.784   5.849   9.420
23366WAT      O70339   0.453   4.775   4.674
23366WAT     H170340   0.527   4.774   4.607
23366WAT     H270341   0.385   4.705   4.650
23367WAT      O70342   1.825   4.801   1.324
23367WAT     H170343   1.884   4.794   1.405
23367WAT     H270344   1.874   4.847   1.251
23368WAT      O70345   0.352   0.196   1.820
23368WAT     H170346   0.254   0.187   1.803
23368WAT     H270347   0.398   0.110   1.798
23369WAT      O70348   5.524   8.996   7.783
23369WAT     H170349   5.488   9.032   7.869
23369WAT     H270350   5.473   8.914   7.757
23370WAT      O70351   4.647   1.453   5.199
23370WAT     H170352   4.643   1.544   5.158
23370WAT     H270353   4.607   1.386   5.135
23371WAT      O70354   5.900   2.640   3.995
23371WAT     H170355   5.814   2.613   3.953
23371WAT     H270356   5.896   2.736   4.021
23372WAT      O70357   1.505   6.792   9.225
23372WAT     H170358   1.603   6.779   9.213
23372WAT     H270359   1.487   6.887   9.248
23373WAT      O70360   1.753   8.748   8.123
23373WAT     H170361   1.664   8.721   8.087
23373WAT     H270362   1.759   8.848   8.126
23374WAT      O70363   7.628   4.236   5.808
23374WAT     H170364   7.571   4.269   5.883
23374WAT     H270365   7.685   4.160   5.841
23375WAT      O70366   5.323   4.751   7.671
23375WAT     H170367   5.309   4.828   7.733
23375WAT     H270368   5.316   4.782   7.577
23376WAT      O70369   2.822   5.433   7.123
23376WAT     H170370   2.827   5.368   7.047
23376WAT     H270371   2.730   5.432   7.162
23377WAT      O70372   3.413   0.187   3.402
23377WAT     H170373   3.388   0.107   3.348
23377WAT     H270374   3.421   0.267   3.342
23378WAT      O70375   5.546   4.451   8.931
23378WAT     H170376   5.539   4.526   8.997
23378WAT     H270377   5.473   4.460   8.863
23379WAT      O70378   8.642   8.754   2.291
23379WAT     H170379   8.705   8.830   2.281
23379WAT     H270380   8.661   8.706   2.377
23380WAT      O70381   6.031   7.621   2.246
23380WAT     H170382   6.039   7.705   2.299
23380WAT     H270383   5.977   7.554   2.298
23381WAT      O70384   5.934   8.193   2.114
23381WAT     H170385   5.961   8.104   2.076
23381WAT     H270386   5.905   8.253   2.040
23382WAT      O70387   4.698   1.083   1.745
23382WAT     H170388   4.677   1.157   1.809
23382WAT     H270389   4.667   0.996   1.785
23383WAT      O70390   7.463   7.899   6.472
23383WAT     H170391   7.444   7.814   6.423
23383WAT     H270392   7.428   7.892   6.565
23384WAT      O70393   2.372   8.844   1.824
23384WAT     H170394   2.278   8.856   1.792
23384WAT     H270395   2.434   8.846   1.746
23385WAT      O70396   8.843   3.403   1.565
23385WAT     H170397   8.884   3.451   1.488
23385WAT     H270398   8.878   3.309   1.569
23386WAT      O70399   7.357   3.812   6.057
23386WAT     H170400   7.283   3.776   6.001
23386WAT     H270401   7.391   3.897   6.017
23387WAT      O70402   2.384   1.935   3.976
23387WAT     H170403   2.450   1.989   3.925
23387WAT     H270404   2.395   1.953   4.074
23388WAT      O70405   1.871   3.659   3.748
23388WAT     H170406   1.940   3.646   3.677
23388WAT     H270407   1.849   3.571   3.790
23389WAT      O70408   9.473   1.233   6.295
23389WAT     H170409   9.507   1.147   6.257
23389WAT     H270410   9.549   1.288   6.329
23390WAT      O70411   8.275   0.942   4.912
23390WAT     H170412   8.261   1.016   4.978
23390WAT     H270413   8.195   0.937   4.851
23391WAT      O70414   6.020   3.815   2.908
23391WAT     H170415   5.984   3.903   2.938
23391WAT     H270416   5.945   3.757   2.876
23392WAT      O70417   9.860   6.139   2.934
23392WAT     H170418   9.838   6.146   2.836
23392WAT     H270419   9.862   6.231   2.974
23393WAT      O70420   4.892   6.957   0.259
23393WAT     H170421   4.861   6.904   0.338
23393WAT     H270422   4.853   6.918   0.176
23394WAT      O70423   5.735   7.216   4.763
23394WAT     H170424   5.761   7.304   4.803
23394WAT     H270425   5.817   7.162   4.747
23395WAT      O70426   0.980   6.733   4.896
23395WAT     H170427   1.030   6.762   4.815
23395WAT     H270428   1.039   6.741   4.977
23396WAT      O70429   1.711   1.884   6.247
23396WAT     H170430   1.751   1.934   6.170
23396WAT     H270431   1.758   1.796   6.257
23397WAT      O70432   2.107   2.758   7.922
23397WAT     H170433   2.008   2.747   7.914
23397WAT     H270434   2.147   2.676   7.962
23398WAT      O70435   6.744   7.383   5.975
23398WAT     H170436   6.750   7.292   5.935
23398WAT     H270437   6.832   7.429   5.968
23399WAT      O70438   7.340   4.719   4.241
23399WAT     H170439   7.402   4.797   4.245
23399WAT     H270440   7.394   4.634   4.240
23400WAT      O70441   1.234   6.007   5.837
23400WAT     H170442   1.308   6.066   5.870
23400WAT     H270443   1.245   5.993   5.738
23401WAT      O70444   4.159   5.186   6.497
23401WAT     H170445   4.153   5.088   6.518
23401WAT     H270446   4.090   5.235   6.550
23402WAT      O70447   4.611   5.576   0.302
23402WAT     H170448   4.536   5.574   0.368
23402WAT     H270449   4.600   5.501   0.237
23403WAT      O70450   8.852   2.478   3.878
23403WAT     H170451   8.901   2.417   3.815
23403WAT     H270452   8.791   2.424   3.936
23404WAT      O70453   5.328   7.735   7.794
23404WAT     H170454   5.404   7.793   7.826
23404WAT     H270455   5.357   7.640   7.792
23405WAT      O70456   7.346   0.629   6.021
23405WAT     H170457   7.292   0.561   6.069
23405WAT     H270458   7.347   0.714   6.073
23406WAT      O70459   9.666   1.184   6.677
23406WAT     H170460   9.714   1.115   6.731
23406WAT     H270461   9.572   1.155   6.662
23407WAT      O70462   4.215   8.918   5.746
23407WAT     H170463   4.136   8.914   5.807
23407WAT     H270464   4.205   8.850   5.673
23408WAT      O70465   9.749   9.592   8.832
23408WAT     H170466   9.807   9.537   8.772
23408WAT     H270467   9.748   9.687   8.801
23409WAT      O70468   4.189   9.803   6.239
23409WAT     H170469   4.131   9.866   6.188
23409WAT     H270470   4.284   9.834   6.235
23410WAT      O70471   2.681   7.010   8.427
23410WAT     H170472   2.770   7.005   8.471
23410WAT     H270473   2.610   7.020   8.497
23411WAT      O70474   7.285   4.467   2.368
23411WAT     H170475   7.240   4.396   2.421
23411WAT     H270476   7.222   4.503   2.300
23412WAT      O70477   5.672   6.514   2.123
23412WAT     H170478   5.722   6.439   2.167
23412WAT     H270479   5.636   6.483   2.035
23413WAT      O70480   2.324   7.641   5.645
23413WAT     H170481   2.389   7.716   5.657
23413WAT     H270482   2.363   7.572   5.585
23414WAT      O70483   7.704   5.920   4.816
23414WAT     H170484   7.743   6.012   4.822
23414WAT     H270485   7.755   5.866   4.748
23415WAT      O70486   9.402   2.309   7.513
23415WAT     H170487   9.417   2.349   7.423
23415WAT     H270488   9.345   2.227   7.504
23416WAT      O70489   8.385   1.490   6.461
23416WAT     H170490   8.312   1.548   6.424
23416WAT     H270491   8.350   1.439   6.540
23417WAT      O70492   3.161   1.808   3.202
23417WAT     H170493   3.078   1.755   3.222
23417WAT     H270494   3.229   1.790   3.273
23418WAT      O70495   8.462   2.741   3.582
23418WAT     H170496   8.388   2.727   3.517
23418WAT     H270497   8.430   2.795   3.659
23419WAT      O70498   1.921   4.746   2.415
23419WAT     H170499   1.866   4.725   2.334
23419WAT     H270500   1.982   4.669   2.436
23420WAT      O70501   3.099   2.596   1.219
23420WAT     H170502   3.032   2.602   1.145
23420WAT     H270503   3.098   2.681   1.272
23421WAT      O70504   6.430   7.429   1.133
23421WAT     H170505   6.522   7.404   1.162
23421WAT     H270506   6.399   7.510   1.183
23422WAT      O70507   7.928   6.418   4.165
23422WAT     H170508   7.957   6.370   4.082
23422WAT     H270509   7.834   6.450   4.153
23423WAT      O70510   5.000   5.185   0.821
23423WAT     H170511   4.950   5.119   0.877
23423WAT     H270512   5.044   5.252   0.881
23424WAT      O70513   3.627   7.105   2.750
23424WAT     H170514   3.716   7.149   2.762
23424WAT     H270515   3.596   7.118   2.655
23425WAT      O70516   0.224   7.810   7.431
23425WAT     H170517   0.147   7.803   7.495
23425WAT     H270518   0.298   7.751   7.461
23426WAT      O70519   9.700   2.336   1.502
23426WAT     H170520   9.774   2.382   1.452
23426WAT     H270521   9.740   2.282   1.577
23427WAT      O70522   5.289   6.726   5.156
23427WAT     H170523   5.277   6.631   5.186
23427WAT     H270524   5.233   6.786   5.212
23428WAT      O70525   6.145   2.957   8.973
23428WAT     H170526   6.155   2.859   8.986
23428WAT     H270527   6.048   2.979   8.961
23429WAT      O70528   7.743   5.278   2.394
23429WAT     H170529   7.780   5.191   2.364
23429WAT     H270530   7.661   5.300   2.342
23430WAT      O70531   7.705   0.577   4.686
23430WAT     H170532   7.691   0.608   4.780
23430WAT     H270533   7.721   0.656   4.627
23431WAT      O70534   0.663   6.400   0.365
23431WAT     H170535   0.748   6.367   0.323
23431WAT     H270536   0.601   6.433   0.294
23432WAT      O70537   7.934   1.913   6.380
23432WAT     H170538   8.015   1.924   6.322
23432WAT     H270539   7.938   1.825   6.427
23433WAT      O70540   3.294   4.875   0.934
23433WAT     H170541   3.265   4.952   0.877
23433WAT     H270542   3.337   4.909   1.018
23434WAT      O70543   0.689   4.307   5.282
23434WAT     H170544   0.757   4.379   5.292
23434WAT     H270545   0.734   4.218   5.288
23435WAT      O70546   5.220   6.245   2.530
23435WAT     H170547   5.193   6.152   2.556
23435WAT     H270548   5.237   6.300   2.612
23436WAT      O70549   8.471   0.661   6.822
23436WAT     H170550   8.564   0.655   6.858
23436WAT     H270551   8.444   0.573   6.785
23437WAT      O70552   4.082   4.932   7.761
23437WAT     H170553   4.039   5.022   7.761
23437WAT     H270554   4.063   4.885   7.675
23438WAT      O70555   5.014   2.731   7.452
23438WAT     H170556   4.919   2.712   7.476
23438WAT     H270557   5.061   2.645   7.433
23439WAT      O70558   0.501   7.262   6.000
23439WAT     H170559   0.545   7.233   5.915
23439WAT     H270560   0.407   7.289   5.981
23440WAT      O70561   6.224   5.743   7.371
23440WAT     H170562   6.180   5.831   7.383
23440WAT     H270563   6.306   5.753   7.315
23441WAT      O70564   1.609   0.999   0.599
23441WAT     H170565   1.642   1.012   0.506
23441WAT     H270566   1.660   0.924   0.643
23442WAT      O70567   7.981   0.136   0.069
23442WAT     H170568   8.064   0.130   0.124
23442WAT     H270569   8.004   0.131  -0.028
23443WAT      O70570   8.108   1.502   1.656
23443WAT     H170571   8.187   1.562   1.646
23443WAT     H270572   8.114   1.427   1.590
23444WAT      O70573   4.668   1.095   0.581
23444WAT     H170574   4.591   1.040   0.549
23444WAT     H270575   4.636   1.158   0.652
23445WAT      O70576   9.721   7.716   9.399
23445WAT     H170577   9.689   7.639   9.454
23445WAT     H270578   9.803   7.688   9.349
23446WAT      O70579   2.385   4.649   6.238
23446WAT     H170580   2.288   4.673   6.245
23446WAT     H270581   2.438   4.705   6.300
23447WAT      O70582   3.087   3.941   6.629
23447WAT     H170583   2.994   3.962   6.661
23447WAT     H270584   3.128   4.024   6.591
23448WAT      O70585   0.862   6.325   4.010
23448WAT     H170586   0.938   6.284   3.960
23448WAT     H270587   0.796   6.363   3.946
23449WAT      O70588   9.540   2.462   4.168
23449WAT     H170589   9.554   2.407   4.251
23449WAT     H270590   9.613   2.531   4.162
23450WAT      O70591   0.645   7.847   2.417
23450WAT     H170592   0.579   7.891   2.477
23450WAT     H270593   0.654   7.901   2.333
23451WAT      O70594   2.762   4.116   1.394
23451WAT     H170595   2.795   4.182   1.326
23451WAT     H270596   2.711   4.165   1.465
23452WAT      O70597   2.007   5.134   8.156
23452WAT     H170598   1.981   5.202   8.088
23452WAT     H270599   2.049   5.180   8.235
23453WAT      O70600   1.503   0.274   1.118
23453WAT     H170601   1.556   0.324   1.186
23453WAT     H270602   1.406   0.293   1.130
23454WAT      O70603   1.643   6.367   5.583
23454WAT     H170604   1.691   6.415   5.509
23454WAT     H270605   1.652   6.268   5.570
23455WAT      O70606   4.886   9.049   7.713
23455WAT     H170607   4.858   9.144   7.728
23455WAT     H270608   4.968   9.047   7.655
23456WAT      O70609   1.058   5.984   4.517
23456WAT     H170610   1.119   6.063   4.519
23456WAT     H270611   1.097   5.913   4.457
23457WAT      O70612   0.526   0.019   2.955
23457WAT     H170613   0.579  -0.066   2.945
23457WAT     H270614   0.449   0.003   3.017
23458WAT      O70615   7.877   9.828   5.287
23458WAT     H170616   7.896   9.803   5.192
23458WAT     H270617   7.924   9.765   5.348
23459WAT      O70618   1.375   7.862   6.613
23459WAT     H170619   1.404   7.792   6.547
23459WAT     H270620   1.379   7.952   6.569
23460WAT      O70621   7.819   6.417   0.334
23460WAT     H170622   7.757   6.339   0.322
23460WAT     H270623   7.780   6.482   0.399
23461WAT      O70624   2.265   6.361   1.561
23461WAT     H170625   2.194   6.407   1.508
23461WAT     H270626   2.285   6.414   1.644
23462WAT      O70627   1.174   9.369   6.869
23462WAT     H170628   1.167   9.270   6.856
23462WAT     H270629   1.255   9.390   6.924
23463WAT      O70630   0.268   7.979   2.508
23463WAT     H170631   0.212   7.901   2.534
23463WAT     H270632   0.264   7.992   2.409
23464WAT      O70633   0.579   5.479   2.949
23464WAT     H170634   0.546   5.549   2.886
23464WAT     H270635   0.665   5.440   2.914
23465WAT      O70636   8.413   5.874   0.029
23465WAT     H170637   8.373   5.947  -0.026
23465WAT     H270638   8.349   5.848   0.102
23466WAT      O70639   6.602   8.994   0.526
23466WAT     H170640   6.596   9.031   0.433
23466WAT     H270641   6.514   9.005   0.571
23467WAT      O70642   7.308   5.546   8.745
23467WAT     H170643   7.253   5.629   8.760
23467WAT     H270644   7.305   5.490   8.828
23468WAT      O70645   9.023   1.450   3.284
23468WAT     H170646   8.941   1.407   3.323
23468WAT     H270647   9.092   1.380   3.266
23469WAT      O70648   6.644   7.852   6.252
23469WAT     H170649   6.598   7.764   6.262
23469WAT     H270650   6.665   7.868   6.155
23470WAT      O70651   7.863   1.697   7.416
23470WAT     H170652   7.818   1.639   7.483
23470WAT     H270653   7.795   1.747   7.363
23471WAT      O70654   1.663   0.728   0.309
23471WAT     H170655   1.660   0.796   0.236
23471WAT     H270656   1.672   0.637   0.269
23472WAT      O70657   7.199   7.854   0.262
23472WAT     H170658   7.234   7.882   0.173
23472WAT     H270659   7.178   7.935   0.316
23473WAT      O70660   5.067   2.739   0.940
23473WAT     H170661   5.023   2.800   1.005
23473WAT     H270662   5.142   2.691   0.985
23474WAT      O70663   1.222   1.828   8.202
23474WAT     H170664   1.285   1.837   8.278
23474WAT     H270665   1.170   1.913   8.191
23475WAT      O70666   2.831   4.203   4.132
23475WAT     H170667   2.796   4.167   4.046
23475WAT     H270668   2.838   4.303   4.126
23476WAT      O70669   1.659   0.269   4.702
23476WAT     H170670   1.636   0.334   4.630
23476WAT     H270671   1.576   0.241   4.750
23477WAT      O70672   0.487   6.791   7.913
23477WAT     H170673   0.534   6.811   7.999
23477WAT     H270674   0.486   6.692   7.898
23478WAT      O70675   6.478   9.321   9.040
23478WAT     H170676   6.382   9.308   9.016
23478WAT     H270677   6.522   9.232   9.053
23479WAT      O70678   2.099   3.785   3.863
23479WAT     H170679   2.055   3.836   3.937
23479WAT     H270680   2.192   3.820   3.849
23480WAT      O70681   2.138   5.852   5.840
23480WAT     H170682   2.205   5.909   5.792
23480WAT     H270683   2.143   5.872   5.938
23481WAT      O70684   9.380   5.808   1.128
23481WAT     H170685   9.309   5.820   1.197
23481WAT     H270686   9.339   5.812   1.037
23482WAT      O70687   4.240   0.687   5.743
23482WAT     H170688   4.285   0.618   5.687
23482WAT     H270689   4.240   0.775   5.696
23483WAT      O70690   1.436   5.676   5.146
23483WAT     H170691   1.340   5.668   5.117
23483WAT     H270692   1.450   5.620   5.228
23484WAT      O70693   8.622   8.949   7.401
23484WAT     H170694   8.571   9.015   7.345
23484WAT     H270695   8.705   8.922   7.352
23485WAT      O70696   2.096   6.861   7.150
23485WAT     H170697   2.021   6.795   7.148
23485WAT     H270698   2.062   6.949   7.184
23486WAT      O70699   7.606   6.879   2.629
23486WAT     H170700   7.613   6.921   2.719
23486WAT     H270701   7.674   6.920   2.568
23487WAT      O70702   9.033   9.344   6.836
23487WAT     H170703   9.060   9.438   6.816
23487WAT     H270704   9.115   9.286   6.840
23488WAT      O70705   5.738   0.553   1.886
23488WAT     H170706   5.757   0.506   1.800
23488WAT     H270707   5.726   0.650   1.869
23489WAT      O70708   7.425   5.212   2.553
23489WAT     H170709   7.366   5.259   2.618
23489WAT     H270710   7.398   5.116   2.546
23490WAT      O70711   0.995   5.930   8.601
23490WAT     H170712   1.021   5.842   8.640
23490WAT     H270713   1.001   6.001   8.671
23491WAT      O70714   8.053   2.484   8.021
23491WAT     H170715   8.148   2.488   7.989
23491WAT     H270716   8.012   2.575   8.013
23492WAT      O70717   0.781   2.253   7.986
23492WAT     H170718   0.793   2.305   8.071
23492WAT     H270719   0.710   2.297   7.930
23493WAT      O70720   4.907   5.873   9.151
23493WAT     H170721   4.865   5.788   9.118
23493WAT     H270722   4.979   5.850   9.217
23494WAT      O70723   9.271   0.017   1.764
23494WAT     H170724   9.328   0.098   1.754
23494WAT     H270725   9.294  -0.048   1.691
23495WAT      O70726   1.425   7.108   6.902
23495WAT     H170727   1.341   7.147   6.938
23495WAT     H270728   1.416   7.009   6.895
23496WAT      O70729   8.186   8.048   2.155
23496WAT     H170730   8.090   8.075   2.159
23496WAT     H270731   8.194   7.961   2.106
23497WAT      O70732   3.186   2.240   5.037
23497WAT     H170733   3.168   2.144   5.061
23497WAT     H270734   3.170   2.253   4.939
23498WAT      O70735   8.252   2.244   4.841
23498WAT     H170736   8.221   2.339   4.842
23498WAT     H270737   8.333   2.235   4.900
23499WAT      O70738   2.882   1.984   4.628
23499WAT     H170739   2.967   1.988   4.575
23499WAT     H270740   2.807   1.956   4.568
23500WAT      O70741   5.235   5.320   2.800
23500WAT     H170742   5.257   5.390   2.868
23500WAT     H270743   5.319   5.291   2.754
23501WAT      O70744   6.840   7.090   6.092
23501WAT     H170745   6.750   7.107   6.133
23501WAT     H270746   6.911   7.102   6.162
23502WAT      O70747   5.327   2.441   1.482
23502WAT     H170748   5.313   2.531   1.442
23502WAT     H270749   5.349   2.375   1.411
23503WAT      O70750   5.286   6.997   6.556
23503WAT     H170751   5.381   7.024   6.570
23503WAT     H270752   5.280   6.939   6.475
23504WAT      O70753   6.836   1.564   6.746
23504WAT     H170754   6.895   1.623   6.691
23504WAT     H270755   6.740   1.581   6.722
23505WAT      O70756   5.113   7.587   3.446
23505WAT     H170757   5.056   7.600   3.365
23505WAT     H270758   5.069   7.520   3.507
23506WAT      O70759   4.128   7.421   8.527
23506WAT     H170760   4.035   7.449   8.505
23506WAT     H270761   4.125   7.345   8.592
23507WAT      O70762   4.863   6.399   0.922
23507WAT     H170763   4.856   6.496   0.947
23507WAT     H270764   4.814   6.383   0.836
23508WAT      O70765   4.052   1.938   0.096
23508WAT     H170766   4.138   1.946   0.147
23508WAT     H270767   3.998   1.863   0.133
23509WAT      O70768   0.642   3.787   7.982
23509WAT     H170769   0.620   3.775   8.079
23509WAT     H270770   0.645   3.885   7.961
23510WAT      O70771   2.054   8.090   8.548
23510WAT     H170772   2.127   8.050   8.603
23510WAT     H270773   2.087   8.172   8.502
23511WAT      O70774   1.623   8.533   2.957
23511WAT     H170775   1.560   8.467   2.916
23511WAT     H270776   1.715   8.495   2.958
23512WAT      O70777   6.262   0.056   6.173
23512WAT     H170778   6.211  -0.027   6.153
23512WAT     H270779   6.242   0.126   6.104
23513WAT      O70780   9.355   9.459   2.259
23513WAT     H170781   9.387   9.489   2.169
23513WAT     H270782   9.382   9.526   2.328
23514WAT      O70783   2.090   6.699   1.835
23514WAT     H170784   2.037   6.621   1.801
23514WAT     H270785   2.061   6.721   1.928
23515WAT      O70786   5.384   2.153   3.367
23515WAT     H170787   5.454   2.187   3.429
23515WAT     H270788   5.426   2.127   3.280
23516WAT      O70789   3.857   5.998   5.776
23516WAT     H170790   3.885   6.018   5.682
23516WAT     H270791   3.757   6.000   5.783
23517WAT      O70792   6.578   6.360   2.742
23517WAT     H170793   6.535   6.314   2.821
23517WAT     H270794   6.553   6.312   2.658
23518WAT      O70795   2.770   3.115   5.905
23518WAT     H170796   2.719   3.163   5.976
23518WAT     H270797   2.707   3.077   5.838
23519WAT      O70798   1.450   8.041   4.150
23519WAT     H170799   1.537   8.004   4.119
23519WAT     H270800   1.379   7.971   4.141
23520WAT      O70801   7.202   8.041   9.841
23520WAT     H170802   7.132   7.989   9.792
23520WAT     H270803   7.283   7.984   9.854
23521WAT      O70804   3.211   0.686   4.171
23521WAT     H170805   3.169   0.614   4.116
23521WAT     H270806   3.153   0.768   4.167
23522WAT      O70807   4.703   9.286   2.397
23522WAT     H170808   4.722   9.381   2.375
23522WAT     H270809   4.783   9.246   2.443
23523WAT      O70810   8.826   9.265   5.499
23523WAT     H170811   8.755   9.202   5.469
23523WAT     H270812   8.916   9.228   5.476
23524WAT      O70813   1.105   9.585   0.354
23524WAT     H170814   1.156   9.664   0.389
23524WAT     H270815   1.099   9.516   0.426
23525WAT      O70816   4.273   9.149   1.711
23525WAT     H170817   4.347   9.110   1.766
23525WAT     H270818   4.307   9.171   1.620
23526WAT      O70819   0.919   6.787   0.879
23526WAT     H170820   1.008   6.799   0.834
23526WAT     H270821   0.856   6.857   0.848
23527WAT      O70822   1.385   1.492   1.924
23527WAT     H170823   1.334   1.564   1.972
23527WAT     H270824   1.423   1.429   1.991
23528WAT      O70825   0.940   5.632   2.055
23528WAT     H170826   0.908   5.608   1.963
23528WAT     H270827   1.034   5.598   2.067
23529WAT      O70828   0.979   5.984   7.910
23529WAT     H170829   0.939   6.075   7.898
23529WAT     H270830   0.965   5.954   8.005
23530WAT      O70831   0.461   8.148   3.126
23530WAT     H170832   0.384   8.212   3.119
23530WAT     H270833   0.448   8.090   3.206
23531WAT      O70834   5.464   5.709   5.354
23531WAT     H170835   5.560   5.699   5.330
23531WAT     H270836   5.446   5.662   5.440
23532WAT      O70837   2.155   4.358   8.521
23532WAT     H170838   2.229   4.418   8.551
23532WAT     H270839   2.142   4.368   8.423
23533WAT      O70840   1.553   7.337   2.149
23533WAT     H170841   1.553   7.312   2.052
23533WAT     H270842   1.474   7.395   2.169
23534WAT      O70843   7.026   5.630   1.971
23534WAT     H170844   7.122   5.639   1.945
23534WAT     H270845   7.016   5.554   2.036
23535WAT      O70846   3.946   5.687   6.450
23535WAT     H170847   4.045   5.677   6.458
23535WAT     H270848   3.909   5.717   6.538
23536WAT      O70849   1.359   0.775   9.674
23536WAT     H170850   1.456   0.787   9.651
23536WAT     H270851   1.305   0.847   9.631
23537WAT      O70852   7.550   4.155   4.149
23537WAT     H170853   7.519   4.075   4.098
23537WAT     H270854   7.536   4.140   4.246
23538WAT      O70855   4.430   9.679   9.560
23538WAT     H170856   4.497   9.722   9.622
23538WAT     H270857   4.338   9.696   9.595
23539WAT      O70858   7.671   0.039   7.083
23539WAT     H170859   7.764   0.019   7.111
23539WAT     H270860   7.668   0.051   6.983
23540WAT      O70861   6.403   4.197   1.460
23540WAT     H170862   6.446   4.287   1.464
23540WAT     H270863   6.374   4.169   1.552
23541WAT      O70864   0.925   9.349   3.240
23541WAT     H170865   0.879   9.376   3.155
23541WAT     H270866   0.963   9.257   3.229
23542WAT      O70867   7.646   7.058   2.248
23542WAT     H170868   7.710   7.045   2.172
23542WAT     H270869   7.585   6.979   2.254
23543WAT      O70870   2.354   1.790   8.602
23543WAT     H170871   2.318   1.745   8.684
23543WAT     H270872   2.288   1.858   8.571
23544WAT      O70873   2.514   7.187   5.906
23544WAT     H170874   2.509   7.284   5.882
23544WAT     H270875   2.480   7.133   5.829
23545WAT      O70876   6.026   0.039   4.117
23545WAT     H170877   6.024   0.138   4.107
23545WAT     H270878   5.971  -0.003   4.045
23546WAT      O70879   0.040   7.007   2.531
23546WAT     H170880   0.068   7.076   2.599
23546WAT     H270881  -0.057   6.989   2.540
23547WAT      O70882   6.457   9.590   3.303
23547WAT     H170883   6.402   9.589   3.219
23547WAT     H270884   6.397   9.587   3.383
23548WAT      O70885   9.640   3.169   7.219
23548WAT     H170886   9.596   3.135   7.301
23548WAT     H270887   9.640   3.269   7.220
23549WAT      O70888   2.985   7.862   3.567
23549WAT     H170889   2.977   7.960   3.589
23549WAT     H270890   3.027   7.852   3.477
23550WAT      O70891   1.155   2.853   8.113
23550WAT     H170892   1.157   2.950   8.091
23550WAT     H270893   1.247   2.814   8.099
23551WAT      O70894   8.196   6.694   0.692
23551WAT     H170895   8.244   6.780   0.708
23551WAT     H270896   8.153   6.663   0.777
23552WAT      O70897   3.472   5.792   3.705
23552WAT     H170898   3.502   5.871   3.759
23552WAT     H270899   3.543   5.768   3.640
23553WAT      O70900   4.730   1.523   0.679
23553WAT     H170901   4.770   1.578   0.752
23553WAT     H270902   4.798   1.506   0.609
23554WAT      O70903   3.928   3.856   8.963
23554WAT     H170904   3.923   3.761   8.995
23554WAT     H270905   3.952   3.915   9.040
23555WAT      O70906   4.465   1.166   2.578
23555WAT     H170907   4.448   1.134   2.485
23555WAT     H270908   4.563   1.183   2.590
23556WAT      O70909   1.546   6.150   6.862
23556WAT     H170910   1.573   6.096   6.942
23556WAT     H270911   1.526   6.089   6.786
23557WAT      O70912   7.786   6.425   9.127
23557WAT     H170913   7.760   6.444   9.222
23557WAT     H270914   7.764   6.504   9.070
23558WAT      O70915   4.514   3.317   6.030
23558WAT     H170916   4.419   3.348   6.040
23558WAT     H270917   4.575   3.396   6.032
23559WAT      O70918   6.832   8.770   5.749
23559WAT     H170919   6.769   8.715   5.694
23559WAT     H270920   6.876   8.712   5.817
23560WAT      O70921   6.083   3.376   9.033
23560WAT     H170922   6.072   3.442   9.108
23560WAT     H270923   6.074   3.423   8.946
23561WAT      O70924   0.669   6.483   3.325
23561WAT     H170925   0.619   6.492   3.411
23561WAT     H270926   0.617   6.527   3.251
23562WAT      O70927   3.372   4.601   6.251
23562WAT     H170928   3.285   4.554   6.268
23562WAT     H270929   3.355   4.689   6.206
23563WAT      O70930   2.145   7.526   1.806
23563WAT     H170931   2.202   7.608   1.815
23563WAT     H270932   2.203   7.445   1.812
23564WAT      O70933   6.383   0.654   6.738
23564WAT     H170934   6.469   0.688   6.776
23564WAT     H270935   6.311   0.660   6.806
23565WAT      O70936   2.216   8.211   5.207
23565WAT     H170937   2.116   8.216   5.217
23565WAT     H270938   2.259   8.252   5.287
23566WAT      O70939   7.029   9.831   7.294
23566WAT     H170940   7.098   9.777   7.341
23566WAT     H270941   7.015   9.917   7.343
23567WAT      O70942   1.208   9.571   5.723
23567WAT     H170943   1.266   9.520   5.786
23567WAT     H270944   1.206   9.668   5.750
23568WAT      O70945   3.244   6.158   5.891
23568WAT     H170946   3.251   6.174   5.989
23568WAT     H270947   3.295   6.230   5.842
23569WAT      O70948   3.541   6.768   7.201
23569WAT     H170949   3.536   6.671   7.222
23569WAT     H270950   3.452   6.810   7.213
23570WAT      O70951   8.290   7.360   4.108
23570WAT     H170952   8.374   7.415   4.112
23570WAT     H270953   8.295   7.298   4.029
23571WAT      O70954   4.937   5.920   7.712
23571WAT     H170955   4.976   5.949   7.799
23571WAT     H270956   4.879   5.993   7.676
23572WAT      O70957   4.001   1.929   3.296
23572WAT     H170958   3.959   1.992   3.230
23572WAT     H270959   4.087   1.895   3.259
23573WAT      O70960   9.739   8.730   1.579
23573WAT     H170961   9.738   8.721   1.480
23573WAT     H270962   9.833   8.718   1.613
23574WAT      O70963   9.721   5.229   8.309
23574WAT     H170964   9.633   5.182   8.313
23574WAT     H270965   9.717   5.301   8.240
23575WAT      O70966   8.022   9.521   6.202
23575WAT     H170967   7.979   9.433   6.184
23575WAT     H270968   8.087   9.542   6.129
23576WAT      O70969   7.340   4.940   4.813
23576WAT     H170970   7.316   4.958   4.908
23576WAT     H270971   7.332   4.842   4.795
23577WAT      O70972   4.106   2.873   8.516
23577WAT     H170973   4.157   2.914   8.440
23577WAT     H270974   4.087   2.777   8.495
23578WAT      O70975   7.293   3.639   9.201
23578WAT     H170976   7.307   3.738   9.199
23578WAT     H270977   7.309   3.605   9.293
23579WAT      O70978   9.561   6.415   6.745
23579WAT     H170979   9.486   6.353   6.724
23579WAT     H270980   9.610   6.438   6.661
23580WAT      O70981   4.497   9.589   0.927
23580WAT     H170982   4.576   9.534   0.902
23580WAT     H270983   4.528   9.673   0.972
23581WAT      O70984   6.479   9.267   0.691
23581WAT     H170985   6.383   9.270   0.661
23581WAT     H270986   6.490   9.199   0.763
23582WAT      O70987   5.187   0.979   9.391
23582WAT     H170988   5.136   0.948   9.311
23582WAT     H270989   5.135   1.050   9.439
23583WAT      O70990   4.768   3.882   1.211
23583WAT     H170991   4.864   3.854   1.217
23583WAT     H270992   4.721   3.855   1.295
23584WAT      O70993   5.473   1.772   1.045
23584WAT     H170994   5.397   1.816   0.996
23584WAT     H270995   5.454   1.770   1.143
23585WAT      O70996   9.069   1.148   1.389
23585WAT     H170997   9.034   1.132   1.481
23585WAT     H270998   9.147   1.211   1.393
23586WAT      O70999   9.480   0.341   2.228
23586WAT     H171000   9.570   0.351   2.270
23586WAT     H271001   9.489   0.350   2.128
23587WAT      O71002   3.578   0.336   2.427
23587WAT     H171003   3.587   0.432   2.402
23587WAT     H271004   3.656   0.309   2.483
23588WAT      O71005   6.184   4.295   3.146
23588WAT     H171006   6.241   4.362   3.194
23588WAT     H271007   6.177   4.212   3.201
23589WAT      O71008   1.930   0.242   9.515
23589WAT     H171009   2.005   0.292   9.471
23589WAT     H271010   1.928   0.264   9.613
23590WAT      O71011   0.614   2.512   4.705
23590WAT     H171012   0.695   2.508   4.763
23590WAT     H271013   0.628   2.578   4.631
23591WAT      O71014   2.361   1.973   5.406
23591WAT     H171015   2.403   2.024   5.331
23591WAT     H271016   2.378   2.021   5.492
23592WAT      O71017   6.455   5.078   9.283
23592WAT     H171018   6.385   5.138   9.244
23592WAT     H271019   6.534   5.075   9.222
23593WAT      O71020   3.208   2.974   6.646
23593WAT     H171021   3.230   3.043   6.578
23593WAT     H271022   3.292   2.932   6.680
23594WAT      O71023   3.818   2.374   8.886
23594WAT     H171024   3.719   2.372   8.902
23594WAT     H271025   3.851   2.468   8.895
23595WAT      O71026   9.676   8.190   2.483
23595WAT     H171027   9.596   8.250   2.488
23595WAT     H271028   9.753   8.240   2.443
23596WAT      O71029   1.963   9.168   9.317
23596WAT     H171030   1.948   9.069   9.321
23596WAT     H271031   2.058   9.186   9.291
23597WAT      O71032   5.118   8.944   6.960
23597WAT     H171033   5.086   8.870   7.019
23597WAT     H271034   5.217   8.950   6.965
23598WAT      O71035   6.332   5.029   5.098
23598WAT     H171036   6.382   4.950   5.062
23598WAT     H271037   6.249   4.998   5.143
23599WAT      O71038   8.325   2.128   3.228
23599WAT     H171039   8.336   2.088   3.136
23599WAT     H271040   8.293   2.057   3.291
23600WAT      O71041   8.921   1.529   2.527
23600WAT     H171042   8.911   1.477   2.612
23600WAT     H271043   8.831   1.540   2.485
23601WAT      O71044   3.982   2.717   5.243
23601WAT     H171045   4.054   2.680   5.303
23601WAT     H271046   3.895   2.674   5.266
23602WAT      O71047   5.702   9.826   4.930
23602WAT     H171048   5.727   9.733   4.906
23602WAT     H271049   5.711   9.885   4.850
23603WAT      O71050   3.134   4.693   8.091
23603WAT     H171051   3.079   4.693   8.008
23603WAT     H271052   3.231   4.685   8.066
23604WAT      O71053   6.100   2.258   0.599
23604WAT     H171054   6.179   2.257   0.538
23604WAT     H271055   6.054   2.170   0.596
23605WAT      O71056   5.036   2.751   1.386
23605WAT     H171057   5.072   2.658   1.390
23605WAT     H271058   5.019   2.777   1.291
23606WAT      O71059   6.807   2.818   5.177
23606WAT     H171060   6.771   2.865   5.097
23606WAT     H271061   6.848   2.731   5.149
23607WAT      O71062   6.558   1.009   7.256
23607WAT     H171063   6.565   1.087   7.194
23607WAT     H271064   6.542   0.926   7.203
23608WAT      O71065   3.513   4.615   2.151
23608WAT     H171066   3.451   4.560   2.095
23608WAT     H271067   3.542   4.560   2.230
23609WAT      O71068   0.460   7.068   6.428
23609WAT     H171069   0.434   7.130   6.503
23609WAT     H271070   0.378   7.043   6.377
23610WAT      O71071   6.941   5.947   3.038
23610WAT     H171072   6.845   5.924   3.021
23610WAT     H271073   6.961   5.935   3.135
23611WAT      O71074   0.185   2.976   7.421
23611WAT     H171075   0.163   2.880   7.403
23611WAT     H271076   0.103   3.024   7.452
23612WAT      O71077   1.008   9.008   0.159
23612WAT     H171078   0.910   9.023   0.175
23612WAT     H271079   1.059   9.085   0.196
23613WAT      O71080   1.793   3.970   4.742
23613WAT     H171081   1.727   4.009   4.806
23613WAT     H271082   1.820   4.040   4.676
23614WAT      O71083   4.480   6.004   1.951
23614WAT     H171084   4.452   6.076   1.887
23614WAT     H271085   4.541   5.940   1.904
23615WAT      O71086   9.033   2.398   2.611
23615WAT     H171087   9.029   2.404   2.710
23615WAT     H271088   9.076   2.480   2.574
23616WAT      O71089   4.179   3.360   6.784
23616WAT     H171090   4.180   3.396   6.877
23616WAT     H271091   4.175   3.260   6.787
23617WAT      O71092   4.288   1.809   6.975
23617WAT     H171093   4.297   1.711   6.956
23617WAT     H271094   4.376   1.847   7.002
23618WAT      O71095   3.105   9.253   7.753
23618WAT     H171096   3.064   9.297   7.673
23618WAT     H271097   3.045   9.265   7.832
23619WAT      O71098   4.996   5.217   7.653
23619WAT     H171099   5.037   5.260   7.733
23619WAT     H271100   5.065   5.205   7.582
23620WAT      O71101   3.192   0.797   7.324
23620WAT     H171102   3.148   0.836   7.242
23620WAT     H271103   3.127   0.797   7.399
23621WAT      O71104   2.641   4.686   3.496
23621WAT     H171105   2.546   4.700   3.468
23621WAT     H271106   2.654   4.592   3.528
23622WAT      O71107   3.302   6.856   8.048
23622WAT     H171108   3.210   6.819   8.065
23622WAT     H271109   3.325   6.846   7.952
23623WAT      O71110   4.093   5.398   0.388
23623WAT     H171111   4.026   5.443   0.329
23623WAT     H271112   4.119   5.310   0.347
23624WAT      O71113   9.079   4.820   1.214
23624WAT     H171114   9.116   4.878   1.142
23624WAT     H271115   9.137   4.739   1.226
23625WAT      O71116   6.835   6.482   8.821
23625WAT     H171117   6.909   6.541   8.790
23625WAT     H271118   6.872   6.415   8.886
23626WAT      O71119   0.975   0.231   3.746
23626WAT     H171120   0.889   0.273   3.714
23626WAT     H271121   1.009   0.168   3.676
23627WAT      O71122   8.367   5.245   3.009
23627WAT     H171123   8.268   5.245   3.017
23627WAT     H271124   8.409   5.243   3.100
23628WAT      O71125   5.433   9.798   1.875
23628WAT     H171126   5.360   9.730   1.863
23628WAT     H271127   5.393   9.889   1.872
23629WAT      O71128   7.428   6.684   1.149
23629WAT     H171129   7.522   6.653   1.135
23629WAT     H271130   7.409   6.762   1.088
23630WAT      O71131   2.660   6.777   3.674
23630WAT     H171132   2.676   6.868   3.637
23630WAT     H271133   2.707   6.767   3.762
23631WAT      O71134   8.437   3.965   6.225
23631WAT     H171135   8.510   3.903   6.253
23631WAT     H271136   8.443   3.981   6.126
23632WAT      O71137   9.749   2.437   2.980
23632WAT     H171138   9.802   2.464   2.899
23632WAT     H271139   9.681   2.507   2.999
23633WAT      O71140   7.804   1.668   5.107
23633WAT     H171141   7.734   1.726   5.067
23633WAT     H271142   7.864   1.633   5.035
23634WAT      O71143   4.156   3.349   7.866
23634WAT     H171144   4.080   3.283   7.871
23634WAT     H271145   4.233   3.307   7.818
23635WAT      O71146   8.918   7.802   5.287
23635WAT     H171147   8.928   7.810   5.386
23635WAT     H271148   9.001   7.760   5.249
23636WAT      O71149   1.063   0.518   9.113
23636WAT     H171150   1.006   0.548   9.189
23636WAT     H271151   1.005   0.498   9.034
23637WAT      O71152   6.520   4.436   1.465
23637WAT     H171153   6.451   4.475   1.527
23637WAT     H271154   6.610   4.471   1.490
23638WAT      O71155   1.345   1.383   6.911
23638WAT     H171156   1.259   1.342   6.942
23638WAT     H271157   1.393   1.319   6.851
23639WAT      O71158   7.068   6.474   6.797
23639WAT     H171159   6.973   6.496   6.773
23639WAT     H271160   7.122   6.461   6.714
23640WAT      O71161   4.979   2.360   9.191
23640WAT     H171162   4.890   2.394   9.159
23640WAT     H271163   4.999   2.401   9.281
23641WAT      O71164   9.672   3.102   2.964
23641WAT     H171165   9.712   3.069   2.879
23641WAT     H271166   9.708   3.048   3.041
23642WAT      O71167   1.774   8.087   7.526
23642WAT     H171168   1.830   8.045   7.598
23642WAT     H271169   1.725   8.166   7.564
23643WAT      O71170   4.222   3.101   6.084
23643WAT     H171171   4.233   3.110   6.183
23643WAT     H271172   4.159   3.027   6.063
23644WAT      O71173   0.494   4.719   4.197
23644WAT     H171174   0.451   4.777   4.128
23644WAT     H271175   0.423   4.669   4.247
23645WAT      O71176   6.527   4.871   4.213
23645WAT     H171177   6.587   4.793   4.233
23645WAT     H271178   6.576   4.956   4.234
23646WAT      O71179   5.020   1.234   6.281
23646WAT     H171180   4.960   1.302   6.323
23646WAT     H271181   4.964   1.159   6.246
23647WAT      O71182   3.494   7.440   2.026
23647WAT     H171183   3.476   7.348   2.061
23647WAT     H271184   3.465   7.445   1.930
23648WAT      O71185   3.286   1.471   7.033
23648WAT     H171186   3.192   1.456   7.061
23648WAT     H271187   3.329   1.383   7.009
23649WAT      O71188   2.178   5.529   2.922
23649WAT     H171189   2.157   5.554   2.827
23649WAT     H271190   2.271   5.557   2.944
23650WAT      O71191   1.563   7.243   3.826
23650WAT     H171192   1.500   7.225   3.901
23650WAT     H271193   1.521   7.307   3.762
23651WAT      O71194   2.001   8.297   1.082
23651WAT     H171195   2.082   8.280   1.139
23651WAT     H271196   1.919   8.284   1.138
23652WAT      O71197   8.305   7.839   4.751
23652WAT     H171198   8.306   7.803   4.658
23652WAT     H271199   8.213   7.874   4.772
23653WAT      O71200   3.073   4.572   6.260
23653WAT     H171201   3.015   4.491   6.263
23653WAT     H271202   3.065   4.623   6.346
23654WAT      O71203   3.317   6.119   3.586
23654WAT     H171204   3.387   6.179   3.548
23654WAT     H271205   3.316   6.032   3.535
23655WAT      O71206   2.055   7.943   5.314
23655WAT     H171207   2.104   7.913   5.396
23655WAT     H271208   1.993   7.870   5.283
23656WAT      O71209   5.515   5.097   0.612
23656WAT     H171210   5.491   5.156   0.690
23656WAT     H271211   5.531   5.004   0.645
23657WAT      O71212   8.863   4.734   6.260
23657WAT     H171213   8.865   4.644   6.303
23657WAT     H271214   8.830   4.726   6.166
23658WAT      O71215   9.581   8.481   5.465
23658WAT     H171216   9.575   8.464   5.563
23658WAT     H271217   9.501   8.441   5.420
23659WAT      O71218   1.908   5.564   1.354
23659WAT     H171219   1.986   5.615   1.317
23659WAT     H271220   1.940   5.500   1.424
23660WAT      O71221   5.001   4.150   2.464
23660WAT     H171222   4.939   4.123   2.538
23660WAT     H271223   4.967   4.234   2.422
23661WAT      O71224   2.197   6.235   2.046
23661WAT     H171225   2.260   6.312   2.038
23661WAT     H271226   2.104   6.266   2.029
23662WAT      O71227   9.013   3.760   8.319
23662WAT     H171228   9.058   3.729   8.235
23662WAT     H271229   8.941   3.825   8.297
23663WAT      O71230   9.475   4.081   5.477
23663WAT     H171231   9.411   4.153   5.507
23663WAT     H271232   9.526   4.113   5.397
23664WAT      O71233   1.984   5.955   0.270
23664WAT     H171234   2.043   6.036   0.266
23664WAT     H271235   2.040   5.874   0.286
23665WAT      O71236   7.222   7.067   6.566
23665WAT     H171237   7.234   7.065   6.467
23665WAT     H271238   7.189   6.978   6.598
23666WAT      O71239   5.746   4.467   0.840
23666WAT     H171240   5.726   4.392   0.777
23666WAT     H271241   5.661   4.517   0.859
23667WAT      O71242   2.580   7.551   2.107
23667WAT     H171243   2.579   7.606   2.023
23667WAT     H271244   2.506   7.483   2.103
23668WAT      O71245   6.634   5.699   9.674
23668WAT     H171246   6.679   5.770   9.729
23668WAT     H271247   6.626   5.615   9.729
23669WAT      O71248   6.456   3.055   5.889
23669WAT     H171249   6.468   3.010   5.800
23669WAT     H271250   6.369   3.105   5.889
23670WAT      O71251   7.097   5.600   6.647
23670WAT     H171252   7.164   5.599   6.573
23670WAT     H271253   7.049   5.512   6.649
23671WAT      O71254   0.820   5.611   0.549
23671WAT     H171255   0.779   5.576   0.465
23671WAT     H271256   0.786   5.558   0.627
23672WAT      O71257   2.181   2.010   5.896
23672WAT     H171258   2.246   1.960   5.837
23672WAT     H271259   2.160   2.098   5.855
23673WAT      O71260   4.941   8.725   1.661
23673WAT     H171261   4.997   8.781   1.599
23673WAT     H271262   4.920   8.638   1.617
23674WAT      O71263   3.185   3.892   0.416
23674WAT     H171264   3.185   3.992   0.409
23674WAT     H271265   3.270   3.856   0.377
23675WAT      O71266   9.196   7.410   8.408
23675WAT     H171267   9.193   7.334   8.473
23675WAT     H271268   9.179   7.496   8.455
23676WAT      O71269   8.076   6.683   1.532
23676WAT     H171270   8.140   6.607   1.546
23676WAT     H271271   8.126   6.765   1.507
23677WAT      O71272   0.988   5.173   1.030
23677WAT     H171273   1.019   5.193   0.937
23677WAT     H271274   0.983   5.258   1.082
23678WAT      O71275   4.156   2.651   7.063
23678WAT     H171276   4.094   2.726   7.038
23678WAT     H271277   4.196   2.670   7.152
23679WAT      O71278   2.724   8.041   2.562
23679WAT     H171279   2.712   8.050   2.463
23679WAT     H271280   2.742   8.131   2.602
23680WAT      O71281   5.061   7.178   0.808
23680WAT     H171282   5.008   7.192   0.892
23680WAT     H271283   5.126   7.253   0.798
23681WAT      O71284   7.843   0.455   3.679
23681WAT     H171285   7.928   0.409   3.702
23681WAT     H271286   7.815   0.515   3.754
23682WAT      O71287   9.622   2.895   1.261
23682WAT     H171288   9.567   2.846   1.194
23682WAT     H271289   9.596   2.866   1.353
23683WAT      O71290   1.355   1.684   6.258
23683WAT     H171291   1.298   1.741   6.198
23683WAT     H271292   1.316   1.685   6.350
23684WAT      O71293   7.515   6.425   3.528
23684WAT     H171294   7.565   6.461   3.449
23684WAT     H271295   7.503   6.498   3.595
23685WAT      O71296   3.046   4.078   8.206
23685WAT     H171297   2.975   4.060   8.275
23685WAT     H271298   3.136   4.069   8.247
23686WAT      O71299   8.307   6.883   8.903
23686WAT     H171300   8.231   6.820   8.887
23686WAT     H271301   8.278   6.977   8.884
23687WAT      O71302   4.576   5.167   4.086
23687WAT     H171303   4.651   5.165   4.019
23687WAT     H271304   4.507   5.099   4.061
23688WAT      O71305   5.789   8.799   4.037
23688WAT     H171306   5.704   8.748   4.051
23688WAT     H271307   5.822   8.834   4.124
23689WAT      O71308   8.380   8.373   0.921
23689WAT     H171309   8.395   8.329   0.832
23689WAT     H271310   8.467   8.408   0.956
23690WAT      O71311   1.206   4.495   3.032
23690WAT     H171312   1.188   4.579   2.980
23690WAT     H271313   1.303   4.471   3.024
23691WAT      O71314   3.367   9.635   8.284
23691WAT     H171315   3.408   9.544   8.290
23691WAT     H271316   3.279   9.629   8.238
23692WAT      O71317   5.096   1.405   0.731
23692WAT     H171318   5.175   1.353   0.765
23692WAT     H271319   5.030   1.418   0.805
23693WAT      O71320   8.386   9.755   5.007
23693WAT     H171321   8.431   9.839   5.038
23693WAT     H271322   8.430   9.722   4.924
23694WAT      O71323   3.500   0.932   1.266
23694WAT     H171324   3.482   0.985   1.183
23694WAT     H271325   3.514   0.836   1.242
23695WAT      O71326   3.446   7.281   9.073
23695WAT     H171327   3.528   7.316   9.120
23695WAT     H271328   3.465   7.190   9.037
23696WAT      O71329   7.256   9.628   1.878
23696WAT     H171330   7.208   9.569   1.813
23696WAT     H271331   7.229   9.603   1.971
23697WAT      O71332   1.129   8.467   6.490
23697WAT     H171333   1.115   8.404   6.413
23697WAT     H271334   1.222   8.458   6.524
23698WAT      O71335   9.281   7.663   5.931
23698WAT     H171336   9.329   7.736   5.882
23698WAT     H271337   9.183   7.676   5.922
23699WAT      O71338   0.277   6.864   0.318
23699WAT     H171339   0.200   6.881   0.256
23699WAT     H271340   0.250   6.883   0.412
23700WAT      O71341   6.625   1.689   8.835
23700WAT     H171342   6.703   1.750   8.850
23700WAT     H271343   6.631   1.611   8.898
23701WAT      O71344   8.029   0.289   3.824
23701WAT     H171345   8.042   0.312   3.921
23701WAT     H271346   8.014   0.190   3.816
23702WAT      O71347   7.186   1.921   5.657
23702WAT     H171348   7.196   1.865   5.575
23702WAT     H271349   7.271   1.969   5.676
23703WAT      O71350   4.088   5.031   9.715
23703WAT     H171351   4.110   5.120   9.676
23703WAT     H271352   3.994   5.032   9.749
23704WAT      O71353   3.989   8.248   7.296
23704WAT     H171354   4.080   8.288   7.281
23704WAT     H271355   3.993   8.149   7.284
23705WAT      O71356   7.232   9.663   3.023
23705WAT     H171357   7.184   9.615   2.949
23705WAT     H271358   7.301   9.724   2.985
23706WAT      O71359   3.505   1.427   8.147
23706WAT     H171360   3.490   1.523   8.167
23706WAT     H271361   3.531   1.379   8.231
23707WAT      O71362   8.619   9.778   1.515
23707WAT     H171363   8.673   9.861   1.497
23707WAT     H271364   8.644   9.741   1.604
23708WAT      O71365   6.271   4.711   3.734
23708WAT     H171366   6.339   4.732   3.804
23708WAT     H271367   6.180   4.733   3.769
23709WAT      O71368   9.454   8.938   2.637
23709WAT     H171369   9.416   8.948   2.545
23709WAT     H271370   9.437   9.022   2.689
23710WAT      O71371   1.023   6.173   1.072
23710WAT     H171372   0.981   6.090   1.034
23710WAT     H271373   1.030   6.242   1.000
23711WAT      O71374   7.734   4.506   8.211
23711WAT     H171375   7.695   4.535   8.299
23711WAT     H271376   7.756   4.409   8.215
23712WAT      O71377   8.857   6.332   0.419
23712WAT     H171378   8.874   6.381   0.504
23712WAT     H271379   8.826   6.396   0.349
23713WAT      O71380   5.563   7.420   0.156
23713WAT     H171381   5.565   7.422   0.256
23713WAT     H271382   5.649   7.456   0.120
23714WAT      O71383   5.513   3.746   8.090
23714WAT     H171384   5.528   3.802   8.171
23714WAT     H271385   5.434   3.781   8.039
23715WAT      O71386   4.299   0.765   6.543
23715WAT     H171387   4.288   0.832   6.616
23715WAT     H271388   4.360   0.801   6.473
23716WAT      O71389   8.039   6.685   0.194
23716WAT     H171390   7.965   6.636   0.149
23716WAT     H271391   8.075   6.756   0.132
23717WAT      O71392   6.063   5.719   5.573
23717WAT     H171393   6.160   5.740   5.582
23717WAT     H271394   6.049   5.659   5.494
23718WAT      O71395   6.320   5.146   2.915
23718WAT     H171396   6.249   5.119   2.851
23718WAT     H271397   6.404   5.096   2.895
23719WAT      O71398   5.623   5.633   7.128
23719WAT     H171399   5.562   5.636   7.050
23719WAT     H271400   5.718   5.642   7.097
23720WAT      O71401   8.720   4.030   4.555
23720WAT     H171402   8.770   4.025   4.641
23720WAT     H271403   8.713   3.939   4.514
23721WAT      O71404   0.292   9.533   9.426
23721WAT     H171405   0.312   9.526   9.524
23721WAT     H271406   0.377   9.542   9.375
23722WAT      O71407   1.246   8.852   0.470
23722WAT     H171408   1.326   8.912   0.467
23722WAT     H271409   1.258   8.785   0.543
23723WAT      O71410   6.266   5.832   6.451
23723WAT     H171411   6.235   5.755   6.507
23723WAT     H271412   6.241   5.918   6.497
23724WAT      O71413   1.261   7.810   6.220
23724WAT     H171414   1.350   7.773   6.245
23724WAT     H271415   1.253   7.904   6.254
23725WAT      O71416   7.513   5.997   1.518
23725WAT     H171417   7.565   6.008   1.433
23725WAT     H271418   7.427   6.048   1.512
23726WAT      O71419   2.253   9.669   0.503
23726WAT     H171420   2.184   9.605   0.535
23726WAT     H271421   2.255   9.749   0.562
23727WAT      O71422   4.645   4.234   8.447
23727WAT     H171423   4.615   4.184   8.528
23727WAT     H271424   4.626   4.332   8.460
23728WAT      O71425   8.776   2.273   6.230
23728WAT     H171426   8.742   2.263   6.137
23728WAT     H271427   8.865   2.318   6.228
23729WAT      O71428   1.821   4.587   5.691
23729WAT     H171429   1.921   4.583   5.694
23729WAT     H271430   1.784   4.539   5.770
23730WAT      O71431   9.181   9.642   0.843
23730WAT     H171432   9.180   9.598   0.753
23730WAT     H271433   9.149   9.736   0.833
23731WAT      O71434   6.213   6.707   1.672
23731WAT     H171435   6.166   6.654   1.601
23731WAT     H271436   6.261   6.644   1.734
23732WAT      O71437   7.231   0.008   6.497
23732WAT     H171438   7.229   0.006   6.596
23732WAT     H271439   7.215  -0.084   6.461
23733WAT      O71440   5.828   8.360   4.474
23733WAT     H171441   5.869   8.450   4.459
23733WAT     H271442   5.768   8.364   4.555
23734WAT      O71443   1.017   9.687   1.695
23734WAT     H171444   1.112   9.695   1.726
23734WAT     H271445   1.003   9.597   1.655
23735WAT      O71446   6.948   6.362   0.261
23735WAT     H171447   6.992   6.452   0.264
23735WAT     H271448   6.852   6.371   0.287
23736WAT      O71449   9.024   9.784   5.116
23736WAT     H171450   8.943   9.817   5.069
23736WAT     H271451   9.069   9.859   5.164
23737WAT      O71452   1.618   4.605   0.228
23737WAT     H171453   1.538   4.547   0.211
23737WAT     H271454   1.699   4.560   0.191
23738WAT      O71455   5.686   6.050   7.595
23738WAT     H171456   5.663   5.960   7.633
23738WAT     H271457   5.785   6.064   7.600
23739WAT      O71458   2.677   7.512   9.829
23739WAT     H171459   2.747   7.573   9.866
23739WAT     H271460   2.681   7.424   9.875
23740WAT      O71461   3.612   5.461   6.923
23740WAT     H171462   3.513   5.449   6.914
23740WAT     H271463   3.634   5.495   7.014
23741WAT      O71464   3.371   3.397   8.063
23741WAT     H171465   3.400   3.431   7.973
23741WAT     H271466   3.331   3.472   8.116
23742WAT      O71467   7.724   2.655   1.668
23742WAT     H171468   7.782   2.613   1.738
23742WAT     H271469   7.628   2.647   1.694
23743WAT      O71470   5.252   2.241   2.588
23743WAT     H171471   5.293   2.152   2.608
23743WAT     H271472   5.275   2.305   2.661
23744WAT      O71473   1.348   4.742   3.655
23744WAT     H171474   1.439   4.714   3.625
23744WAT     H271475   1.289   4.756   3.575
23745WAT      O71476   5.285   3.937   8.759
23745WAT     H171477   5.382   3.960   8.760
23745WAT     H271478   5.237   3.996   8.694
23746WAT      O71479   5.013   9.819   6.219
23746WAT     H171480   5.040   9.885   6.150
23746WAT     H271481   5.023   9.726   6.183
23747WAT      O71482   3.824   4.373   3.348
23747WAT     H171483   3.825   4.454   3.289
23747WAT     H271484   3.820   4.290   3.293
23748WAT      O71485   1.490   7.826   9.405
23748WAT     H171486   1.536   7.837   9.493
23748WAT     H271487   1.400   7.786   9.419
23749WAT      O71488   3.257   7.334   9.522
23749WAT     H171489   3.211   7.286   9.448
23749WAT     H271490   3.322   7.272   9.567
23750WAT      O71491   8.496   9.505   3.573
23750WAT     H171492   8.535   9.415   3.593
23750WAT     H271493   8.505   9.564   3.653
23751WAT      O71494   0.865   4.916   0.202
23751WAT     H171495   0.865   4.860   0.119
23751WAT     H271496   0.771   4.937   0.228
23752WAT      O71497   6.552   1.797   0.206
23752WAT     H171498   6.649   1.817   0.192
23752WAT     H271499   6.497   1.857   0.148
23753WAT      O71500   5.663   5.176   4.238
23753WAT     H171501   5.703   5.267   4.232
23753WAT     H271502   5.606   5.169   4.320
23754WAT      O71503   7.572   9.715   9.100
23754WAT     H171504   7.574   9.814   9.089
23754WAT     H271505   7.563   9.693   9.197
23755WAT      O71506   9.564   0.151   7.080
23755WAT     H171507   9.589   0.208   7.002
23755WAT     H271508   9.645   0.132   7.135
23756WAT      O71509   4.502   1.228   3.749
23756WAT     H171510   4.541   1.250   3.838
23756WAT     H271511   4.522   1.133   3.726
23757WAT      O71512   6.153   0.601   2.668
23757WAT     H171513   6.178   0.525   2.727
23757WAT     H271514   6.058   0.589   2.636
23758WAT      O71515   6.184   7.281   4.649
23758WAT     H171516   6.250   7.234   4.708
23758WAT     H271517   6.225   7.366   4.615
23759WAT      O71518   5.006   6.547   7.890
23759WAT     H171519   5.055   6.466   7.923
23759WAT     H271520   4.967   6.528   7.800
23760WAT      O71521   6.384   7.250   1.546
23760WAT     H171522   6.339   7.324   1.496
23760WAT     H271523   6.323   7.170   1.548
23761WAT      O71524   3.989   2.485   6.809
23761WAT     H171525   4.031   2.490   6.900
23761WAT     H271526   3.992   2.391   6.776
23762WAT      O71527   5.094   3.274   1.137
23762WAT     H171528   5.110   3.179   1.162
23762WAT     H271529   5.078   3.281   1.039
23763WAT      O71530   6.078   6.562   3.741
23763WAT     H171531   6.032   6.638   3.787
23763WAT     H271532   6.028   6.477   3.759
23764WAT      O71533   0.041   9.009   4.960
23764WAT     H171534  -0.044   8.965   4.931
23764WAT     H271535   0.057   8.991   5.057
23765WAT      O71536   6.789   4.446   0.160
23765WAT     H171537   6.719   4.508   0.194
23765WAT     H271538   6.879   4.476   0.192
23766WAT      O71539   9.508   7.631   4.399
23766WAT     H171540   9.431   7.658   4.342
23766WAT     H271541   9.570   7.709   4.411
23767WAT      O71542   7.236   9.102   4.998
23767WAT     H171543   7.185   9.083   4.914
23767WAT     H271544   7.329   9.130   4.975
23768WAT      O71545   6.544   0.397   3.918
23768WAT     H171546   6.538   0.332   3.843
23768WAT     H271547   6.487   0.366   3.994
23769WAT      O71548   0.158   6.773   5.849
23769WAT     H171549   0.087   6.793   5.917
23769WAT     H271550   0.205   6.688   5.873
23770WAT      O71551   0.278   2.277   0.337
23770WAT     H171552   0.331   2.298   0.420
23770WAT     H271553   0.235   2.187   0.347
23771WAT      O71554   3.884   0.591   0.175
23771WAT     H171555   3.826   0.670   0.152
23771WAT     H271556   3.897   0.535   0.093
23772WAT      O71557   7.767   6.209   1.281
23772WAT     H171558   7.826   6.204   1.361
23772WAT     H271559   7.819   6.239   1.202
23773WAT      O71560   4.079   3.722   4.805
23773WAT     H171561   4.011   3.710   4.878
23773WAT     H271562   4.160   3.767   4.842
23774WAT      O71563   6.695   2.058   0.117
23774WAT     H171564   6.709   1.986   0.049
23774WAT     H271565   6.597   2.068   0.135
23775WAT      O71566   3.133   5.555   6.816
23775WAT     H171567   3.169   5.642   6.848
23775WAT     H271568   3.078   5.570   6.733
23776WAT      O71569   1.769   6.820   9.081
23776WAT     H171570   1.722   6.874   9.012
23776WAT     H271571   1.797   6.732   9.042
23777WAT      O71572   7.724   6.212   2.312
23777WAT     H171573   7.649   6.203   2.378
23777WAT     H271574   7.777   6.128   2.310
23778WAT      O71575   4.014   0.155   7.946
23778WAT     H171576   4.052   0.121   8.033
23778WAT     H271577   4.028   0.087   7.875
23779WAT      O71578   8.119   0.878   6.592
23779WAT     H171579   8.036   0.917   6.631
23779WAT     H271580   8.096   0.793   6.544
23780WAT      O71581   4.295   8.682   9.562
23780WAT     H171582   4.243   8.760   9.599
23780WAT     H271583   4.231   8.608   9.541
23781WAT      O71584   4.512   1.249   0.247
23781WAT     H171585   4.452   1.242   0.167
23781WAT     H271586   4.546   1.158   0.270
23782WAT      O71587   7.949   4.930   5.960
23782WAT     H171588   8.009   4.855   5.987
23782WAT     H271589   7.998   4.990   5.897
23783WAT      O71590   1.676   3.324   0.170
23783WAT     H171591   1.678   3.358   0.264
23783WAT     H271592   1.614   3.380   0.115
23784WAT      O71593   8.717   7.842   1.731
23784WAT     H171594   8.730   7.747   1.761
23784WAT     H271595   8.627   7.851   1.689
23785WAT      O71596   2.965   5.766   1.769
23785WAT     H171597   2.913   5.713   1.836
23785WAT     H271598   2.972   5.714   1.684
23786WAT      O71599   0.323   3.023   6.264
23786WAT     H171600   0.338   2.932   6.225
23786WAT     H271601   0.320   3.016   6.364
23787WAT      O71602   1.926   4.830   7.976
23787WAT     H171603   2.008   4.884   7.992
23787WAT     H271604   1.850   4.867   8.028
23788WAT      O71605   3.338   4.313   7.203
23788WAT     H171606   3.361   4.397   7.153
23788WAT     H271607   3.357   4.326   7.301
23789WAT      O71608   8.976   4.737   2.024
23789WAT     H171609   8.907   4.715   1.955
23789WAT     H271610   9.061   4.689   2.002
23790WAT      O71611   4.726   9.175   3.218
23790WAT     H171612   4.707   9.246   3.285
23790WAT     H271613   4.676   9.194   3.133
23791WAT      O71614   8.603   6.410   5.480
23791WAT     H171615   8.611   6.505   5.512
23791WAT     H271616   8.664   6.396   5.402
23792WAT      O71617   6.251   1.385   9.089
23792WAT     H171618   6.180   1.396   9.019
23792WAT     H271619   6.209   1.385   9.180
23793WAT      O71620   0.132   6.854   7.004
23793WAT     H171621   0.047   6.898   7.031
23793WAT     H271622   0.191   6.843   7.085
23794WAT      O71623   1.928   7.277   5.478
23794WAT     H171624   1.840   7.300   5.519
23794WAT     H271625   1.988   7.238   5.548
23795WAT      O71626   9.526   4.675   0.731
23795WAT     H171627   9.624   4.697   0.739
23795WAT     H271628   9.487   4.666   0.823
23796WAT      O71629   5.998   1.738   3.727
23796WAT     H171630   6.095   1.715   3.720
23796WAT     H271631   5.950   1.705   3.645
23797WAT      O71632   7.180   7.654   4.089
23797WAT     H171633   7.250   7.621   4.152
23797WAT     H271634   7.179   7.754   4.090
23798WAT      O71635   9.146   9.461   1.740
23798WAT     H171636   9.089   9.538   1.712
23798WAT     H271637   9.186   9.479   1.829
23799WAT      O71638   9.302   0.959   4.966
23799WAT     H171639   9.361   0.879   4.966
23799WAT     H271640   9.254   0.967   4.879
23800WAT      O71641   5.283   0.799   4.728
23800WAT     H171642   5.263   0.712   4.773
23800WAT     H271643   5.207   0.824   4.669
23801WAT      O71644   4.367   0.562   3.493
23801WAT     H171645   4.439   0.585   3.427
23801WAT     H271646   4.278   0.593   3.458
23802WAT      O71647   6.127   3.699   0.351
23802WAT     H171648   6.166   3.710   0.259
23802WAT     H271649   6.106   3.602   0.367
23803WAT      O71650   9.371   6.511   1.359
23803WAT     H171651   9.461   6.554   1.344
23803WAT     H271652   9.382   6.434   1.422
23804WAT      O71653   6.661   5.666   5.777
23804WAT     H171654   6.675   5.757   5.738
23804WAT     H271655   6.583   5.668   5.839
23805WAT      O71656   4.692   3.855   8.972
23805WAT     H171657   4.771   3.874   9.030
23805WAT     H271658   4.659   3.762   8.989
23806WAT      O71659   7.134   9.270   5.188
23806WAT     H171660   7.139   9.369   5.172
23806WAT     H271661   7.175   9.222   5.111
23807WAT      O71662   3.403   8.717   8.541
23807WAT     H171663   3.385   8.726   8.639
23807WAT     H271664   3.404   8.621   8.515
23808WAT      O71665   6.254   5.895   3.393
23808WAT     H171666   6.271   5.890   3.491
23808WAT     H271667   6.325   5.844   3.344
23809WAT      O71668   3.957   1.392   2.127
23809WAT     H171669   4.033   1.366   2.187
23809WAT     H271670   3.941   1.319   2.061
23810WAT      O71671   1.222   6.693   5.018
23810WAT     H171672   1.302   6.754   5.019
23810WAT     H271673   1.219   6.642   4.932
23811WAT      O71674   6.372   0.988   6.825
23811WAT     H171675   6.429   0.906   6.823
23811WAT     H271676   6.276   0.962   6.829
23812WAT      O71677   0.660   2.060   9.656
23812WAT     H171678   0.731   2.118   9.617
23812WAT     H271679   0.634   1.990   9.590
23813WAT      O71680   0.780   0.005   7.648
23813WAT     H171681   0.797   0.051   7.561
23813WAT     H271682   0.801  -0.092   7.639
23814WAT      O71683   7.362   7.383   4.729
23814WAT     H171684   7.395   7.299   4.772
23814WAT     H271685   7.263   7.378   4.719
23815WAT      O71686   4.514   6.135   1.082
23815WAT     H171687   4.455   6.099   1.154
23815WAT     H271688   4.487   6.096   0.994
23816WAT      O71689   6.274   1.058   5.306
23816WAT     H171690   6.335   1.066   5.384
23816WAT     H271691   6.327   1.034   5.224
23817WAT      O71692   4.989   6.980   8.140
23817WAT     H171693   4.999   7.044   8.063
23817WAT     H271694   4.954   6.892   8.105
23818WAT      O71695   9.602   9.723   4.302
23818WAT     H171696   9.693   9.757   4.328
23818WAT     H271697   9.535   9.751   4.371
23819WAT      O71698   9.503   6.055   7.953
23819WAT     H171699   9.407   6.027   7.957
23819WAT     H271700   9.509   6.152   7.931
23820WAT      O71701   3.993   2.940   4.776
23820WAT     H171702   4.038   2.979   4.696
23820WAT     H271703   3.932   2.866   4.747
23821WAT      O71704   9.032   0.261   0.593
23821WAT     H171705   8.973   0.328   0.548
23821WAT     H271706   9.113   0.307   0.629
23822WAT      O71707   7.106   3.584   5.972
23822WAT     H171708   7.123   3.574   5.874
23822WAT     H271709   7.037   3.655   5.987
23823WAT      O71710   0.461   4.255   6.478
23823WAT     H171711   0.403   4.325   6.520
23823WAT     H271712   0.554   4.263   6.513
23824WAT      O71713   1.515   5.620   7.094
23824WAT     H171714   1.584   5.688   7.069
23824WAT     H271715   1.548   5.565   7.171
23825WAT      O71716   5.062   2.243   0.519
23825WAT     H171717   5.073   2.152   0.558
23825WAT     H271718   5.043   2.308   0.592
23826WAT      O71719   5.862   7.011   1.378
23826WAT     H171720   5.837   6.966   1.464
23826WAT     H271721   5.885   7.107   1.396
23827WAT      O71722   0.972   3.190   0.947
23827WAT     H171723   0.959   3.209   1.044
23827WAT     H271724   1.070   3.188   0.927
23828WAT      O71725   5.482   0.564   0.155
23828WAT     H171726   5.390   0.568   0.192
23828WAT     H271727   5.480   0.531   0.061
23829WAT      O71728   2.808   8.201   1.498
23829WAT     H171729   2.858   8.235   1.578
23829WAT     H271730   2.715   8.176   1.524
23830WAT      O71731   1.281   3.897   9.780
23830WAT     H171732   1.265   3.987   9.820
23830WAT     H271733   1.216   3.881   9.706
23831WAT      O71734   5.101   6.907   1.619
23831WAT     H171735   5.167   6.893   1.693
23831WAT     H271736   5.143   6.965   1.549
23832WAT      O71737   3.628   6.126   7.706
23832WAT     H171738   3.538   6.122   7.748
23832WAT     H271739   3.668   6.034   7.703
23833WAT      O71740   0.257   4.844   1.264
23833WAT     H171741   0.328   4.869   1.198
23833WAT     H271742   0.246   4.919   1.330
23834WAT      O71743   1.044   2.972   0.661
23834WAT     H171744   0.984   3.052   0.655
23834WAT     H271745   1.005   2.907   0.726
23835WAT      O71746   5.742   9.087   1.359
23835WAT     H171747   5.784   9.146   1.428
23835WAT     H271748   5.813   9.041   1.307
23836WAT      O71749   3.802   6.713   2.621
23836WAT     H171750   3.890   6.754   2.597
23836WAT     H271751   3.774   6.745   2.711
23837WAT      O71752   2.785   0.550   6.957
23837WAT     H171753   2.747   0.630   7.004
23837WAT     H271754   2.789   0.473   7.020
23838WAT      O71755   5.725   6.641   1.729
23838WAT     H171756   5.628   6.642   1.752
23838WAT     H271757   5.742   6.570   1.660
23839WAT      O71758   4.872   1.673   2.140
23839WAT     H171759   4.952   1.615   2.156
23839WAT     H271760   4.826   1.644   2.056
23840WAT      O71761   3.846   2.139   1.678
23840WAT     H171762   3.857   2.139   1.777
23840WAT     H271763   3.764   2.190   1.653
23841WAT      O71764   2.282   0.726   6.483
23841WAT     H171765   2.366   0.689   6.523
23841WAT     H271766   2.203   0.681   6.525
23842WAT      O71767   1.135   2.177   1.575
23842WAT     H171768   1.081   2.095   1.596
23842WAT     H271769   1.179   2.211   1.658
23843WAT      O71770   4.178   7.694   1.462
23843WAT     H171771   4.210   7.601   1.439
23843WAT     H271772   4.186   7.752   1.381
23844WAT      O71773   8.698   2.137   0.467
23844WAT     H171774   8.763   2.177   0.532
23844WAT     H271775   8.745   2.120   0.381
23845WAT      O71776   8.297   3.833   4.203
23845WAT     H171777   8.241   3.883   4.269
23845WAT     H271778   8.382   3.884   4.186
23846WAT      O71779   9.032   4.424   2.889
23846WAT     H171780   8.985   4.350   2.840
23846WAT     H271781   8.974   4.456   2.964
23847WAT      O71782   6.299   2.154   4.523
23847WAT     H171783   6.332   2.092   4.594
23847WAT     H271784   6.204   2.178   4.541
23848WAT      O71785   4.309   0.327   9.227
23848WAT     H171786   4.329   0.379   9.143
23848WAT     H271787   4.331   0.231   9.212
23849WAT      O71788   4.642   2.479   0.315
23849WAT     H171789   4.619   2.569   0.353
23849WAT     H271790   4.729   2.485   0.266
23850WAT      O71791   1.563   8.063   7.875
23850WAT     H171792   1.495   7.996   7.903
23850WAT     H271793   1.573   8.133   7.945
23851WAT      O71794   7.156   9.742   0.981
23851WAT     H171795   7.237   9.742   0.922
23851WAT     H271796   7.160   9.820   1.044
23852WAT      O71797   1.718   6.100   4.616
23852WAT     H171798   1.674   6.095   4.706
23852WAT     H271799   1.817   6.110   4.627
23853WAT      O71800   0.254   7.258   9.486
23853WAT     H171801   0.321   7.194   9.523
23853WAT     H271802   0.165   7.240   9.527
23854WAT      O71803   5.020   7.551   4.846
23854WAT     H171804   5.106   7.582   4.888
23854WAT     H271805   4.961   7.630   4.828
23855WAT      O71806   3.003   2.825   1.960
23855WAT     H171807   2.945   2.851   1.883
23855WAT     H271808   3.055   2.905   1.992
23856WAT      O71809   6.690   9.413   7.660
23856WAT     H171810   6.740   9.330   7.685
23856WAT     H271811   6.592   9.398   7.674
23857WAT      O71812   5.083   0.969   1.217
23857WAT     H171813   5.054   1.042   1.278
23857WAT     H271814   5.180   0.949   1.232
23858WAT      O71815   4.678   2.389   3.370
23858WAT     H171816   4.664   2.349   3.461
23858WAT     H271817   4.740   2.467   3.377
23859WAT      O71818   0.692   4.209   1.916
23859WAT     H171819   0.624   4.145   1.951
23859WAT     H271820   0.742   4.250   1.992
23860WAT      O71821   7.076   9.558   1.649
23860WAT     H171822   7.013   9.587   1.721
23860WAT     H271823   7.025   9.509   1.578
23861WAT      O71824   8.761   1.875   9.894
23861WAT     H171825   8.711   1.803   9.845
23861WAT     H271826   8.849   1.891   9.849
23862WAT      O71827   9.852   3.180   8.179
23862WAT     H171828   9.763   3.203   8.217
23862WAT     H271829   9.901   3.265   8.157
23863WAT      O71830   9.487   2.880   9.194
23863WAT     H171831   9.491   2.960   9.135
23863WAT     H271832   9.496   2.908   9.289
23864WAT      O71833   7.452   5.894   5.811
23864WAT     H171834   7.467   5.859   5.718
23864WAT     H271835   7.528   5.952   5.838
23865WAT      O71836   8.505   6.118   7.764
23865WAT     H171837   8.554   6.135   7.678
23865WAT     H271838   8.474   6.023   7.766
23866WAT      O71839   7.575   7.996   3.569
23866WAT     H171840   7.636   8.015   3.492
23866WAT     H271841   7.536   7.904   3.558
23867WAT      O71842   5.928   5.120   9.395
23867WAT     H171843   5.903   5.216   9.407
23867WAT     H271844   5.846   5.067   9.374
23868WAT      O71845   4.269   6.359   1.523
23868WAT     H171846   4.178   6.379   1.561
23868WAT     H271847   4.338   6.409   1.575
23869WAT      O71848   9.382   3.721   2.566
23869WAT     H171849   9.323   3.757   2.493
23869WAT     H271850   9.397   3.793   2.634
23870WAT      O71851   4.180   6.781   3.889
23870WAT     H171852   4.189   6.701   3.948
23870WAT     H271853   4.271   6.814   3.865
23871WAT      O71854   2.411   9.639   2.571
23871WAT     H171855   2.387   9.700   2.495
23871WAT     H271856   2.494   9.588   2.547
23872WAT      O71857   0.580   9.645   4.256
23872WAT     H171858   0.536   9.720   4.306
23872WAT     H271859   0.679   9.663   4.251
23873WAT      O71860   9.500   8.430   2.186
23873WAT     H171861   9.537   8.523   2.185
23873WAT     H271862   9.529   8.382   2.103
23874WAT      O71863   7.945   1.690   6.800
23874WAT     H171864   7.876   1.710   6.869
23874WAT     H271865   8.004   1.770   6.786
23875WAT      O71866   1.459   8.436   5.054
23875WAT     H171867   1.544   8.459   5.101
23875WAT     H271868   1.403   8.377   5.113
23876WAT      O71869   3.551   2.758   0.804
23876WAT     H171870   3.491   2.807   0.867
23876WAT     H271871   3.508   2.752   0.714
23877WAT      O71872   1.122   4.012   8.358
23877WAT     H171873   1.086   4.091   8.308
23877WAT     H271874   1.137   3.936   8.295
23878WAT      O71875   8.507   8.379   6.410
23878WAT     H171876   8.497   8.302   6.473
23878WAT     H271877   8.437   8.374   6.339
23879WAT      O71878   2.350   2.287   0.012
23879WAT     H171879   2.446   2.317   0.014
23879WAT     H271880   2.296   2.343   0.074
23880WAT      O71881   9.744   4.110   6.908
23880WAT     H171882   9.749   4.127   6.810
23880WAT     H271883   9.825   4.148   6.953
23881WAT      O71884   6.142   5.152   1.834
23881WAT     H171885   6.052   5.172   1.873
23881WAT     H271886   6.149   5.054   1.817
23882WAT      O71887   1.048   1.702   3.366
23882WAT     H171888   1.004   1.613   3.354
23882WAT     H271889   1.031   1.735   3.459
23883WAT      O71890   4.129   4.325   4.335
23883WAT     H171891   4.081   4.278   4.410
23883WAT     H271892   4.194   4.391   4.374
23884WAT      O71893   3.305   7.219   1.540
23884WAT     H171894   3.304   7.119   1.540
23884WAT     H271895   3.227   7.253   1.487
23885WAT      O71896   4.411   4.617   7.387
23885WAT     H171897   4.449   4.659   7.305
23885WAT     H271898   4.323   4.574   7.365
23886WAT      O71899   3.468   6.538   9.312
23886WAT     H171900   3.535   6.469   9.283
23886WAT     H271901   3.398   6.548   9.242
23887WAT      O71902   0.801   3.253   8.649
23887WAT     H171903   0.741   3.281   8.724
23887WAT     H271904   0.848   3.334   8.613
23888WAT      O71905   3.042   4.570   3.403
23888WAT     H171906   2.974   4.542   3.335
23888WAT     H271907   3.010   4.652   3.451
23889WAT      O71908   9.717   7.191   1.439
23889WAT     H171909   9.731   7.279   1.394
23889WAT     H271910   9.766   7.189   1.526
23890WAT      O71911   6.839   2.294   5.704
23890WAT     H171912   6.854   2.321   5.609
23890WAT     H271913   6.890   2.211   5.724
23891WAT      O71914   7.839   4.462   4.057
23891WAT     H171915   7.910   4.517   4.012
23891WAT     H271916   7.799   4.515   4.132
23892WAT      O71917   5.491   4.823   1.439
23892WAT     H171918   5.472   4.828   1.537
23892WAT     H271919   5.458   4.736   1.402
23893WAT      O71920   6.175   6.695   2.750
23893WAT     H171921   6.205   6.712   2.656
23893WAT     H271922   6.250   6.653   2.802
23894WAT      O71923   9.689   2.701   0.558
23894WAT     H171924   9.747   2.783   0.562
23894WAT     H271925   9.644   2.697   0.469
23895WAT      O71926   8.410   9.629   3.953
23895WAT     H171927   8.450   9.679   3.876
23895WAT     H271928   8.357   9.552   3.919
23896WAT      O71929   7.190   6.390   7.807
23896WAT     H171930   7.122   6.367   7.737
23896WAT     H271931   7.256   6.316   7.816
23897WAT      O71932   2.734   5.587   3.588
23897WAT     H171933   2.819   5.604   3.537
23897WAT     H271934   2.755   5.577   3.685
23898WAT      O71935   0.395   6.835   3.273
23898WAT     H171936   0.303   6.810   3.242
23898WAT     H271937   0.391   6.869   3.367
23899WAT      O71938   3.365   2.605   9.606
23899WAT     H171939   3.447   2.637   9.557
23899WAT     H271940   3.366   2.505   9.610
23900WAT      O71941   1.655   1.971   3.364
23900WAT     H171942   1.627   2.063   3.339
23900WAT     H271943   1.651   1.960   3.463
23901WAT      O71944   0.465   5.742   9.647
23901WAT     H171945   0.475   5.841   9.648
23901WAT     H271946   0.539   5.701   9.701
23902WAT      O71947   3.682   3.269   2.137
23902WAT     H171948   3.723   3.219   2.060
23902WAT     H271949   3.754   3.315   2.189
23903WAT      O71950   0.401   9.204   9.021
23903WAT     H171951   0.388   9.182   8.924
23903WAT     H271952   0.318   9.180   9.072
23904WAT      O71953   3.058   4.430   3.658
23904WAT     H171954   3.046   4.332   3.666
23904WAT     H271955   3.071   4.454   3.562
23905WAT      O71956   4.951   2.936   4.121
23905WAT     H171957   4.951   2.858   4.059
23905WAT     H271958   4.943   2.904   4.215
23906WAT      O71959   2.750   4.087   0.118
23906WAT     H171960   2.713   4.022   0.052
23906WAT     H271961   2.753   4.046   0.208
23907WAT      O71962   3.535   6.504   7.241
23907WAT     H171963   3.463   6.516   7.174
23907WAT     H271964   3.576   6.413   7.230
23908WAT      O71965   8.125   5.705   6.108
23908WAT     H171966   8.137   5.648   6.026
23908WAT     H271967   8.120   5.647   6.189
23909WAT      O71968   4.987   5.936   4.439
23909WAT     H171969   4.924   5.894   4.504
23909WAT     H271970   4.979   5.889   4.351
23910WAT      O71971   2.901   8.543   1.723
23910WAT     H171972   2.914   8.616   1.789
23910WAT     H271973   2.954   8.562   1.640
23911WAT      O71974   5.911   3.214   2.222
23911WAT     H171975   5.846   3.162   2.278
23911WAT     H271976   5.985   3.249   2.280
23912WAT      O71977   1.912   2.438   0.849
23912WAT     H171978   1.861   2.368   0.800
23912WAT     H271979   1.875   2.448   0.942
23913WAT      O71980   3.649   3.064   0.720
23913WAT     H171981   3.638   3.152   0.675
23913WAT     H271982   3.744   3.033   0.710
23914WAT      O71983   4.917   7.234   2.429
23914WAT     H171984   4.950   7.142   2.408
23914WAT     H271985   4.823   7.229   2.463
23915WAT      O71986   4.480   7.374   4.591
23915WAT     H171987   4.445   7.393   4.683
23915WAT     H271988   4.417   7.411   4.523
23916WAT      O71989   4.781   2.041   4.315
23916WAT     H171990   4.814   1.956   4.273
23916WAT     H271991   4.838   2.118   4.284
23917WAT      O71992   2.633   1.641   8.471
23917WAT     H171993   2.575   1.593   8.537
23917WAT     H271994   2.595   1.629   8.379
23918WAT      O71995   8.482   7.858   8.042
23918WAT     H171996   8.477   7.932   7.975
23918WAT     H271997   8.560   7.873   8.103
23919WAT      O71998   3.234   6.761   8.984
23919WAT     H171999   3.317   6.790   9.031
23919WAT     H272000   3.249   6.761   8.885
23920WAT      O72001   5.001   6.906   9.108
23920WAT     H172002   5.005   7.005   9.099
23920WAT     H272003   4.910   6.879   9.141
23921WAT      O72004   3.373   1.283   5.316
23921WAT     H172005   3.338   1.285   5.222
23921WAT     H272006   3.298   1.271   5.380
23922WAT      O72007   4.923   4.484   3.174
23922WAT     H172008   4.844   4.473   3.235
23922WAT     H272009   5.004   4.444   3.216
23923WAT      O72010   8.534   7.111   3.986
23923WAT     H172011   8.476   7.031   3.998
23923WAT     H272012   8.627   7.090   4.017
23924WAT      O72013   8.034   4.583   4.686
23924WAT     H172014   8.108   4.518   4.706
23924WAT     H272015   7.983   4.551   4.606
23925WAT      O72016   0.257   3.604   0.111
23925WAT     H172017   0.342   3.585   0.159
23925WAT     H272018   0.215   3.518   0.083
23926WAT      O72019   9.611   4.454   2.386
23926WAT     H172020   9.658   4.366   2.392
23926WAT     H272021   9.527   4.442   2.332
23927WAT      O72022   8.625   0.926   6.905
23927WAT     H172023   8.676   0.995   6.956
23927WAT     H272024   8.557   0.884   6.964
23928WAT      O72025   9.097   6.001   2.330
23928WAT     H172026   9.120   6.049   2.246
23928WAT     H272027   9.062   5.910   2.308
23929WAT      O72028   9.205   6.429   3.566
23929WAT     H172029   9.254   6.362   3.621
23929WAT     H272030   9.261   6.455   3.487
23930WAT      O72031   2.729   0.666   4.589
23930WAT     H172032   2.738   0.758   4.628
23930WAT     H272033   2.790   0.656   4.511
23931WAT      O72034   9.010   4.695   9.587
23931WAT     H172035   9.092   4.746   9.560
23931WAT     H272036   8.958   4.750   9.652
23932WAT      O72037   1.613   5.463   0.670
23932WAT     H172038   1.562   5.549   0.671
23932WAT     H272039   1.711   5.483   0.676
23933WAT      O72040   4.185   7.679   7.973
23933WAT     H172041   4.143   7.635   7.894
23933WAT     H272042   4.197   7.612   8.046
23934WAT      O72043   5.363   0.211   3.793
23934WAT     H172044   5.415   0.279   3.845
23934WAT     H272045   5.426   0.151   3.744
23935WAT      O72046   0.550   3.085   0.267
23935WAT     H172047   0.635   3.138   0.270
23935WAT     H272048   0.479   3.133   0.317
23936WAT      O72049   2.772   2.365   4.811
23936WAT     H172050   2.797   2.276   4.849
23936WAT     H272051   2.674   2.381   4.826
23937WAT      O72052   2.983   4.742   1.347
23937WAT     H172053   2.977   4.814   1.416
23937WAT     H272054   3.042   4.772   1.272
23938WAT      O72055   7.086   3.278   5.652
23938WAT     H172056   7.002   3.266   5.705
23938WAT     H272057   7.143   3.348   5.694
23939WAT      O72058   3.599   4.747   9.614
23939WAT     H172059   3.604   4.846   9.603
23939WAT     H272060   3.688   4.713   9.642
23940WAT      O72061   5.961   6.451   4.195
23940WAT     H172062   6.025   6.504   4.250
23940WAT     H272063   6.004   6.367   4.165
23941WAT      O72064   7.771   8.883   4.098
23941WAT     H172065   7.676   8.914   4.102
23941WAT     H272066   7.786   8.809   4.164
23942WAT      O72067   1.587   2.182   4.831
23942WAT     H172068   1.658   2.128   4.877
23942WAT     H272069   1.520   2.213   4.899
23943WAT      O72070   5.614   9.548   9.244
23943WAT     H172071   5.528   9.509   9.278
23943WAT     H272072   5.670   9.474   9.206
23944WAT      O72073   9.545   2.059   2.816
23944WAT     H172074   9.626   2.006   2.838
23944WAT     H272075   9.569   2.130   2.750
23945WAT      O72076   9.477   5.218   2.948
23945WAT     H172077   9.508   5.127   2.977
23945WAT     H272078   9.459   5.217   2.850
23946WAT      O72079   6.065   0.525   3.067
23946WAT     H172080   6.025   0.567   2.987
23946WAT     H272081   6.072   0.426   3.053
23947WAT      O72082   4.030   3.114   2.068
23947WAT     H172083   4.001   3.103   2.163
23947WAT     H272084   3.950   3.104   2.007
23948WAT      O72085   0.316   0.583   1.496
23948WAT     H172086   0.412   0.608   1.484
23948WAT     H272087   0.266   0.606   1.413
23949WAT      O72088   6.482   4.458   9.396
23949WAT     H172089   6.504   4.362   9.414
23949WAT     H272090   6.384   4.468   9.385
23950WAT      O72091   3.743   5.095   8.814
23950WAT     H172092   3.827   5.046   8.834
23950WAT     H272093   3.666   5.031   8.816
23951WAT      O72094   9.225   9.638   6.583
23951WAT     H172095   9.256   9.576   6.511
23951WAT     H272096   9.202   9.727   6.542
23952WAT      O72097   1.372   4.181   2.851
23952WAT     H172098   1.278   4.201   2.826
23952WAT     H272099   1.405   4.102   2.800
23953WAT      O72100   6.978   1.786   1.170
23953WAT     H172101   7.040   1.777   1.092
23953WAT     H272102   6.886   1.806   1.136
23954WAT      O72103   1.698   2.258   7.299
23954WAT     H172104   1.718   2.211   7.214
23954WAT     H272105   1.772   2.323   7.320
23955WAT      O72106   6.986   9.682   3.491
23955WAT     H172107   6.892   9.652   3.478
23955WAT     H272108   7.041   9.657   3.411
23956WAT      O72109   4.855   5.120   6.291
23956WAT     H172110   4.891   5.045   6.235
23956WAT     H272111   4.887   5.207   6.253
23957WAT      O72112   3.672   8.735   8.918
23957WAT     H172113   3.682   8.834   8.927
23957WAT     H272114   3.656   8.695   9.008
23958WAT      O72115   8.483   6.824   6.838
23958WAT     H172116   8.549   6.881   6.888
23958WAT     H272117   8.530   6.778   6.763
23959WAT      O72118   0.968   4.359   1.096
23959WAT     H172119   0.921   4.299   1.161
23959WAT     H272120   1.025   4.304   1.034
23960WAT      O72121   3.071   9.461   1.933
23960WAT     H172122   3.122   9.494   1.854
23960WAT     H272123   3.103   9.508   2.016
23961WAT      O72124   9.598   2.769   3.874
23961WAT     H172125   9.697   2.775   3.858
23961WAT     H272126   9.564   2.681   3.840
23962WAT      O72127   4.692   5.332   0.915
23962WAT     H172128   4.663   5.399   0.847
23962WAT     H272129   4.682   5.240   0.878
23963WAT      O72130   1.381   3.007   3.047
23963WAT     H172131   1.376   2.917   3.090
23963WAT     H272132   1.337   3.074   3.106
23964WAT      O72133   0.103   4.646   9.794
23964WAT     H172134   0.008   4.667   9.818
23964WAT     H272135   0.155   4.732   9.785
23965WAT      O72136   0.274   2.790   0.539
23965WAT     H172137   0.345   2.740   0.590
23965WAT     H272138   0.311   2.818   0.450
23966WAT      O72139   8.581   6.137   4.856
23966WAT     H172140   8.644   6.066   4.886
23966WAT     H272141   8.571   6.205   4.928
23967WAT      O72142   5.830   5.081   2.650
23967WAT     H172143   5.809   5.097   2.554
23967WAT     H272144   5.800   4.989   2.676
23968WAT      O72145   8.124   7.508   8.511
23968WAT     H172146   8.206   7.558   8.538
23968WAT     H272147   8.054   7.572   8.480
23969WAT      O72148   0.080   3.613   7.007
23969WAT     H172149   0.099   3.609   7.105
23969WAT     H272150   0.089   3.521   6.968
23970WAT      O72151   1.958   6.005   6.671
23970WAT     H172152   1.889   5.936   6.648
23970WAT     H272153   2.040   5.960   6.704
23971WAT      O72154   5.206   7.685   2.890
23971WAT     H172155   5.268   7.720   2.959
23971WAT     H272156   5.128   7.746   2.881
23972WAT      O72157   4.140   0.132   0.398
23972WAT     H172158   4.151   0.046   0.448
23972WAT     H272159   4.050   0.134   0.354
23973WAT      O72160   8.053   3.226   7.691
23973WAT     H172161   8.076   3.303   7.750
23973WAT     H272162   8.117   3.221   7.615
23974WAT      O72163   1.714   5.836   6.966
23974WAT     H172164   1.709   5.843   6.866
23974WAT     H272165   1.809   5.834   6.994
23975WAT      O72166   9.685   1.918   3.715
23975WAT     H172167   9.615   1.929   3.645
23975WAT     H272168   9.653   1.955   3.802
23976WAT      O72169   6.416   8.683   6.034
23976WAT     H172170   6.397   8.648   5.943
23976WAT     H272171   6.356   8.638   6.101
23977WAT      O72172   7.791   0.009   1.091
23977WAT     H172173   7.813  -0.025   0.999
23977WAT     H272174   7.789   0.109   1.090
23978WAT      O72175   8.053   0.794   7.912
23978WAT     H172176   8.000   0.748   7.984
23978WAT     H272177   8.022   0.888   7.903
23979WAT      O72178   3.912   4.605   3.260
23979WAT     H172179   3.997   4.588   3.309
23979WAT     H272180   3.923   4.585   3.163
23980WAT      O72181   1.755   4.139   2.830
23980WAT     H172182   1.770   4.215   2.894
23980WAT     H272183   1.754   4.053   2.881
23981WAT      O72184   7.587   9.061   6.018
23981WAT     H172185   7.648   9.028   6.091
23981WAT     H272186   7.497   9.020   6.029
23982WAT      O72187   6.562   9.836   9.101
23982WAT     H172188   6.615   9.753   9.081
23982WAT     H272189   6.511   9.863   9.020
23983WAT      O72190   1.431   3.182   5.302
23983WAT     H172191   1.411   3.104   5.242
23983WAT     H272192   1.373   3.176   5.384
23984WAT      O72193   3.395   4.265   1.134
23984WAT     H172194   3.331   4.268   1.210
23984WAT     H272195   3.396   4.174   1.094
23985WAT      O72196   5.211   5.088   7.214
23985WAT     H172197   5.115   5.115   7.202
23985WAT     H272198   5.250   5.062   7.126
23986WAT      O72199   1.314   2.330   6.983
23986WAT     H172200   1.367   2.404   7.025
23986WAT     H272201   1.228   2.366   6.948
23987WAT      O72202   4.273   9.433   5.077
23987WAT     H172203   4.310   9.363   5.137
23987WAT     H272204   4.340   9.507   5.067
23988WAT      O72205   9.072   8.440   4.301
23988WAT     H172206   9.018   8.502   4.358
23988WAT     H272207   9.113   8.369   4.360
23989WAT      O72208   0.848   8.445   4.522
23989WAT     H172209   0.945   8.453   4.500
23989WAT     H272210   0.811   8.534   4.547
23990WAT      O72211   0.774   2.798   1.920
23990WAT     H172212   0.856   2.743   1.935
23990WAT     H272213   0.701   2.766   1.980
23991WAT      O72214   9.810   1.752   0.080
23991WAT     H172215   9.725   1.753   0.133
23991WAT     H272216   9.828   1.659   0.047
23992WAT      O72217   0.382   2.194   7.132
23992WAT     H172218   0.354   2.274   7.080
23992WAT     H272219   0.391   2.115   7.070
23993WAT      O72220   9.734   1.173   5.511
23993WAT     H172221   9.782   1.158   5.424
23993WAT     H272222   9.778   1.119   5.583
23994WAT      O72223   6.151   6.393   2.537
23994WAT     H172224   6.225   6.436   2.486
23994WAT     H272225   6.189   6.340   2.613
23995WAT      O72226   1.905   6.075   3.816
23995WAT     H172227   1.858   6.128   3.887
23995WAT     H272228   1.931   6.135   3.741
23996WAT      O72229   5.509   5.200   6.527
23996WAT     H172230   5.535   5.127   6.590
23996WAT     H272231   5.511   5.288   6.574
23997WAT      O72232   2.879   9.168   0.072
23997WAT     H172233   2.903   9.224   0.151
23997WAT     H272234   2.780   9.160   0.064
23998WAT      O72235   7.163   5.370   6.258
23998WAT     H172236   7.209   5.288   6.221
23998WAT     H272237   7.092   5.399   6.195
23999WAT      O72238   2.148   5.310   3.741
23999WAT     H172239   2.168   5.326   3.645
23999WAT     H272240   2.194   5.380   3.797
24000WAT      O72241   1.666   7.084   0.482
24000WAT     H172242   1.590   7.052   0.539
24000WAT     H272243   1.655   7.049   0.389
24001WAT      O72244   8.660   8.012   6.833
24001WAT     H172245   8.644   8.089   6.771
24001WAT     H272246   8.614   8.029   6.920
24002WAT      O72247   8.276   6.831   7.822
24002WAT     H172248   8.366   6.831   7.866
24002WAT     H272249   8.241   6.924   7.816
24003WAT      O72250   0.064   5.464   6.309
24003WAT     H172251   0.024   5.450   6.219
24003WAT     H272252   0.039   5.388   6.369
24004WAT      O72253   9.083   2.614   0.905
24004WAT     H172254   8.992   2.656   0.896
24004WAT     H272255   9.139   2.639   0.825
24005WAT      O72256   7.299   6.754   0.541
24005WAT     H172257   7.243   6.715   0.614
24005WAT     H272258   7.258   6.840   0.510
24006WAT      O72259   9.828   7.533   0.337
24006WAT     H172260   9.749   7.569   0.289
24006WAT     H272261   9.833   7.574   0.429
24007WAT      O72262   4.871   1.997   8.905
24007WAT     H172263   4.840   2.054   8.829
24007WAT     H272264   4.860   2.046   8.991
24008WAT      O72265   4.514   4.549   0.503
24008WAT     H172266   4.428   4.550   0.554
24008WAT     H272267   4.500   4.591   0.413
24009WAT      O72268   6.054   0.032   4.789
24009WAT     H172269   6.052  -0.059   4.748
24009WAT     H272270   6.056   0.024   4.889
24010WAT      O72271   3.598   4.657   5.470
24010WAT     H172272   3.548   4.743   5.464
24010WAT     H272273   3.571   4.608   5.553
24011WAT      O72274   0.681   5.475   1.547
24011WAT     H172275   0.736   5.402   1.588
24011WAT     H272276   0.584   5.453   1.557
24012WAT      O72277   2.435   4.451   6.953
24012WAT     H172278   2.462   4.473   7.047
24012WAT     H272279   2.355   4.391   6.954
24013WAT      O72280   0.264   9.838   4.845
24013WAT     H172281   0.364   9.840   4.842
24013WAT     H272282   0.227   9.876   4.760
24014WAT      O72283   1.743   4.627   1.092
24014WAT     H172284   1.775   4.691   1.162
24014WAT     H272285   1.773   4.658   1.002
24015WAT      O72286   6.813   2.815   6.834
24015WAT     H172287   6.886   2.768   6.784
24015WAT     H272288   6.738   2.836   6.771
24016WAT      O72289   8.869   3.184   8.074
24016WAT     H172290   8.899   3.273   8.107
24016WAT     H272291   8.771   3.174   8.091
24017WAT      O72292   2.887   8.964   3.204
24017WAT     H172293   2.919   9.053   3.172
24017WAT     H272294   2.853   8.911   3.126
24018WAT      O72295   6.580   0.045   6.053
24018WAT     H172296   6.524   0.101   6.114
24018WAT     H272297   6.676   0.073   6.060
24019WAT      O72298   4.631   4.106   6.819
24019WAT     H172299   4.711   4.100   6.758
24019WAT     H272300   4.661   4.096   6.914
24020WAT      O72301   5.025   5.759   9.829
24020WAT     H172302   5.081   5.677   9.841
24020WAT     H272303   4.933   5.734   9.800
24021WAT      O72304   8.818   9.606   9.190
24021WAT     H172305   8.742   9.548   9.217
24021WAT     H272306   8.903   9.571   9.229
24022WAT      O72307   2.561   6.696   1.588
24022WAT     H172308   2.555   6.684   1.488
24022WAT     H272309   2.473   6.672   1.629
24023WAT      O72310   8.381   1.782   9.597
24023WAT     H172311   8.395   1.873   9.635
24023WAT     H272312   8.415   1.780   9.503
24024WAT      O72313   6.455   6.317   9.509
24024WAT     H172314   6.548   6.342   9.534
24024WAT     H272315   6.426   6.237   9.561
24025WAT      O72316   2.776   8.899   9.804
24025WAT     H172317   2.864   8.899   9.851
24025WAT     H272318   2.702   8.907   9.871
24026WAT      O72319   6.763   0.555   6.071
24026WAT     H172320   6.804   0.479   6.020
24026WAT     H272321   6.818   0.637   6.057
24027WAT      O72322   2.292   3.851   9.389
24027WAT     H172323   2.225   3.834   9.461
24027WAT     H272324   2.255   3.824   9.301
24028WAT      O72325   7.559   8.253   0.019
24028WAT     H172326   7.496   8.252  -0.058
24028WAT     H272327   7.618   8.172   0.016
24029WAT      O72328   8.860   9.560   3.530
24029WAT     H172329   8.928   9.563   3.456
24029WAT     H272330   8.811   9.473   3.527
24030WAT      O72331   0.267   0.291   7.077
24030WAT     H172332   0.256   0.359   7.149
24030WAT     H272333   0.358   0.299   7.037
24031WAT      O72334   4.224   0.938   5.664
24031WAT     H172335   4.207   0.967   5.569
24031WAT     H272336   4.181   1.003   5.727
24032WAT      O72337   0.537   5.974   9.398
24032WAT     H172338   0.526   6.002   9.493
24032WAT     H272339   0.596   6.039   9.351
24033WAT      O72340   8.067   3.759   5.310
24033WAT     H172341   8.093   3.847   5.269
24033WAT     H272342   7.998   3.714   5.254
24034WAT      O72343   1.138   9.045   2.474
24034WAT     H172344   1.157   9.000   2.562
24034WAT     H272345   1.224   9.082   2.437
24035WAT      O72346   6.951   4.753   6.484
24035WAT     H172347   6.905   4.767   6.571
24035WAT     H272348   7.008   4.833   6.462
24036WAT      O72349   2.490   2.908   7.889
24036WAT     H172350   2.589   2.909   7.903
24036WAT     H272351   2.458   2.814   7.880
24037WAT      O72352   5.652   4.048   8.998
24037WAT     H172353   5.603   4.007   9.075
24037WAT     H272354   5.680   4.141   9.023
24038WAT      O72355   0.332   4.297   1.034
24038WAT     H172356   0.421   4.277   1.074
24038WAT     H272357   0.335   4.386   0.989
24039WAT      O72358   3.488   4.924   1.134
24039WAT     H172359   3.452   4.983   1.206
24039WAT     H272360   3.553   4.975   1.078
24040WAT      O72361   9.387   6.627   5.385
24040WAT     H172362   9.481   6.651   5.409
24040WAT     H272363   9.337   6.709   5.357
24041WAT      O72364   7.362   4.298   7.838
24041WAT     H172365   7.319   4.343   7.760
24041WAT     H272366   7.403   4.367   7.897
24042WAT      O72367   3.335   1.367   4.098
24042WAT     H172368   3.417   1.402   4.051
24042WAT     H272369   3.259   1.364   4.034
24043WAT      O72370   9.795   8.639   5.095
24043WAT     H172371   9.799   8.715   5.030
24043WAT     H272372   9.705   8.637   5.138
24044WAT      O72373   5.142   1.019   8.977
24044WAT     H172374   5.053   0.974   8.966
24044WAT     H272375   5.198   1.000   8.897
24045WAT      O72376   6.906   4.536   4.915
24045WAT     H172377   6.853   4.531   4.999
24045WAT     H272378   6.850   4.573   4.841
24046WAT      O72379   2.371   5.070   7.023
24046WAT     H172380   2.467   5.045   7.028
24046WAT     H272381   2.325   5.014   6.954
24047WAT      O72382   7.569   9.791   0.625
24047WAT     H172383   7.498   9.830   0.565
24047WAT     H272384   7.602   9.706   0.586
24048WAT      O72385   7.333   6.325   3.911
24048WAT     H172386   7.335   6.301   3.814
24048WAT     H272387   7.354   6.422   3.921
24049WAT      O72388   5.293   7.602   1.465
24049WAT     H172389   5.223   7.663   1.429
24049WAT     H272390   5.379   7.618   1.415
24050WAT      O72391   6.409   6.244   7.081
24050WAT     H172392   6.447   6.167   7.132
24050WAT     H272393   6.430   6.329   7.129
24051WAT      O72394   5.284   1.093   7.415
24051WAT     H172395   5.348   1.023   7.383
24051WAT     H272396   5.330   1.151   7.482
24052WAT      O72397   2.375   1.030   9.818
24052WAT     H172398   2.475   1.040   9.812
24052WAT     H272399   2.352   0.969   9.893
24053WAT      O72400   8.511   6.757   0.189
24053WAT     H172401   8.452   6.837   0.202
24053WAT     H272402   8.491   6.689   0.260
24054WAT      O72403   1.547   3.358   6.036
24054WAT     H172404   1.514   3.324   5.948
24054WAT     H272405   1.493   3.317   6.110
24055WAT      O72406   5.925   3.687   1.231
24055WAT     H172407   5.871   3.629   1.292
24055WAT     H272408   5.893   3.676   1.138
24056WAT      O72409   9.385   0.642   1.480
24056WAT     H172410   9.324   0.707   1.433
24056WAT     H272411   9.389   0.665   1.577
24057WAT      O72412   6.816   5.025   7.889
24057WAT     H172413   6.717   5.040   7.893
24057WAT     H272414   6.859   5.061   7.972
24058WAT      O72415   3.683   3.908   2.622
24058WAT     H172416   3.719   3.820   2.590
24058WAT     H272417   3.583   3.909   2.609
24059WAT      O72418   0.868   6.682   8.554
24059WAT     H172419   0.925   6.764   8.562
24059WAT     H272420   0.786   6.703   8.500
24060WAT      O72421   9.156   0.621   2.973
24060WAT     H172422   9.144   0.642   3.070
24060WAT     H272423   9.117   0.695   2.918
24061WAT      O72424   0.224   3.588   4.197
24061WAT     H172425   0.150   3.610   4.260
24061WAT     H272426   0.216   3.493   4.167
24062WAT      O72427   8.974   4.283   3.389
24062WAT     H172428   8.914   4.360   3.413
24062WAT     H272429   8.921   4.199   3.384
24063WAT      O72430   3.684   7.456   2.540
24063WAT     H172431   3.676   7.366   2.496
24063WAT     H272432   3.697   7.526   2.470
24064WAT      O72433   3.353   6.251   0.550
24064WAT     H172434   3.396   6.268   0.638
24064WAT     H272435   3.401   6.177   0.503
24065WAT      O72436   1.763   2.504   7.039
24065WAT     H172437   1.667   2.500   7.013
24065WAT     H272438   1.819   2.455   6.972
24066WAT      O72439   9.065   9.494   4.672
24066WAT     H172440   9.014   9.438   4.737
24066WAT     H272441   9.151   9.449   4.648
24067WAT      O72442   9.672   7.790   8.804
24067WAT     H172443   9.642   7.767   8.711
24067WAT     H272444   9.592   7.789   8.865
24068WAT      O72445   9.519   6.615   1.034
24068WAT     H172446   9.423   6.640   1.040
24068WAT     H272447   9.573   6.696   1.008
24069WAT      O72448   2.079   2.311   3.286
24069WAT     H172449   2.176   2.327   3.301
24069WAT     H272450   2.066   2.222   3.242
24070WAT      O72451   3.798   4.511   4.165
24070WAT     H172452   3.854   4.434   4.196
24070WAT     H272453   3.783   4.503   4.066
24071WAT      O72454   2.215   0.695   9.730
24071WAT     H172455   2.164   0.701   9.644
24071WAT     H272456   2.164   0.742   9.802
24072WAT      O72457   5.323   5.827   8.008
24072WAT     H172458   5.257   5.755   8.030
24072WAT     H272459   5.407   5.811   8.059
24073WAT      O72460   2.754   5.136   4.552
24073WAT     H172461   2.843   5.162   4.516
24073WAT     H272462   2.682   5.160   4.486
24074WAT      O72463   6.868   4.986   4.751
24074WAT     H172464   6.801   4.963   4.821
24074WAT     H272465   6.907   5.076   4.771
24075WAT      O72466   7.437   6.724   2.501
24075WAT     H172467   7.499   6.766   2.566
24075WAT     H272468   7.428   6.626   2.521
24076WAT      O72469   4.963   1.291   4.845
24076WAT     H172470   4.895   1.324   4.911
24076WAT     H272471   4.956   1.345   4.761
24077WAT      O72472   5.201   4.684   3.781
24077WAT     H172473   5.224   4.652   3.689
24077WAT     H272474   5.102   4.677   3.795
24078WAT      O72475   2.527   2.774   0.808
24078WAT     H172476   2.584   2.849   0.774
24078WAT     H272477   2.493   2.796   0.899
24079WAT      O72478   6.658   3.322   2.003
24079WAT     H172479   6.692   3.414   1.981
24079WAT     H272480   6.574   3.304   1.951
24080WAT      O72481   7.438   7.550   1.707
24080WAT     H172482   7.356   7.504   1.672
24080WAT     H272483   7.484   7.491   1.773
24081WAT      O72484   4.323   5.436   2.368
24081WAT     H172485   4.416   5.402   2.386
24081WAT     H272486   4.284   5.469   2.454
24082WAT      O72487   4.752   7.215   0.183
24082WAT     H172488   4.681   7.178   0.124
24082WAT     H272489   4.792   7.142   0.238
24083WAT      O72490   9.288   5.834   0.880
24083WAT     H172491   9.321   5.842   0.786
24083WAT     H272492   9.243   5.745   0.892
24084WAT      O72493   6.106   1.909   6.214
24084WAT     H172494   6.014   1.883   6.244
24084WAT     H272495   6.101   1.952   6.124
24085WAT      O72496   5.066   9.087   3.573
24085WAT     H172497   5.104   9.087   3.666
24085WAT     H272498   4.988   9.024   3.569
24086WAT      O72499   6.649   8.558   7.484
24086WAT     H172500   6.748   8.570   7.491
24086WAT     H272501   6.628   8.466   7.452
24087WAT      O72502   2.606   5.930   8.996
24087WAT     H172503   2.538   6.000   9.018
24087WAT     H272504   2.564   5.859   8.939
24088WAT      O72505   1.501   6.233   7.529
24088WAT     H172506   1.597   6.205   7.538
24088WAT     H272507   1.497   6.332   7.514
24089WAT      O72508   4.214   4.667   8.303
24089WAT     H172509   4.283   4.595   8.297
24089WAT     H272510   4.125   4.627   8.326
24090WAT      O72511   7.464   3.680   0.650
24090WAT     H172512   7.464   3.704   0.747
24090WAT     H272513   7.488   3.584   0.640
24091WAT      O72514   9.389   6.487   2.552
24091WAT     H172515   9.460   6.417   2.548
24091WAT     H272516   9.317   6.458   2.615
24092WAT      O72517   0.112   8.691   5.252
24092WAT     H172518   0.196   8.642   5.227
24092WAT     H272519   0.033   8.645   5.211
24093WAT      O72520   0.355   4.794   9.410
24093WAT     H172521   0.282   4.800   9.342
24093WAT     H272522   0.439   4.762   9.366
24094WAT      O72523   0.475   3.425   0.197
24094WAT     H172524   0.496   3.376   0.113
24094WAT     H272525   0.417   3.368   0.255
24095WAT      O72526   3.615   0.587   2.361
24095WAT     H172527   3.563   0.666   2.327
24095WAT     H272528   3.700   0.579   2.309
24096WAT      O72529   0.056   5.394   2.909
24096WAT     H172530   0.075   5.365   3.003
24096WAT     H272531  -0.011   5.332   2.868
24097WAT      O72532   3.604   3.028   0.084
24097WAT     H172533   3.571   3.041  -0.010
24097WAT     H272534   3.526   3.033   0.147
24098WAT      O72535   6.178   3.399   0.750
24098WAT     H172536   6.232   3.331   0.702
24098WAT     H272537   6.160   3.477   0.690
24099WAT      O72538   5.109   6.675   0.651
24099WAT     H172539   5.087   6.761   0.696
24099WAT     H272540   5.208   6.663   0.648
24100WAT      O72541   8.503   6.371   6.212
24100WAT     H172542   8.596   6.405   6.200
24100WAT     H272543   8.481   6.369   6.310
24101WAT      O72544   1.850   7.387   2.356
24101WAT     H172545   1.792   7.306   2.352
24101WAT     H272546   1.849   7.424   2.449
24102WAT      O72547   3.844   4.897   3.341
24102WAT     H172548   3.762   4.931   3.294
24102WAT     H272549   3.870   4.808   3.302
24103WAT      O72550   1.814   1.166   6.499
24103WAT     H172551   1.756   1.246   6.487
24103WAT     H272552   1.884   1.165   6.427
24104WAT      O72553   2.986   6.684   1.181
24104WAT     H172554   3.054   6.611   1.184
24104WAT     H272555   3.031   6.772   1.196
24105WAT      O72556   2.089   7.412   9.516
24105WAT     H172557   2.072   7.414   9.615
24105WAT     H272558   2.004   7.428   9.467
24106WAT      O72559   7.855   2.742   1.459
24106WAT     H172560   7.819   2.742   1.552
24106WAT     H272561   7.862   2.648   1.426
24107WAT      O72562   6.601   0.377   5.705
24107WAT     H172563   6.568   0.387   5.799
24107WAT     H272564   6.606   0.280   5.681
24108WAT      O72565   8.417   4.893   5.717
24108WAT     H172566   8.453   4.908   5.624
24108WAT     H272567   8.446   4.803   5.749
24109WAT      O72568   3.627   3.647   0.280
24109WAT     H172569   3.544   3.702   0.274
24109WAT     H272570   3.706   3.704   0.254
24110WAT      O72571   3.219   4.846   8.920
24110WAT     H172572   3.260   4.813   8.835
24110WAT     H272573   3.211   4.771   8.985
24111WAT      O72574   5.346   1.871   5.459
24111WAT     H172575   5.397   1.954   5.482
24111WAT     H272576   5.383   1.793   5.509
24112WAT      O72577   4.659   7.613   1.258
24112WAT     H172578   4.611   7.677   1.318
24112WAT     H272579   4.606   7.601   1.174
24113WAT      O72580   5.623   9.002   6.058
24113WAT     H172581   5.699   9.035   6.114
24113WAT     H272582   5.571   9.079   6.023
24114WAT      O72583   2.073   5.464   4.086
24114WAT     H172584   2.087   5.390   4.153
24114WAT     H272585   1.981   5.457   4.047
24115WAT      O72586   0.692   1.727   8.043
24115WAT     H172587   0.659   1.760   8.131
24115WAT     H272588   0.670   1.630   8.033
24116WAT      O72589   9.236   1.976   4.997
24116WAT     H172590   9.243   2.074   4.978
24116WAT     H272591   9.325   1.942   5.030
24117WAT      O72592   8.435   7.654   7.442
24117WAT     H172593   8.447   7.678   7.345
24117WAT     H272594   8.339   7.666   7.467
24118WAT      O72595   0.994   1.417   5.469
24118WAT     H172596   1.093   1.406   5.473
24118WAT     H272597   0.956   1.356   5.399
24119WAT      O72598   2.252   5.422   6.769
24119WAT     H172599   2.169   5.478   6.759
24119WAT     H272600   2.331   5.474   6.738
24120WAT      O72601   1.886   3.784   8.503
24120WAT     H172602   1.860   3.878   8.526
24120WAT     H272603   1.976   3.784   8.460
24121WAT      O72604   1.955   8.541   5.203
24121WAT     H172605   1.999   8.462   5.246
24121WAT     H272606   2.022   8.591   5.149
24122WAT      O72607   7.457   1.614   0.182
24122WAT     H172608   7.449   1.647   0.088
24122WAT     H272609   7.369   1.578   0.213
24123WAT      O72610   3.182   1.732   6.188
24123WAT     H172611   3.142   1.645   6.217
24123WAT     H272612   3.278   1.718   6.164
24124WAT      O72613   7.463   8.176   6.629
24124WAT     H172614   7.548   8.202   6.583
24124WAT     H272615   7.407   8.257   6.646
24125WAT      O72616   8.822   3.483   8.377
24125WAT     H172617   8.814   3.558   8.443
24125WAT     H272618   8.902   3.499   8.319
24126WAT      O72619   8.870   7.198   4.549
24126WAT     H172620   8.956   7.224   4.592
24126WAT     H272621   8.798   7.263   4.576
24127WAT      O72622   4.500   5.118   4.497
24127WAT     H172623   4.477   5.061   4.576
24127WAT     H272624   4.464   5.077   4.414
24128WAT      O72625   1.534   8.986   6.529
24128WAT     H172626   1.436   8.976   6.516
24128WAT     H272627   1.579   8.899   6.512
24129WAT      O72628   4.693   1.313   6.859
24129WAT     H172629   4.682   1.387   6.926
24129WAT     H272630   4.610   1.257   6.858
24130WAT      O72631   9.501   5.985   5.284
24130WAT     H172632   9.415   5.971   5.234
24130WAT     H272633   9.558   6.050   5.234
24131WAT      O72634   9.782   0.668   6.675
24131WAT     H172635   9.829   0.755   6.686
24131WAT     H272636   9.700   0.681   6.618
24132WAT      O72637   5.941   0.090   9.007
24132WAT     H172638   5.869   0.031   9.043
24132WAT     H272639   5.998   0.038   8.944
24133WAT      O72640   7.297   6.456   7.227
24133WAT     H172641   7.304   6.510   7.310
24133WAT     H272642   7.202   6.427   7.214
24134WAT      O72643   1.704   4.295   4.227
24134WAT     H172644   1.799   4.325   4.231
24134WAT     H272645   1.653   4.355   4.165
24135WAT      O72646   7.134   9.110   0.950
24135WAT     H172647   7.122   9.167   1.031
24135WAT     H272648   7.221   9.132   0.906
24136WAT      O72649   3.041   6.958   7.373
24136WAT     H172650   3.138   6.937   7.361
24136WAT     H272651   2.989   6.919   7.297
24137WAT      O72652   6.370   5.772   7.733
24137WAT     H172653   6.468   5.751   7.733
24137WAT     H272654   6.352   5.848   7.794
24138WAT      O72655   0.832   7.302   4.173
24138WAT     H172656   0.914   7.247   4.188
24138WAT     H272657   0.792   7.328   4.261
24139WAT      O72658   6.981   3.968   8.320
24139WAT     H172659   7.079   3.974   8.301
24139WAT     H272660   6.947   4.059   8.346
24140WAT      O72661   2.034   3.978   2.284
24140WAT     H172662   2.065   4.038   2.209
24140WAT     H272663   2.019   3.886   2.248
24141WAT      O72664   7.570   4.788   5.117
24141WAT     H172665   7.485   4.837   5.096
24141WAT     H272666   7.579   4.776   5.216
24142WAT      O72667   6.302   4.394   2.417
24142WAT     H172668   6.228   4.453   2.449
24142WAT     H272669   6.264   4.310   2.378
24143WAT      O72670   9.671   9.608   3.266
24143WAT     H172671   9.593   9.668   3.287
24143WAT     H272672   9.729   9.652   3.198
24144WAT      O72673   0.789   1.722   6.961
24144WAT     H172674   0.835   1.802   6.922
24144WAT     H272675   0.798   1.724   7.061
24145WAT      O72676   2.808   9.404   1.913
24145WAT     H172677   2.905   9.423   1.929
24145WAT     H272678   2.755   9.489   1.917
24146WAT      O72679   2.613   3.279   4.483
24146WAT     H172680   2.528   3.237   4.515
24146WAT     H272681   2.596   3.376   4.463
24147WAT      O72682   3.447   4.360   5.921
24147WAT     H172683   3.414   4.297   5.992
24147WAT     H272684   3.368   4.397   5.871
24148WAT      O72685   2.435   3.170   4.793
24148WAT     H172686   2.438   3.108   4.872
24148WAT     H272687   2.521   3.222   4.789
24149WAT      O72688   5.915   5.083   7.402
24149WAT     H172689   5.859   5.152   7.357
24149WAT     H272690   5.924   5.003   7.343
24150WAT      O72691   9.774   4.185   1.606
24150WAT     H172692   9.719   4.239   1.542
24150WAT     H272693   9.833   4.122   1.554
24151WAT      O72694   2.121   7.207   6.479
24151WAT     H172695   2.204   7.262   6.468
24151WAT     H272696   2.124   7.130   6.416
24152WAT      O72697   2.242   9.513   8.238
24152WAT     H172698   2.180   9.435   8.239
24152WAT     H272699   2.201   9.589   8.289
24153WAT      O72700   5.224   4.607   6.480
24153WAT     H172701   5.196   4.700   6.454
24153WAT     H272702   5.279   4.567   6.407
24154WAT      O72703   7.952   2.377   4.607
24154WAT     H172704   7.998   2.403   4.692
24154WAT     H272705   7.879   2.443   4.588
24155WAT      O72706   3.813   4.582   2.849
24155WAT     H172707   3.895   4.630   2.880
24155WAT     H272708   3.738   4.599   2.912
24156WAT      O72709   3.499   0.759   8.441
24156WAT     H172710   3.403   0.768   8.470
24156WAT     H272711   3.556   0.821   8.495
24157WAT      O72712   8.889   3.254   3.404
24157WAT     H172713   8.860   3.248   3.309
24157WAT     H272714   8.815   3.222   3.463
24158WAT      O72715   8.482   8.521   3.579
24158WAT     H172716   8.437   8.607   3.554
24158WAT     H272717   8.505   8.523   3.676
24159WAT      O72718   4.069   8.219   2.682
24159WAT     H172719   4.016   8.230   2.766
24159WAT     H272720   4.093   8.310   2.645
24160WAT      O72721   9.539   4.537   8.962
24160WAT     H172722   9.525   4.632   8.989
24160WAT     H272723   9.451   4.495   8.941
24161WAT      O72724   2.495   1.757   9.836
24161WAT     H172725   2.587   1.722   9.854
24161WAT     H272726   2.491   1.853   9.865
24162WAT      O72727   5.812   8.050   8.436
24162WAT     H172728   5.898   8.077   8.479
24162WAT     H272729   5.810   7.951   8.424
24163WAT      O72730   3.392   4.255   2.362
24163WAT     H172731   3.300   4.232   2.392
24163WAT     H272732   3.443   4.295   2.438
24164WAT      O72733   8.787   1.826   6.182
24164WAT     H172734   8.800   1.780   6.094
24164WAT     H272735   8.692   1.857   6.188
24165WAT      O72736   6.824   2.324   8.459
24165WAT     H172737   6.736   2.286   8.432
24165WAT     H272738   6.817   2.362   8.552
24166WAT      O72739   7.837   4.028   4.607
24166WAT     H172740   7.760   4.060   4.662
24166WAT     H272741   7.922   4.070   4.640
24167WAT      O72742   6.075   5.302   4.853
24167WAT     H172743   6.054   5.207   4.832
24167WAT     H272744   6.052   5.360   4.776
24168WAT      O72745   3.464   6.876   9.067
24168WAT     H172746   3.475   6.939   8.990
24168WAT     H272747   3.541   6.813   9.070
24169WAT      O72748   2.331   8.843   2.229
24169WAT     H172749   2.291   8.768   2.176
24169WAT     H272750   2.334   8.817   2.326
24170WAT      O72751   3.564   3.733   1.621
24170WAT     H172752   3.529   3.764   1.709
24170WAT     H272753   3.497   3.672   1.578
24171WAT      O72754   6.711   1.585   3.745
24171WAT     H172755   6.678   1.627   3.661
24171WAT     H272756   6.684   1.489   3.748
24172WAT      O72757   5.723   3.697   4.389
24172WAT     H172758   5.673   3.611   4.392
24172WAT     H272759   5.735   3.732   4.482
24173WAT      O72760   0.078   6.382   2.077
24173WAT     H172761   0.145   6.456   2.073
24173WAT     H272762   0.120   6.301   2.119
24174WAT      O72763   0.223   3.107   9.648
24174WAT     H172764   0.281   3.086   9.728
24174WAT     H272765   0.274   3.164   9.584
24175WAT      O72766   6.793   4.541   6.723
24175WAT     H172767   6.863   4.471   6.710
24175WAT     H272768   6.703   4.498   6.729
24176WAT      O72769   4.399   9.800   0.516
24176WAT     H172770   4.445   9.878   0.475
24176WAT     H272771   4.404   9.807   0.615
24177WAT      O72772   7.092   5.179   3.898
24177WAT     H172773   7.168   5.212   3.842
24177WAT     H272774   7.006   5.191   3.849
24178WAT      O72775   8.681   6.548   4.140
24178WAT     H172776   8.777   6.555   4.167
24178WAT     H272777   8.632   6.495   4.209
24179WAT      O72778   8.916   8.820   0.877
24179WAT     H172779   8.953   8.890   0.816
24179WAT     H272780   8.931   8.848   0.972
24180WAT      O72781   7.055   6.644   1.571
24180WAT     H172782   7.011   6.587   1.502
24180WAT     H272783   7.061   6.593   1.657
24181WAT      O72784   7.290   7.311   2.442
24181WAT     H172785   7.349   7.230   2.445
24181WAT     H272786   7.340   7.390   2.476
24182WAT      O72787   8.580   0.200   8.318
24182WAT     H172788   8.480   0.201   8.315
24182WAT     H272789   8.611   0.238   8.405
24183WAT      O72790   9.698   3.031   4.078
24183WAT     H172791   9.654   3.088   4.009
24183WAT     H272792   9.764   2.970   4.033
24184WAT      O72793   1.296   0.614   6.222
24184WAT     H172794   1.377   0.557   6.234
24184WAT     H272795   1.270   0.654   6.310
24185WAT      O72796   3.487   3.058   2.148
24185WAT     H172797   3.557   3.129   2.157
24185WAT     H272798   3.488   3.021   2.055
24186WAT      O72799   3.698   7.867   4.549
24186WAT     H172800   3.734   7.806   4.479
24186WAT     H272801   3.701   7.962   4.516
24187WAT      O72802   6.351   5.338   8.023
24187WAT     H172803   6.336   5.349   8.121
24187WAT     H272804   6.414   5.262   8.007
24188WAT      O72805   4.935   8.986   3.187
24188WAT     H172806   4.902   8.893   3.205
24188WAT     H272807   4.860   9.051   3.199
24189WAT      O72808   4.539   0.571   6.055
24189WAT     H172809   4.480   0.622   5.993
24189WAT     H272810   4.484   0.506   6.107
24190WAT      O72811   8.643   0.767   7.156
24190WAT     H172812   8.571   0.834   7.174
24190WAT     H272813   8.637   0.694   7.224
24191WAT      O72814   3.182   9.140   0.612
24191WAT     H172815   3.244   9.071   0.650
24191WAT     H272816   3.220   9.174   0.526
24192WAT      O72817   6.438   4.545   9.684
24192WAT     H172818   6.349   4.499   9.681
24192WAT     H272819   6.468   4.564   9.590
24193WAT      O72820   7.125   5.184   0.477
24193WAT     H172821   7.048   5.247   0.482
24193WAT     H272822   7.108   5.105   0.535
24194WAT      O72823   3.643   3.393   7.801
24194WAT     H172824   3.625   3.297   7.821
24194WAT     H272825   3.704   3.431   7.871
24195WAT      O72826   5.690   0.910   5.995
24195WAT     H172827   5.604   0.881   5.954
24195WAT     H272828   5.746   0.955   5.926
24196WAT      O72829   8.787   3.218   3.146
24196WAT     H172830   8.690   3.201   3.168
24196WAT     H272831   8.826   3.135   3.105
24197WAT      O72832   2.553   8.107   6.594
24197WAT     H172833   2.462   8.069   6.578
24197WAT     H272834   2.623   8.040   6.567
24198WAT      O72835   0.020   1.477   7.764
24198WAT     H172836   0.026   1.442   7.857
24198WAT     H272837  -0.007   1.573   7.766
24199WAT      O72838   0.916   2.348   8.257
24199WAT     H172839   1.011   2.324   8.279
24199WAT     H272840   0.915   2.433   8.205
24200WAT      O72841   8.800   3.815   4.410
24200WAT     H172842   8.877   3.840   4.352
24200WAT     H272843   8.781   3.717   4.399
24201WAT      O72844   3.025   3.331   4.975
24201WAT     H172845   2.960   3.406   4.985
24201WAT     H272846   3.113   3.357   5.015
24202WAT      O72847   0.871   0.159   4.017
24202WAT     H172848   0.781   0.201   4.031
24202WAT     H272849   0.891   0.155   3.919
24203WAT      O72850   2.080   5.660   8.517
24203WAT     H172851   2.032   5.702   8.594
24203WAT     H272852   2.028   5.582   8.483
24204WAT      O72853   8.369   3.084   9.599
24204WAT     H172854   8.380   3.153   9.671
24204WAT     H272855   8.343   2.997   9.641
24205WAT      O72856   6.119   6.739   5.925
24205WAT     H172857   6.131   6.827   5.971
24205WAT     H272858   6.208   6.695   5.914
24206WAT      O72859   9.180   4.231   8.659
24206WAT     H172860   9.175   4.330   8.670
24206WAT     H272861   9.095   4.197   8.618
24207WAT      O72862   6.212   9.834   1.897
24207WAT     H172863   6.239   9.893   1.820
24207WAT     H272864   6.204   9.740   1.865
24208WAT      O72865   3.050   3.797   9.193
24208WAT     H172866   3.121   3.816   9.260
24208WAT     H272867   3.071   3.844   9.107
24209WAT      O72868   2.204   4.704   9.762
24209WAT     H172869   2.116   4.720   9.808
24209WAT     H272870   2.270   4.670   9.828
24210WAT      O72871   8.017   5.870   0.909
24210WAT     H172872   7.959   5.870   0.991
24210WAT     H272873   7.959   5.879   0.828
24211WAT      O72874   2.420   8.843   8.834
24211WAT     H172875   2.349   8.829   8.765
24211WAT     H272876   2.380   8.835   8.925
24212WAT      O72877   7.594   4.867   9.375
24212WAT     H172878   7.499   4.860   9.344
24212WAT     H272879   7.653   4.813   9.315
24213WAT      O72880   2.724   3.231   5.601
24213WAT     H172881   2.741   3.134   5.585
24213WAT     H272882   2.651   3.242   5.669
24214WAT      O72883   6.147   2.571   2.022
24214WAT     H172884   6.099   2.641   2.076
24214WAT     H272885   6.081   2.504   1.990
24215WAT      O72886   0.908   0.287   5.687
24215WAT     H172887   0.815   0.321   5.698
24215WAT     H272888   0.958   0.346   5.624
24216WAT      O72889   8.172   2.285   8.806
24216WAT     H172890   8.160   2.247   8.898
24216WAT     H272891   8.264   2.263   8.773
24217WAT      O72892   1.576   8.912   1.849
24217WAT     H172893   1.532   8.993   1.811
24217WAT     H272894   1.508   8.857   1.897
24218WAT      O72895   9.151   2.147   4.661
24218WAT     H172896   9.169   2.125   4.565
24218WAT     H272897   9.069   2.098   4.692
24219WAT      O72898   9.537   9.192   2.038
24219WAT     H172899   9.510   9.099   2.065
24219WAT     H272900   9.601   9.229   2.105
24220WAT      O72901   5.373   5.799   4.469
24220WAT     H172902   5.347   5.792   4.372
24220WAT     H272903   5.347   5.715   4.516
24221WAT      O72904   8.558   6.902   3.724
24221WAT     H172905   8.571   6.886   3.821
24221WAT     H272906   8.641   6.940   3.684
24222WAT      O72907   2.464   2.686   9.274
24222WAT     H172908   2.372   2.658   9.302
24222WAT     H272909   2.471   2.785   9.278
24223WAT      O72910   5.730   3.607   4.837
24223WAT     H172911   5.631   3.621   4.841
24223WAT     H272912   5.766   3.605   4.930
24224WAT      O72913   5.536   5.665   8.798
24224WAT     H172914   5.559   5.578   8.840
24224WAT     H272915   5.504   5.728   8.869
24225WAT      O72916   3.310   0.064   6.151
24225WAT     H172917   3.271   0.048   6.242
24225WAT     H272918   3.296   0.159   6.125
24226WAT      O72919   7.395   4.134   1.206
24226WAT     H172920   7.330   4.208   1.226
24226WAT     H272921   7.416   4.134   1.109
24227WAT      O72922   8.710   7.502   2.262
24227WAT     H172923   8.664   7.503   2.351
24227WAT     H272924   8.669   7.431   2.204
24228WAT      O72925   2.359   9.164   1.041
24228WAT     H172926   2.380   9.244   1.098
24228WAT     H272927   2.408   9.085   1.077
24229WAT      O72928   0.422   8.476   9.379
24229WAT     H172929   0.412   8.403   9.311
24229WAT     H272930   0.419   8.435   9.471
24230WAT      O72931   5.152   6.912   5.375
24230WAT     H172932   5.219   6.965   5.426
24230WAT     H272933   5.140   6.952   5.284
24231WAT      O72934   6.908   1.260   5.305
24231WAT     H172935   6.838   1.310   5.356
24231WAT     H272936   6.866   1.218   5.224
24232WAT      O72937   9.247   8.082   8.077
24232WAT     H172938   9.247   8.154   8.147
24232WAT     H272939   9.275   7.995   8.119
24233WAT      O72940   8.229   2.886   8.648
24233WAT     H172941   8.272   2.941   8.577
24233WAT     H272942   8.159   2.939   8.695
24234WAT      O72943   5.315   3.346   2.284
24234WAT     H172944   5.383   3.347   2.357
24234WAT     H272945   5.358   3.369   2.197
24235WAT      O72946   9.357   5.280   5.785
24235WAT     H172947   9.407   5.220   5.722
24235WAT     H272948   9.263   5.248   5.795
24236WAT      O72949   4.383   7.571   8.773
24236WAT     H172950   4.287   7.596   8.763
24236WAT     H272951   4.424   7.627   8.845
24237WAT      O72952   4.009   9.563   2.500
24237WAT     H172953   4.027   9.499   2.575
24237WAT     H272954   4.033   9.521   2.413
24238WAT      O72955   3.033   2.906   7.566
24238WAT     H172956   3.009   2.908   7.469
24238WAT     H272957   3.015   2.995   7.607
24239WAT      O72958   8.860   6.524   6.423
24239WAT     H172959   8.794   6.494   6.492
24239WAT     H272960   8.831   6.494   6.332
24240WAT      O72961   5.384   8.839   6.174
24240WAT     H172962   5.452   8.883   6.115
24240WAT     H272963   5.430   8.773   6.234
24241WAT      O72964   6.523   0.206   3.276
24241WAT     H172965   6.427   0.204   3.248
24241WAT     H272966   6.532   0.169   3.368
24242WAT      O72967   1.306   4.628   0.752
24242WAT     H172968   1.282   4.567   0.677
24242WAT     H272969   1.373   4.695   0.721
24243WAT      O72970   0.462   7.121   1.480
24243WAT     H172971   0.440   7.178   1.560
24243WAT     H272972   0.526   7.170   1.422
24244WAT      O72973   1.205   6.304   4.614
24244WAT     H172974   1.250   6.247   4.545
24244WAT     H272975   1.217   6.400   4.591
24245WAT      O72976   6.742   0.048   2.709
24245WAT     H172977   6.742   0.042   2.809
24245WAT     H272978   6.670  -0.010   2.672
24246WAT      O72979   8.749   6.127   2.888
24246WAT     H172980   8.803   6.057   2.935
24246WAT     H272981   8.793   6.216   2.899
24247WAT      O72982   7.329   4.046   5.663
24247WAT     H172983   7.318   4.114   5.736
24247WAT     H272984   7.292   4.082   5.578
24248WAT      O72985   3.487   7.833   9.342
24248WAT     H172986   3.446   7.774   9.273
24248WAT     H272987   3.424   7.844   9.419
24249WAT      O72988   3.322   3.088   6.227
24249WAT     H172989   3.358   3.164   6.173
24249WAT     H272990   3.340   3.105   6.324
24250WAT      O72991   8.333   5.725   6.410
24250WAT     H172992   8.325   5.822   6.432
24250WAT     H272993   8.250   5.695   6.363
24251WAT      O72994   6.234   8.830   3.184
24251WAT     H172995   6.230   8.731   3.171
24251WAT     H272996   6.150   8.861   3.229
24252WAT      O72997   7.680   0.811   2.420
24252WAT     H172998   7.749   0.778   2.355
24252WAT     H272999   7.611   0.864   2.371
24253WAT      O73000   5.988   9.826   3.063
24253WAT     H173001   5.975   9.727   3.072
24253WAT     H273002   5.934   9.860   2.986
24254WAT      O73003   2.038   3.266   4.759
24254WAT     H173004   1.998   3.221   4.679
24254WAT     H273005   2.095   3.201   4.809
24255WAT      O73006   7.719   4.602   7.819
24255WAT     H173007   7.737   4.690   7.864
24255WAT     H273008   7.805   4.562   7.789
24256WAT      O73009   9.210   4.039   0.342
24256WAT     H173010   9.194   4.131   0.309
24256WAT     H273011   9.218   3.976   0.264
24257WAT      O73012   2.854   2.717   8.073
24257WAT     H173013   2.792   2.785   8.112
24257WAT     H273014   2.910   2.760   8.001
24258WAT      O73015   8.336   4.640   5.071
24258WAT     H173016   8.416   4.655   5.012
24258WAT     H273017   8.260   4.696   5.038
24259WAT      O73018   2.882   1.058   4.398
24259WAT     H173019   2.965   1.093   4.441
24259WAT     H273020   2.821   1.023   4.469
24260WAT      O73021   4.644   9.494   2.188
24260WAT     H173022   4.581   9.494   2.266
24260WAT     H273023   4.628   9.412   2.133
24261WAT      O73024   1.192   0.613   9.404
24261WAT     H173025   1.259   0.666   9.353
24261WAT     H273026   1.100   0.636   9.373
24262WAT      O73027   6.187   9.422   6.243
24262WAT     H173028   6.143   9.445   6.330
24262WAT     H273029   6.166   9.493   6.176
24263WAT      O73030   2.726   8.448   6.216
24263WAT     H173031   2.806   8.425   6.161
24263WAT     H273032   2.688   8.365   6.257
24264WAT      O73033   6.292   6.181   4.005
24264WAT     H173034   6.214   6.172   3.944
24264WAT     H273035   6.319   6.091   4.039
24265WAT      O73036   5.933   0.622   9.078
24265WAT     H173037   5.850   0.580   9.115
24265WAT     H273038   5.963   0.573   8.996
24266WAT      O73039   3.722   8.191   6.898
24266WAT     H173040   3.794   8.244   6.944
24266WAT     H273041   3.644   8.251   6.880
24267WAT      O73042   8.961   1.117   7.805
24267WAT     H173043   8.965   1.216   7.822
24267WAT     H273044   8.898   1.075   7.871
24268WAT      O73045   9.083   2.626   8.786
24268WAT     H173046   8.994   2.594   8.753
24268WAT     H273047   9.070   2.694   8.858
24269WAT      O73048   0.355   9.750   1.474
24269WAT     H173049   0.337   9.846   1.451
24269WAT     H273050   0.429   9.715   1.416
24270WAT      O73051   1.977   0.204   2.404
24270WAT     H173052   2.053   0.217   2.340
24270WAT     H273053   1.940   0.111   2.393
24271WAT      O73054   0.557   9.334   4.987
24271WAT     H173055   0.495   9.276   4.934
24271WAT     H273056   0.633   9.362   4.930
24272WAT      O73057   5.003   6.730   1.415
24272WAT     H173058   4.934   6.752   1.345
24272WAT     H273059   5.030   6.813   1.462
24273WAT      O73060   4.030   2.355   6.100
24273WAT     H173061   3.965   2.350   6.176
24273WAT     H273062   3.985   2.324   6.016
24274WAT      O73063   8.974   7.501   2.213
24274WAT     H173064   9.034   7.579   2.229
24274WAT     H273065   8.881   7.524   2.245
24275WAT      O73066   2.609   6.204   6.857
24275WAT     H173067   2.701   6.191   6.820
24275WAT     H273068   2.615   6.260   6.940
24276WAT      O73069   6.355   0.666   8.673
24276WAT     H173070   6.300   0.591   8.708
24276WAT     H273071   6.379   0.647   8.578
24277WAT      O73072   4.130   8.315   6.531
24277WAT     H173073   4.158   8.411   6.532
24277WAT     H273074   4.154   8.274   6.444
24278WAT      O73075   2.698   8.646   6.408
24278WAT     H173076   2.755   8.728   6.411
24278WAT     H273077   2.721   8.592   6.327
24279WAT      O73078   6.461   8.160   0.607
24279WAT     H173079   6.407   8.243   0.619
24279WAT     H273080   6.535   8.158   0.675
24280WAT      O73081   1.777   7.195   5.080
24280WAT     H173082   1.854   7.188   5.143
24280WAT     H273083   1.739   7.103   5.063
24281WAT      O73084   2.601   3.712   4.975
24281WAT     H173085   2.614   3.809   4.997
24281WAT     H273086   2.570   3.663   5.056
24282WAT      O73087   8.221   6.223   5.398
24282WAT     H173088   8.316   6.198   5.379
24282WAT     H273089   8.218   6.317   5.433
24283WAT      O73090   8.396   2.129   7.213
24283WAT     H173091   8.454   2.116   7.293
24283WAT     H273092   8.438   2.085   7.133
24284WAT      O73093   7.337   8.297   2.978
24284WAT     H173094   7.253   8.243   2.973
24284WAT     H273095   7.375   8.291   3.071
24285WAT      O73096   1.799   2.308   2.098
24285WAT     H173097   1.781   2.221   2.053
24285WAT     H273098   1.888   2.343   2.068
24286WAT      O73099   6.535   0.236   9.471
24286WAT     H173100   6.489   0.158   9.512
24286WAT     H273101   6.630   0.240   9.504
24287WAT      O73102   9.325   0.613   9.658
24287WAT     H173103   9.259   0.564   9.716
24287WAT     H273104   9.416   0.576   9.674
24288WAT      O73105   9.335   6.734   3.316
24288WAT     H173106   9.272   6.791   3.367
24288WAT     H273107   9.392   6.791   3.257
24289WAT      O73108   2.172   6.931   5.899
24289WAT     H173109   2.072   6.935   5.906
24289WAT     H273110   2.199   6.843   5.858
24290WAT      O73111   2.091   2.160   7.292
24290WAT     H173112   2.051   2.192   7.206
24290WAT     H273113   2.144   2.077   7.274
24291WAT      O73114   2.849   2.286   7.675
24291WAT     H173115   2.881   2.357   7.739
24291WAT     H273116   2.792   2.328   7.604
24292WAT      O73117   7.007   5.335   6.585
24292WAT     H173118   6.930   5.329   6.648
24292WAT     H273119   7.084   5.282   6.620
24293WAT      O73120   2.813   7.390   2.146
24293WAT     H173121   2.827   7.337   2.230
24293WAT     H273122   2.732   7.449   2.156
24294WAT      O73123   4.804   2.179   8.699
24294WAT     H173124   4.870   2.254   8.691
24294WAT     H273125   4.721   2.203   8.648
24295WAT      O73126   4.879   3.664   3.756
24295WAT     H173127   4.886   3.714   3.842
24295WAT     H273128   4.782   3.653   3.731
24296WAT      O73129   8.193   6.406   3.298
24296WAT     H173130   8.255   6.429   3.374
24296WAT     H273131   8.228   6.326   3.250
24297WAT      O73132   6.855   5.455   6.375
24297WAT     H173133   6.905   5.465   6.289
24297WAT     H273134   6.911   5.400   6.438
24298WAT      O73135   1.599   8.179   1.285
24298WAT     H173136   1.587   8.201   1.381
24298WAT     H273137   1.676   8.117   1.274
24299WAT      O73138   5.383   1.547   7.397
24299WAT     H173139   5.379   1.615   7.324
24299WAT     H273140   5.398   1.456   7.359
24300WAT      O73141   8.762   5.522   8.741
24300WAT     H173142   8.685   5.461   8.725
24300WAT     H273143   8.729   5.616   8.746
24301WAT      O73144   3.034   9.463   9.859
24301WAT     H173145   3.064   9.377   9.818
24301WAT     H273146   2.984   9.444   9.944
24302WAT      O73147   9.878   3.412   2.533
24302WAT     H173148   9.891   3.315   2.512
24302WAT     H273149   9.843   3.458   2.452
24303WAT      O73150   5.674   7.965   4.725
24303WAT     H173151   5.703   7.914   4.805
24303WAT     H273152   5.727   8.049   4.718
24304WAT      O73153   2.244   4.304   0.889
24304WAT     H173154   2.295   4.374   0.939
24304WAT     H273155   2.259   4.316   0.790
24305WAT      O73156   2.606   2.058   3.862
24305WAT     H173157   2.654   2.145   3.875
24305WAT     H273158   2.615   2.029   3.767
24306WAT      O73159   7.605   9.081   5.769
24306WAT     H173160   7.522   9.091   5.715
24306WAT     H273161   7.580   9.077   5.866
24307WAT      O73162   6.508   5.102   7.424
24307WAT     H173163   6.567   5.176   7.455
24307WAT     H273164   6.563   5.022   7.400
24308WAT      O73165   2.189   8.872   2.595
24308WAT     H173166   2.185   8.812   2.515
24308WAT     H273167   2.244   8.953   2.573
24309WAT      O73168   2.229   8.137   6.662
24309WAT     H173169   2.259   8.222   6.707
24309WAT     H273170   2.129   8.136   6.657
24310WAT      O73171   2.370   9.663   4.454
24310WAT     H173172   2.342   9.627   4.365
24310WAT     H273173   2.461   9.705   4.446
24311WAT      O73174   3.770   8.855   2.496
24311WAT     H173175   3.705   8.907   2.441
24311WAT     H273176   3.783   8.764   2.456
24312WAT      O73177   9.310   6.641   6.568
24312WAT     H173178   9.370   6.574   6.524
24312WAT     H273179   9.223   6.645   6.519
24313WAT      O73180   9.781   8.063   5.477
24313WAT     H173181   9.824   8.036   5.563
24313WAT     H273182   9.682   8.074   5.491
24314WAT      O73183   1.120   4.055   5.578
24314WAT     H173184   1.112   4.072   5.676
24314WAT     H273185   1.189   4.116   5.538
24315WAT      O73186   5.647   6.231   0.015
24315WAT     H173187   5.595   6.159   0.060
24315WAT     H273188   5.744   6.222   0.039
24316WAT      O73189   5.348   6.211   8.403
24316WAT     H173190   5.388   6.155   8.475
24316WAT     H273191   5.373   6.174   8.314
24317WAT      O73192   1.682   0.330   1.844
24317WAT     H173193   1.628   0.354   1.924
24317WAT     H273194   1.754   0.398   1.830
24318WAT      O73195   0.610   9.173   6.359
24318WAT     H173196   0.576   9.261   6.328
24318WAT     H273197   0.683   9.142   6.298
24319WAT      O73198   9.492   7.807   2.617
24319WAT     H173199   9.436   7.842   2.692
24319WAT     H273200   9.578   7.859   2.613
24320WAT      O73201   5.242   4.917   3.224
24320WAT     H173202   5.248   4.904   3.323
24320WAT     H273203   5.325   4.962   3.192
24321WAT      O73204   0.785   2.500   2.589
24321WAT     H173205   0.826   2.409   2.599
24321WAT     H273206   0.837   2.553   2.523
24322WAT      O73207   4.724   9.486   0.855
24322WAT     H173208   4.801   9.534   0.897
24322WAT     H273209   4.730   9.495   0.756
24323WAT      O73210   7.047   2.198   1.207
24323WAT     H173211   7.004   2.284   1.233
24323WAT     H273212   7.061   2.196   1.108
24324WAT      O73213   9.556   8.955   5.276
24324WAT     H173214   9.584   8.867   5.313
24324WAT     H273215   9.509   8.941   5.189
24325WAT      O73216   0.278   3.324   2.232
24325WAT     H173217   0.189   3.303   2.192
24325WAT     H273218   0.296   3.262   2.308
24326WAT      O73219   3.941   0.885   1.530
24326WAT     H173220   4.019   0.893   1.468
24326WAT     H273221   3.856   0.894   1.478
24327WAT      O73222   8.136   8.378   2.544
24327WAT     H173223   8.090   8.349   2.460
24327WAT     H273224   8.145   8.477   2.545
24328WAT      O73225   8.186   5.114   8.927
24328WAT     H173226   8.130   5.197   8.916
24328WAT     H273227   8.165   5.050   8.854
24329WAT      O73228   3.079   0.936   0.245
24329WAT     H173229   3.055   0.944   0.342
24329WAT     H273230   2.996   0.939   0.189
24330WAT      O73231   4.101   6.299   8.932
24330WAT     H173232   4.197   6.282   8.908
24330WAT     H273233   4.096   6.369   9.003
24331WAT      O73234   8.914   0.059   0.078
24331WAT     H173235   8.977   0.132   0.052
24331WAT     H273236   8.854   0.092   0.151
24332WAT      O73237   2.034   3.518   1.841
24332WAT     H173238   2.098   3.594   1.831
24332WAT     H273239   2.045   3.477   1.932
24333WAT      O73240   7.846   8.162   5.880
24333WAT     H173241   7.925   8.119   5.836
24333WAT     H273242   7.788   8.092   5.921
24334WAT      O73243   3.523   0.689   0.036
24334WAT     H173244   3.513   0.617  -0.033
24334WAT     H273245   3.548   0.775  -0.009
24335WAT      O73246   5.717   7.392   1.236
24335WAT     H173247   5.805   7.360   1.200
24335WAT     H273248   5.662   7.313   1.263
24336WAT      O73249   1.366   2.988   8.278
24336WAT     H173250   1.314   2.985   8.364
24336WAT     H273251   1.344   2.907   8.223
24337WAT      O73252   1.280   7.485   4.041
24337WAT     H173253   1.349   7.414   4.054
24337WAT     H273254   1.261   7.530   4.128
24338WAT      O73255   4.584   0.634   2.767
24338WAT     H173256   4.624   0.587   2.689
24338WAT     H273257   4.512   0.578   2.807
24339WAT      O73258   8.136   8.089   8.815
24339WAT     H173259   8.104   8.024   8.884
24339WAT     H273260   8.071   8.091   8.739
24340WAT      O73261   2.416   0.865   5.829
24340WAT     H173262   2.317   0.854   5.820
24340WAT     H273263   2.450   0.926   5.757
24341WAT      O73264   9.704   2.457   6.411
24341WAT     H173265   9.757   2.372   6.415
24341WAT     H273266   9.608   2.435   6.391
24342WAT      O73267   3.384   2.498   3.961
24342WAT     H173268   3.464   2.471   3.907
24342WAT     H273269   3.320   2.422   3.967
24343WAT      O73270   1.925   2.756   2.861
24343WAT     H173271   1.933   2.669   2.910
24343WAT     H273272   1.871   2.820   2.914
24344WAT      O73273   6.197   4.334   8.591
24344WAT     H173274   6.152   4.253   8.630
24344WAT     H273275   6.275   4.359   8.649
24345WAT      O73276   3.234   9.121   7.548
24345WAT     H173277   3.154   9.069   7.518
24345WAT     H273278   3.219   9.156   7.640
24346WAT      O73279   5.545   2.617   2.725
24346WAT     H173280   5.566   2.712   2.701
24346WAT     H273281   5.611   2.585   2.793
24347WAT      O73282   7.765   2.810   4.035
24347WAT     H173283   7.849   2.859   4.061
24347WAT     H273284   7.787   2.714   4.020
24348WAT      O73285   7.828   2.147   4.536
24348WAT     H173286   7.898   2.215   4.556
24348WAT     H273287   7.766   2.139   4.614
24349WAT      O73288   1.159   1.503   8.947
24349WAT     H173289   1.142   1.469   9.039
24349WAT     H273290   1.165   1.426   8.883
24350WAT      O73291   3.088   9.242   1.595
24350WAT     H173292   2.989   9.242   1.579
24350WAT     H273293   3.120   9.147   1.601
24351WAT      O73294   5.103   8.389   6.589
24351WAT     H173295   5.159   8.397   6.506
24351WAT     H273296   5.068   8.480   6.614
24352WAT      O73297   5.385   0.886   6.318
24352WAT     H173298   5.390   0.927   6.409
24352WAT     H273299   5.316   0.814   6.318
24353WAT      O73300   3.171   9.232   5.336
24353WAT     H173301   3.158   9.281   5.422
24353WAT     H273302   3.119   9.277   5.264
24354WAT      O73303   7.802   7.250   6.430
24354WAT     H173304   7.743   7.259   6.510
24354WAT     H273305   7.846   7.161   6.431
24355WAT      O73306   0.113   4.275   4.414
24355WAT     H173307   0.061   4.355   4.441
24355WAT     H273308   0.072   4.193   4.453
24356WAT      O73309   1.806   5.217   9.444
24356WAT     H173310   1.896   5.253   9.419
24356WAT     H273311   1.800   5.209   9.544
24357WAT      O73312   9.227   3.614   8.182
24357WAT     H173313   9.290   3.617   8.260
24357WAT     H273314   9.250   3.536   8.124
24358WAT      O73315   0.163   8.396   6.624
24358WAT     H173316   0.135   8.403   6.528
24358WAT     H273317   0.122   8.471   6.676
24359WAT      O73318   0.135   7.979   7.810
24359WAT     H173319   0.175   7.890   7.786
24359WAT     H273320   0.177   8.013   7.894
24360WAT      O73321   9.421   6.279   5.732
24360WAT     H173322   9.454   6.373   5.728
24360WAT     H273323   9.380   6.254   5.645
24361WAT      O73324   9.485   1.672   2.460
24361WAT     H173325   9.396   1.679   2.505
24361WAT     H273326   9.514   1.576   2.460
24362WAT      O73327   6.225   7.043   1.480
24362WAT     H173328   6.242   6.947   1.458
24362WAT     H273329   6.136   7.051   1.524
24363WAT      O73330   1.930   7.780   0.647
24363WAT     H173331   1.893   7.774   0.740
24363WAT     H273332   1.978   7.867   0.636
24364WAT      O73333   6.243   4.388   7.334
24364WAT     H173334   6.259   4.407   7.431
24364WAT     H273335   6.312   4.323   7.301
24365WAT      O73336   6.578   7.183   3.797
24365WAT     H173337   6.575   7.113   3.726
24365WAT     H273338   6.645   7.156   3.866
24366WAT      O73339   6.490   5.324   1.292
24366WAT     H173340   6.494   5.305   1.194
24366WAT     H273341   6.581   5.316   1.331
24367WAT      O73342   6.354   2.201   3.831
24367WAT     H173343   6.419   2.276   3.820
24367WAT     H273344   6.296   2.194   3.749
24368WAT      O73345   1.415   5.745   6.592
24368WAT     H173346   1.335   5.698   6.554
24368WAT     H273347   1.450   5.694   6.670
24369WAT      O73348   6.752   9.125   1.830
24369WAT     H173349   6.824   9.097   1.767
24369WAT     H273350   6.667   9.138   1.779
24370WAT      O73351   0.137   7.438   6.741
24370WAT     H173352   0.154   7.503   6.667
24370WAT     H273353   0.158   7.481   6.829
24371WAT      O73354   7.975   8.485   5.878
24371WAT     H173355   8.003   8.434   5.959
24371WAT     H273356   7.916   8.427   5.821
24372WAT      O73357   2.660   1.603   2.744
24372WAT     H173358   2.758   1.616   2.762
24372WAT     H273359   2.611   1.597   2.831
24373WAT      O73360   5.662   0.088   4.022
24373WAT     H173361   5.734   0.018   4.013
24373WAT     H273362   5.677   0.160   3.954
24374WAT      O73363   1.973   9.422   1.361
24374WAT     H173364   2.046   9.481   1.398
24374WAT     H273365   1.897   9.419   1.426
24375WAT      O73366   7.581   6.987   2.874
24375WAT     H173367   7.512   6.954   2.939
24375WAT     H273368   7.669   6.997   2.920
24376WAT      O73369   5.628   7.061   7.147
24376WAT     H173370   5.603   7.156   7.165
24376WAT     H273371   5.595   7.003   7.222
24377WAT      O73372   0.273   8.200   2.197
24377WAT     H173373   0.257   8.110   2.237
24377WAT     H273374   0.293   8.266   2.269
24378WAT      O73375   8.938   2.432   7.928
24378WAT     H173376   8.954   2.389   8.017
24378WAT     H273377   8.973   2.374   7.855
24379WAT      O73378   0.558   5.916   7.674
24379WAT     H173379   0.516   5.929   7.585
24379WAT     H273380   0.657   5.932   7.667
24380WAT      O73381   7.059   4.849   8.087
24380WAT     H173382   7.036   4.946   8.084
24380WAT     H273383   6.975   4.795   8.097
24381WAT      O73384   3.388   8.521   4.306
24381WAT     H173385   3.469   8.566   4.268
24381WAT     H273386   3.386   8.532   4.405
24382WAT      O73387   2.480   9.166   6.133
24382WAT     H173388   2.578   9.152   6.117
24382WAT     H273389   2.456   9.260   6.109
24383WAT      O73390   5.966   5.980   6.291
24383WAT     H173391   5.957   6.006   6.195
24383WAT     H273392   5.999   5.886   6.297
24384WAT      O73393   6.430   7.759   7.416
24384WAT     H173394   6.368   7.760   7.338
24384WAT     H273395   6.509   7.702   7.396
24385WAT      O73396   2.759   4.641   7.151
24385WAT     H173397   2.673   4.593   7.169
24385WAT     H273398   2.746   4.739   7.165
24386WAT      O73399   3.028   3.139   6.192
24386WAT     H173400   3.026   3.187   6.279
24386WAT     H273401   3.107   3.171   6.139
24387WAT      O73402   8.260   7.595   5.777
24387WAT     H173403   8.238   7.692   5.785
24387WAT     H273404   8.178   7.543   5.755
24388WAT      O73405   1.489   3.044   0.049
24388WAT     H173406   1.496   2.945   0.048
24388WAT     H273407   1.484   3.079  -0.044
24389WAT      O73408   6.788   2.953   7.078
24389WAT     H173409   6.867   2.916   7.127
24389WAT     H273410   6.760   2.889   7.007
24390WAT      O73411   5.102   6.229   3.090
24390WAT     H173412   5.178   6.285   3.124
24390WAT     H273413   5.125   6.194   2.999
24391WAT      O73414   4.071   4.717   2.197
24391WAT     H173415   4.050   4.777   2.274
24391WAT     H273416   4.168   4.695   2.198
24392WAT      O73417   2.997   2.323   3.691
24392WAT     H173418   2.952   2.374   3.618
24392WAT     H273419   2.927   2.290   3.755
24393WAT      O73420   6.158   5.773   1.553
24393WAT     H173421   6.135   5.689   1.504
24393WAT     H273422   6.221   5.827   1.498
24394WAT      O73423   5.971   0.247   1.022
24394WAT     H173424   5.947   0.312   0.950
24394WAT     H273425   6.060   0.271   1.060
24395WAT      O73426   8.960   5.470   1.512
24395WAT     H173427   8.870   5.435   1.488
24395WAT     H273428   9.030   5.421   1.461
24396WAT      O73429   2.329   8.525   4.274
24396WAT     H173430   2.275   8.579   4.210
24396WAT     H273431   2.270   8.492   4.348
24397WAT      O73432   6.495   4.502   0.803
24397WAT     H173433   6.483   4.546   0.714
24397WAT     H273434   6.556   4.557   0.859
24398WAT      O73435   7.710   9.561   9.432
24398WAT     H173436   7.689   9.548   9.529
24398WAT     H273437   7.670   9.485   9.380
24399WAT      O73438   0.693   6.583   1.149
24399WAT     H173439   0.789   6.570   1.121
24399WAT     H273440   0.674   6.681   1.158
24400WAT      O73441   8.476   3.454   4.474
24400WAT     H173442   8.433   3.492   4.392
24400WAT     H273443   8.466   3.354   4.473
24401WAT      O73444   2.697   5.221   1.414
24401WAT     H173445   2.711   5.300   1.474
24401WAT     H273446   2.687   5.252   1.320
24402WAT      O73447   2.292   5.977   3.217
24402WAT     H173448   2.280   6.030   3.301
24402WAT     H273449   2.225   5.902   3.215
24403WAT      O73450   6.972   2.644   1.824
24403WAT     H173451   6.895   2.670   1.766
24403WAT     H273452   7.034   2.586   1.772
24404WAT      O73453   9.753   7.954   2.596
24404WAT     H173454   9.729   8.028   2.533
24404WAT     H273455   9.790   7.993   2.680
24405WAT      O73456   5.713   1.773   4.238
24405WAT     H173457   5.801   1.807   4.204
24405WAT     H273458   5.660   1.850   4.275
24406WAT      O73459   0.483   4.034   0.634
24406WAT     H173460   0.559   3.971   0.617
24406WAT     H273461   0.517   4.115   0.684
24407WAT      O73462   1.311   3.511   3.354
24407WAT     H173463   1.230   3.513   3.296
24407WAT     H273464   1.369   3.433   3.328
24408WAT      O73465   8.609   2.999   0.159
24408WAT     H173466   8.580   3.014   0.253
24408WAT     H273467   8.561   2.920   0.121
24409WAT      O73468   9.542   4.524   0.181
24409WAT     H173469   9.624   4.581   0.182
24409WAT     H273470   9.465   4.576   0.144
24410WAT      O73471   3.499   6.161   1.632
24410WAT     H173472   3.435   6.215   1.686
24410WAT     H273473   3.550   6.099   1.692
24411WAT      O73474   5.614   5.871   2.886
24411WAT     H173475   5.668   5.932   2.828
24411WAT     H273476   5.674   5.833   2.957
24412WAT      O73477   5.476   2.597   6.452
24412WAT     H173478   5.421   2.526   6.496
24412WAT     H273479   5.416   2.658   6.400
24413WAT      O73480   5.812   3.615   9.229
24413WAT     H173481   5.751   3.652   9.159
24413WAT     H273482   5.796   3.517   9.239
24414WAT      O73483   4.975   0.808   2.164
24414WAT     H173484   4.907   0.759   2.109
24414WAT     H273485   5.066   0.795   2.124
24415WAT      O73486   8.886   3.473   3.136
24415WAT     H173487   8.851   3.379   3.136
24415WAT     H273488   8.894   3.506   3.230
24416WAT      O73489   2.441   1.338   6.954
24416WAT     H173490   2.363   1.399   6.969
24416WAT     H273491   2.490   1.367   6.872
24417WAT      O73492   9.582   1.275   8.475
24417WAT     H173493   9.605   1.180   8.456
24417WAT     H273494   9.627   1.304   8.560
24418WAT      O73495   6.312   4.952   8.175
24418WAT     H173496   6.272   4.917   8.091
24418WAT     H273497   6.367   4.880   8.218
24419WAT      O73498   1.500   8.525   3.815
24419WAT     H173499   1.509   8.438   3.864
24419WAT     H273500   1.458   8.508   3.726
24420WAT      O73501   6.631   2.900   2.216
24420WAT     H173502   6.620   2.999   2.225
24420WAT     H273503   6.697   2.880   2.143
24421WAT      O73504   8.718   4.238   0.293
24421WAT     H173505   8.773   4.261   0.373
24421WAT     H273506   8.681   4.146   0.303
24422WAT      O73507   9.314   4.591   0.572
24422WAT     H173508   9.245   4.660   0.595
24422WAT     H273509   9.399   4.613   0.621
24423WAT      O73510   0.895   0.683   4.989
24423WAT     H173511   0.844   0.712   5.070
24423WAT     H273512   0.990   0.713   4.998
24424WAT      O73513   3.275   0.455   8.850
24424WAT     H173514   3.263   0.541   8.801
24424WAT     H273515   3.360   0.411   8.821
24425WAT      O73516   6.601   4.192   9.418
24425WAT     H173517   6.695   4.214   9.390
24425WAT     H273518   6.598   4.181   9.518
24426WAT      O73519   0.726   7.863   8.747
24426WAT     H173520   0.699   7.824   8.658
24426WAT     H273521   0.761   7.955   8.734
24427WAT      O73522   2.234   0.164   3.749
24427WAT     H173523   2.256   0.084   3.803
24427WAT     H273524   2.139   0.189   3.763
24428WAT      O73525   8.800   3.639   0.660
24428WAT     H173526   8.731   3.661   0.591
24428WAT     H273527   8.800   3.540   0.675
24429WAT      O73528   6.648   3.741   6.805
24429WAT     H173529   6.733   3.754   6.754
24429WAT     H273530   6.578   3.703   6.744
24430WAT      O73531   0.816   9.425   8.202
24430WAT     H173532   0.855   9.404   8.113
24430WAT     H273533   0.877   9.486   8.252
24431WAT      O73534   0.164   9.380   3.111
24431WAT     H173535   0.255   9.365   3.074
24431WAT     H273536   0.101   9.405   3.037
24432WAT      O73537   8.770   2.682   1.912
24432WAT     H173538   8.805   2.677   2.005
24432WAT     H273539   8.715   2.600   1.892
24433WAT      O73540   9.227   9.705   4.943
24433WAT     H173541   9.155   9.716   5.012
24433WAT     H273542   9.299   9.772   4.961
24434WAT      O73543   3.437   0.665   1.265
24434WAT     H173544   3.383   0.607   1.327
24434WAT     H273545   3.507   0.609   1.220
24435WAT      O73546   2.965   0.217   6.717
24435WAT     H173547   2.916   0.297   6.752
24435WAT     H273548   3.046   0.247   6.666
24436WAT      O73549   5.767   2.947   7.489
24436WAT     H173550   5.713   3.021   7.530
24436WAT     H273551   5.838   2.918   7.554
24437WAT      O73552   8.721   2.114   4.580
24437WAT     H173553   8.654   2.188   4.578
24437WAT     H273554   8.675   2.026   4.566
24438WAT      O73555   6.419   6.965   5.003
24438WAT     H173556   6.417   6.912   5.087
24438WAT     H273557   6.500   7.023   5.001
24439WAT      O73558   9.640   7.253   4.442
24439WAT     H173559   9.540   7.258   4.439
24439WAT     H273560   9.679   7.321   4.380
24440WAT      O73561   8.846   6.116   4.653
24440WAT     H173562   8.765   6.127   4.596
24440WAT     H273563   8.925   6.155   4.606
24441WAT      O73564   9.053   6.492   1.438
24441WAT     H173565   9.117   6.536   1.502
24441WAT     H273566   9.093   6.493   1.347
24442WAT      O73567   8.695   4.349   8.902
24442WAT     H173568   8.725   4.394   8.986
24442WAT     H273569   8.643   4.266   8.925
24443WAT      O73570   7.324   4.213   8.845
24443WAT     H173571   7.288   4.229   8.754
24443WAT     H273572   7.297   4.122   8.877
24444WAT      O73573   9.538   6.342   8.393
24444WAT     H173574   9.484   6.354   8.310
24444WAT     H273575   9.481   6.302   8.464
24445WAT      O73576   5.748   0.897   0.402
24445WAT     H173577   5.781   0.818   0.452
24445WAT     H273578   5.764   0.885   0.304
24446WAT      O73579   2.626   7.957   8.706
24446WAT     H173580   2.660   8.038   8.753
24446WAT     H273581   2.563   7.907   8.766
24447WAT      O73582   6.158   3.795   8.213
24447WAT     H173583   6.217   3.839   8.146
24447WAT     H273584   6.110   3.718   8.170
24448WAT      O73585   0.245   8.916   3.762
24448WAT     H173586   0.190   8.999   3.757
24448WAT     H273587   0.340   8.941   3.784
24449WAT      O73588   0.396   9.735   2.420
24449WAT     H173589   0.454   9.813   2.394
24449WAT     H273590   0.319   9.768   2.475
24450WAT      O73591   8.663   2.606   5.706
24450WAT     H173592   8.752   2.588   5.748
24450WAT     H273593   8.655   2.704   5.685
24451WAT      O73594   1.523   8.806   2.480
24451WAT     H173595   1.455   8.748   2.525
24451WAT     H273596   1.481   8.894   2.457
24452WAT      O73597   6.632   0.893   0.567
24452WAT     H173598   6.653   0.898   0.664
24452WAT     H273599   6.681   0.817   0.525
24453WAT      O73600   2.630   3.236   0.392
24453WAT     H173601   2.667   3.216   0.301
24453WAT     H273602   2.580   3.322   0.390
24454WAT      O73603   7.082   5.482   7.651
24454WAT     H173604   7.170   5.515   7.615
24454WAT     H273605   7.094   5.389   7.686
24455WAT      O73606   5.478   3.146   3.985
24455WAT     H173607   5.448   3.097   3.903
24455WAT     H273608   5.477   3.085   4.064
24456WAT      O73609   2.174   7.143   9.638
24456WAT     H173610   2.242   7.214   9.653
24456WAT     H273611   2.086   7.185   9.615
24457WAT      O73612   6.217   7.635   6.929
24457WAT     H173613   6.195   7.607   6.835
24457WAT     H273614   6.243   7.554   6.982
24458WAT      O73615   7.205   7.424   1.614
24458WAT     H173616   7.256   7.348   1.574
24458WAT     H273617   7.154   7.392   1.694
24459WAT      O73618   7.561   1.886   3.360
24459WAT     H173619   7.501   1.806   3.355
24459WAT     H273620   7.621   1.888   3.281
24460WAT      O73621   3.038   8.457   0.773
24460WAT     H173622   3.035   8.526   0.845
24460WAT     H273623   2.989   8.491   0.693
24461WAT      O73624   1.913   7.101   1.712
24461WAT     H173625   1.872   7.138   1.795
24461WAT     H273626   1.844   7.051   1.659
24462WAT      O73627   7.583   0.362   9.618
24462WAT     H173628   7.635   0.282   9.649
24462WAT     H273629   7.573   0.426   9.694
24463WAT      O73630   9.262   2.288   1.373
24463WAT     H173631   9.227   2.270   1.281
24463WAT     H273632   9.337   2.354   1.369
24464WAT      O73633   6.929   3.300   0.671
24464WAT     H173634   6.882   3.343   0.594
24464WAT     H273635   7.021   3.272   0.644
24465WAT      O73636   6.039   8.942   6.470
24465WAT     H173637   6.099   9.015   6.437
24465WAT     H273638   6.030   8.872   6.400
24466WAT      O73639   1.257   9.391   8.260
24466WAT     H173640   1.285   9.304   8.221
24466WAT     H273641   1.331   9.457   8.252
24467WAT      O73642   3.262   1.766   0.447
24467WAT     H173643   3.277   1.669   0.462
24467WAT     H273644   3.243   1.783   0.350
24468WAT      O73645   8.699   3.965   0.357
24468WAT     H173646   8.634   3.927   0.423
24468WAT     H273647   8.792   3.955   0.392
24469WAT      O73648   2.227   2.898   2.029
24469WAT     H173649   2.311   2.845   2.040
24469WAT     H273650   2.197   2.932   2.118
24470WAT      O73651   7.931   4.662   0.326
24470WAT     H173652   7.970   4.673   0.234
24470WAT     H273653   7.919   4.564   0.345
24471WAT      O73654   7.352   3.818   2.440
24471WAT     H173655   7.283   3.767   2.492
24471WAT     H273656   7.308   3.861   2.361
24472WAT      O73657   2.533   6.733   2.847
24472WAT     H173658   2.563   6.738   2.752
24472WAT     H273659   2.602   6.684   2.901
24473WAT      O73660   6.381   6.362   7.566
24473WAT     H173661   6.368   6.268   7.599
24473WAT     H273662   6.311   6.383   7.498
24474WAT      O73663   6.400   5.130   5.949
24474WAT     H173664   6.320   5.096   5.997
24474WAT     H273665   6.471   5.155   6.016
24475WAT      O73666   9.068   6.820   1.399
24475WAT     H173667   9.162   6.850   1.382
24475WAT     H273668   9.022   6.803   1.312
24476WAT      O73669   8.630   2.067   1.567
24476WAT     H173670   8.612   1.995   1.500
24476WAT     H273671   8.700   2.037   1.631
24477WAT      O73672   1.188   4.237   3.517
24477WAT     H173673   1.208   4.175   3.441
24477WAT     H273674   1.107   4.204   3.566
24478WAT      O73675   7.113   1.206   2.707
24478WAT     H173676   7.095   1.303   2.720
24478WAT     H273677   7.094   1.157   2.791
24479WAT      O73678   2.115   9.344   4.640
24479WAT     H173679   2.160   9.396   4.712
24479WAT     H273680   2.183   9.295   4.587
24480WAT      O73681   1.650   1.168   5.609
24480WAT     H173682   1.729   1.126   5.564
24480WAT     H273683   1.622   1.111   5.686
24481WAT      O73684   2.196   4.262   9.243
24481WAT     H173685   2.220   4.210   9.324
24481WAT     H273686   2.103   4.298   9.251
24482WAT      O73687   7.365   2.460   1.177
24482WAT     H173688   7.367   2.373   1.129
24482WAT     H273689   7.284   2.511   1.150
24483WAT      O73690   1.451   9.050   0.470
24483WAT     H173691   1.544   9.018   0.451
24483WAT     H273692   1.453   9.115   0.547
24484WAT      O73693   0.054   9.039   8.338
24484WAT     H173694   0.088   8.965   8.396
24484WAT     H273695  -0.029   9.078   8.378
24485WAT      O73696   7.088   4.037   4.940
24485WAT     H173697   7.028   4.106   4.982
24485WAT     H273698   7.033   3.975   4.884
24486WAT      O73699   3.154   7.078   5.496
24486WAT     H173700   3.118   7.050   5.585
24486WAT     H273701   3.119   7.169   5.473
24487WAT      O73702   6.552   0.489   3.495
24487WAT     H173703   6.629   0.546   3.525
24487WAT     H273704   6.524   0.517   3.403
24488WAT      O73705   5.967   3.197   1.749
24488WAT     H173706   6.063   3.172   1.744
24488WAT     H273707   5.918   3.130   1.805
24489WAT      O73708   6.347   7.668   0.087
24489WAT     H173709   6.396   7.696   0.170
24489WAT     H273710   6.249   7.675   0.103
24490WAT      O73711   8.535   3.957   8.474
24490WAT     H173712   8.484   3.912   8.401
24490WAT     H273713   8.620   3.995   8.437
24491WAT      O73714   8.478   7.811   1.586
24491WAT     H173715   8.515   7.786   1.497
24491WAT     H273716   8.394   7.759   1.603
24492WAT      O73717   0.216   4.557   8.781
24492WAT     H173718   0.279   4.508   8.841
24492WAT     H273719   0.150   4.493   8.742
24493WAT      O73720   1.154   4.332   8.589
24493WAT     H173721   1.064   4.291   8.597
24493WAT     H273722   1.221   4.277   8.639
24494WAT      O73723   0.164   1.946   2.403
24494WAT     H173724   0.219   2.002   2.465
24494WAT     H273725   0.078   1.922   2.446
24495WAT      O73726   0.975   3.399   5.178
24495WAT     H173727   1.001   3.475   5.237
24495WAT     H273728   0.970   3.315   5.232
24496WAT      O73729   5.116   4.365   8.619
24496WAT     H173730   5.083   4.441   8.675
24496WAT     H273731   5.053   4.350   8.543
24497WAT      O73732  -0.002   2.394   4.851
24497WAT     H173733   0.044   2.375   4.938
24497WAT     H273734   0.010   2.491   4.827
24498WAT      O73735   3.847   9.072   0.459
24498WAT     H173736   3.830   9.043   0.553
24498WAT     H273737   3.787   9.022   0.397
24499WAT      O73738   0.920   3.370   6.180
24499WAT     H173739   0.874   3.438   6.123
24499WAT     H273740   1.019   3.388   6.180
24500WAT      O73741   8.255   9.432   3.856
24500WAT     H173742   8.236   9.334   3.855
24500WAT     H273743   8.175   9.482   3.823
24501WAT      O73744   4.039   1.613   9.411
24501WAT     H173745   4.082   1.681   9.351
24501WAT     H273746   4.103   1.588   9.483
24502WAT      O73747   4.143   4.592   6.470
24502WAT     H173748   4.077   4.632   6.534
24502WAT     H273749   4.191   4.516   6.514
24503WAT      O73750   7.924   4.603   2.406
24503WAT     H173751   7.884   4.662   2.477
24503WAT     H273752   8.012   4.641   2.378
24504WAT      O73753   5.718   8.145   3.449
24504WAT     H173754   5.622   8.159   3.470
24504WAT     H273755   5.735   8.171   3.353
24505WAT      O73756   4.894   9.432   2.608
24505WAT     H173757   4.801   9.449   2.641
24505WAT     H273758   4.960   9.457   2.679
24506WAT      O73759   2.143   2.667   8.955
24506WAT     H173760   2.163   2.616   8.871
24506WAT     H273761   2.220   2.728   8.976
24507WAT      O73762   6.258   8.116   8.766
24507WAT     H173763   6.268   8.032   8.713
24507WAT     H273764   6.342   8.132   8.819
24508WAT      O73765   2.603   2.376   0.048
24508WAT     H173766   2.630   2.415   0.136
24508WAT     H273767   2.571   2.449  -0.012
24509WAT      O73768   1.623   8.081   3.768
24509WAT     H173769   1.549   8.148   3.768
24509WAT     H273770   1.668   8.081   3.857
24510WAT      O73771   2.629   1.918   0.366
24510WAT     H173772   2.601   1.939   0.460
24510WAT     H273773   2.574   1.841   0.331
24511WAT      O73774   4.583   6.696   6.151
24511WAT     H173775   4.495   6.695   6.199
24511WAT     H273776   4.631   6.781   6.170
24512WAT      O73777   4.210   7.530   1.061
24512WAT     H173778   4.180   7.578   0.978
24512WAT     H273779   4.131   7.507   1.117
24513WAT      O73780   2.200   6.228   3.085
24513WAT     H173781   2.227   6.150   3.142
24513WAT     H273782   2.268   6.301   3.095
24514WAT      O73783   5.148   9.337   8.612
24514WAT     H173784   5.218   9.361   8.679
24514WAT     H273785   5.113   9.245   8.632
24515WAT      O73786   0.549   7.794   5.846
24515WAT     H173787   0.562   7.885   5.807
24515WAT     H273788   0.613   7.782   5.923
24516WAT      O73789   8.795   2.074   5.804
24516WAT     H173790   8.779   2.110   5.712
24516WAT     H273791   8.894   2.066   5.819
24517WAT      O73792   3.402   8.285   2.442
24517WAT     H173793   3.391   8.339   2.358
24517WAT     H273794   3.381   8.189   2.423
24518WAT      O73795   5.438   3.313   5.857
24518WAT     H173796   5.481   3.365   5.784
24518WAT     H273797   5.397   3.375   5.924
24519WAT      O73798   8.766   8.416   3.609
24519WAT     H173799   8.778   8.505   3.653
24519WAT     H273800   8.694   8.365   3.655
24520WAT      O73801   5.918   6.978   6.654
24520WAT     H173802   5.987   6.933   6.710
24520WAT     H273803   5.853   7.026   6.713
24521WAT      O73804   2.646   1.741   6.977
24521WAT     H173805   2.669   1.836   6.955
24521WAT     H273806   2.574   1.710   6.916
24522WAT      O73807   1.438   0.183   3.887
24522WAT     H173808   1.343   0.152   3.899
24522WAT     H273809   1.479   0.136   3.809
24523WAT      O73810   2.404   2.451   7.061
24523WAT     H173811   2.491   2.500   7.069
24523WAT     H273812   2.382   2.438   6.964
24524WAT      O73813   5.117   6.343   9.734
24524WAT     H173814   5.151   6.288   9.810
24524WAT     H273815   5.158   6.435   9.739
24525WAT      O73816   7.566   0.091   4.425
24525WAT     H173817   7.634   0.017   4.429
24525WAT     H273818   7.555   0.121   4.330
24526WAT      O73819   5.878   6.237   1.810
24526WAT     H173820   5.959   6.295   1.810
24526WAT     H273821   5.852   6.216   1.716
24527WAT      O73822   8.254   2.680   4.770
24527WAT     H173823   8.185   2.731   4.822
24527WAT     H273824   8.321   2.642   4.833
24528WAT      O73825   2.336   2.449   1.817
24528WAT     H173826   2.289   2.389   1.752
24528WAT     H273827   2.270   2.509   1.861
24529WAT      O73828   3.536   0.230   2.184
24529WAT     H173829   3.624   0.264   2.151
24529WAT     H273830   3.523   0.259   2.278
24530WAT      O73831   8.325   8.741   5.043
24530WAT     H173832   8.349   8.835   5.064
24530WAT     H273833   8.408   8.685   5.039
24531WAT      O73834   6.584   2.172   7.628
24531WAT     H173835   6.569   2.124   7.541
24531WAT     H273836   6.504   2.228   7.650
24532WAT      O73837   4.550   9.743   6.090
24532WAT     H173838   4.616   9.754   6.015
24532WAT     H273839   4.475   9.684   6.060
24533WAT      O73840   0.180   1.261   4.462
24533WAT     H173841   0.147   1.223   4.375
24533WAT     H273842   0.201   1.358   4.451
24534WAT      O73843   1.472   2.586   4.235
24534WAT     H173844   1.542   2.628   4.293
24534WAT     H273845   1.503   2.495   4.206
24535WAT      O73846   8.431   9.397   0.034
24535WAT     H173847   8.454   9.351   0.120
24535WAT     H273848   8.333   9.413   0.031
24536WAT      O73849   4.120   4.060   1.442
24536WAT     H173850   4.117   4.147   1.493
24536WAT     H273851   4.199   4.060   1.381
24537WAT      O73852   7.048   1.831   2.354
24537WAT     H173853   6.965   1.805   2.305
24537WAT     H273854   7.119   1.761   2.339
24538WAT      O73855   8.012   7.715   7.920
24538WAT     H173856   7.961   7.745   7.840
24538WAT     H273857   8.063   7.632   7.898
24539WAT      O73858   4.664   1.003   1.490
24539WAT     H173859   4.564   1.001   1.478
24539WAT     H273860   4.686   1.054   1.573
24540WAT      O73861   6.277   5.475   2.092
24540WAT     H173862   6.330   5.521   2.021
24540WAT     H273863   6.182   5.506   2.089
24541WAT      O73864   7.866   5.048   2.666
24541WAT     H173865   7.946   5.090   2.709
24541WAT     H273866   7.832   5.107   2.593
24542WAT      O73867   9.058   3.396   1.861
24542WAT     H173868   9.056   3.456   1.781
24542WAT     H273869   9.021   3.306   1.838
24543WAT      O73870   5.776   5.721   1.894
24543WAT     H173871   5.748   5.697   1.987
24543WAT     H273872   5.848   5.658   1.864
24544WAT      O73873   1.508   0.520   0.019
24544WAT     H173874   1.574   0.491   0.089
24544WAT     H273875   1.458   0.600   0.051
24545WAT      O73876   2.265   0.153   0.251
24545WAT     H173877   2.284   0.096   0.171
24545WAT     H273878   2.350   0.169   0.301
24546WAT      O73879   1.098   3.031   3.685
24546WAT     H173880   1.046   2.946   3.675
24546WAT     H273881   1.065   3.098   3.619
24547WAT      O73882   2.581   7.739   0.819
24547WAT     H173883   2.527   7.768   0.740
24547WAT     H273884   2.627   7.653   0.798
24548WAT      O73885   9.434   5.229   0.361
24548WAT     H173886   9.474   5.273   0.442
24548WAT     H273887   9.466   5.276   0.279
24549WAT      O73888   5.407   6.029   5.613
24549WAT     H173889   5.426   6.078   5.528
24549WAT     H273890   5.346   5.952   5.594
24550WAT      O73891   4.684   7.215   8.275
24550WAT     H173892   4.737   7.165   8.343
24550WAT     H273893   4.588   7.216   8.302
24551WAT      O73894   2.313   4.872   7.567
24551WAT     H173895   2.327   4.968   7.543
24551WAT     H273896   2.242   4.865   7.638
24552WAT      O73897   1.828   6.658   8.041
24552WAT     H173898   1.816   6.736   7.981
24552WAT     H273899   1.764   6.585   8.014
24553WAT      O73900   2.758   0.226   9.874
24553WAT     H173901   2.827   0.154   9.881
24553WAT     H273902   2.765   0.270   9.785
24554WAT      O73903   6.921   1.988   5.567
24554WAT     H173904   7.012   1.978   5.609
24554WAT     H273905   6.851   1.981   5.638
24555WAT      O73906   5.271   8.801   7.382
24555WAT     H173907   5.201   8.832   7.318
24555WAT     H273908   5.228   8.749   7.456
24556WAT      O73909   2.714   0.913   9.202
24556WAT     H173910   2.687   0.846   9.270
24556WAT     H273911   2.650   0.991   9.204
24557WAT      O73912   2.526   6.290   9.530
24557WAT     H173913   2.564   6.271   9.440
24557WAT     H273914   2.507   6.204   9.577
24558WAT      O73915   4.761   1.798   2.985
24558WAT     H173916   4.760   1.886   3.034
24558WAT     H273917   4.851   1.783   2.945
24559WAT      O73918   3.075   9.571   8.477
24559WAT     H173919   3.065   9.551   8.379
24559WAT     H273920   3.010   9.515   8.528
24560WAT      O73921   3.325   8.370   8.276
24560WAT     H173922   3.342   8.274   8.253
24560WAT     H273923   3.255   8.376   8.347
24561WAT      O73924   0.404   8.683   5.951
24561WAT     H173925   0.381   8.764   6.004
24561WAT     H273926   0.389   8.701   5.854
24562WAT      O73927   8.373   4.215   0.633
24562WAT     H173928   8.362   4.170   0.721
24562WAT     H273929   8.303   4.285   0.622
24563WAT      O73930   9.221   8.408   4.067
24563WAT     H173931   9.151   8.413   4.139
24563WAT     H273932   9.311   8.428   4.106
24564WAT      O73933   2.101   5.799   3.228
24564WAT     H173934   2.078   5.727   3.162
24564WAT     H273935   2.088   5.764   3.321
24565WAT      O73936   2.691   2.760   7.333
24565WAT     H173937   2.693   2.749   7.432
24565WAT     H273938   2.606   2.804   7.306
24566WAT      O73939   2.911   5.339   7.388
24566WAT     H173940   2.886   5.349   7.291
24566WAT     H273941   2.845   5.388   7.445
24567WAT      O73942   6.602   5.491   8.243
24567WAT     H173943   6.514   5.502   8.288
24567WAT     H273944   6.599   5.532   8.152
24568WAT      O73945   7.115   1.547   9.824
24568WAT     H173946   7.095   1.642   9.800
24568WAT     H273947   7.205   1.522   9.790
24569WAT      O73948   5.299   9.238   2.221
24569WAT     H173949   5.210   9.263   2.257
24569WAT     H273950   5.302   9.257   2.123
24570WAT      O73951   6.730   3.681   3.757
24570WAT     H173952   6.664   3.609   3.735
24570WAT     H273953   6.819   3.639   3.777
24571WAT      O73954   7.104   9.743   4.524
24571WAT     H173955   7.083   9.777   4.615
24571WAT     H273956   7.097   9.643   4.523
24572WAT      O73957   9.333   4.311   6.514
24572WAT     H173958   9.261   4.256   6.557
24572WAT     H273959   9.388   4.254   6.454
24573WAT      O73960   3.887   6.551   8.309
24573WAT     H173961   3.980   6.574   8.338
24573WAT     H273962   3.879   6.451   8.303
24574WAT      O73963   7.033   6.675   7.546
24574WAT     H173964   6.964   6.613   7.508
24574WAT     H273965   7.015   6.691   7.643
24575WAT      O73966   8.138   8.525   9.770
24575WAT     H173967   8.134   8.543   9.672
24575WAT     H273968   8.171   8.606   9.817
24576WAT      O73969   9.527   8.055   8.640
24576WAT     H173970   9.624   8.067   8.662
24576WAT     H273971   9.491   7.976   8.690
24577WAT      O73972   2.089   3.013   1.827
24577WAT     H173973   2.144   2.975   1.902
24577WAT     H273974   2.115   2.968   1.741
24578WAT      O73975   9.618   3.235   8.285
24578WAT     H173976   9.632   3.334   8.287
24578WAT     H273977   9.525   3.214   8.314
24579WAT      O73978   1.688   9.312   4.280
24579WAT     H173979   1.610   9.364   4.315
24579WAT     H273980   1.762   9.313   4.346
24580WAT      O73981   5.367   7.792   0.759
24580WAT     H173982   5.445   7.752   0.710
24580WAT     H273983   5.294   7.724   0.766
24581WAT      O73984   4.637   5.272   0.186
24581WAT     H173985   4.701   5.313   0.121
24581WAT     H273986   4.682   5.196   0.234
24582WAT      O73987   0.700   6.565   1.598
24582WAT     H173988   0.702   6.647   1.541
24582WAT     H273989   0.620   6.569   1.659
24583WAT      O73990   1.828   7.444   2.092
24583WAT     H173991   1.876   7.438   2.179
24583WAT     H273992   1.793   7.537   2.079
24584WAT      O73993   1.476   6.580   6.413
24584WAT     H173994   1.545   6.636   6.368
24584WAT     H273995   1.402   6.560   6.349
24585WAT      O73996   4.111   1.362   5.311
24585WAT     H173997   4.094   1.278   5.259
24585WAT     H273998   4.029   1.386   5.363
24586WAT      O73999   7.937   6.715   5.598
24586WAT     H174000   7.857   6.741   5.545
24586WAT     H274001   7.909   6.658   5.675
24587WAT      O74002   3.476   9.557   3.093
24587WAT     H174003   3.531   9.629   3.049
24587WAT     H274004   3.379   9.578   3.083
24588WAT      O74005   6.306   6.473   0.096
24588WAT     H174006   6.242   6.532   0.145
24588WAT     H274007   6.379   6.528   0.056
24589WAT      O74008   9.715   8.720   2.074
24589WAT     H174009   9.793   8.658   2.064
24589WAT     H274010   9.700   8.768   1.988
24590WAT      O74011   5.196   1.106   7.849
24590WAT     H174012   5.140   1.164   7.789
24590WAT     H274013   5.154   1.104   7.940
24591WAT      O74014   3.718   5.861   7.425
24591WAT     H174015   3.746   5.848   7.330
24591WAT     H274016   3.642   5.800   7.447
24592WAT      O74017   1.701   1.459   9.377
24592WAT     H174018   1.648   1.501   9.451
24592WAT     H274019   1.777   1.407   9.416
24593WAT      O74020   1.622   8.697   4.223
24593WAT     H174021   1.617   8.792   4.255
24593WAT     H274022   1.717   8.674   4.204
24594WAT      O74023   3.736   3.561   3.436
24594WAT     H174024   3.762   3.465   3.426
24594WAT     H274025   3.728   3.603   3.346
24595WAT      O74026   3.783   8.483   1.436
24595WAT     H174027   3.815   8.388   1.438
24595WAT     H274028   3.837   8.534   1.369
24596WAT      O74029   1.075   1.962   5.747
24596WAT     H174030   1.144   1.897   5.714
24596WAT     H274031   1.119   2.050   5.767
24597WAT      O74032   6.261   9.394   8.515
24597WAT     H174033   6.171   9.414   8.555
24597WAT     H274034   6.262   9.423   8.420
24598WAT      O74035   6.146   8.480   7.883
24598WAT     H174036   6.154   8.478   7.983
24598WAT     H274037   6.157   8.574   7.850
24599WAT      O74038   1.418   0.802   1.522
24599WAT     H174039   1.334   0.810   1.576
24599WAT     H274040   1.470   0.722   1.552
24600WAT      O74041   6.032   8.055   5.435
24600WAT     H174042   5.943   8.090   5.466
24600WAT     H274043   6.018   7.971   5.383
24601WAT      O74044   3.316   4.042   1.635
24601WAT     H174045   3.232   4.095   1.646
24601WAT     H274046   3.294   3.948   1.609
24602WAT      O74047   1.966   4.802   9.873
24602WAT     H174048   2.033   4.860   9.919
24602WAT     H274049   1.883   4.855   9.856
24603WAT      O74050   8.238   1.769   8.261
24603WAT     H174051   8.223   1.848   8.321
24603WAT     H274052   8.208   1.791   8.168
24604WAT      O74053   2.952   0.509   3.253
24604WAT     H174054   2.990   0.450   3.324
24604WAT     H274055   2.881   0.460   3.203
24605WAT      O74056   5.615   3.755   0.539
24605WAT     H174057   5.700   3.807   0.537
24605WAT     H274058   5.551   3.798   0.603
24606WAT      O74059   3.267   1.982   7.165
24606WAT     H174060   3.364   1.957   7.160
24606WAT     H274061   3.222   1.959   7.079
24607WAT      O74062   4.595   3.225   5.786
24607WAT     H174063   4.576   3.243   5.882
24607WAT     H274064   4.694   3.226   5.771
24608WAT      O74065   3.872   9.402   0.059
24608WAT     H174066   3.807   9.387   0.134
24608WAT     H274067   3.822   9.426  -0.024
24609WAT      O74068   7.950   4.322   2.427
24609WAT     H174069   7.966   4.421   2.421
24609WAT     H274070   7.885   4.304   2.501
24610WAT      O74071   1.027   6.101   0.728
24610WAT     H174072   1.009   6.196   0.752
24610WAT     H274073   0.991   6.040   0.799
24611WAT      O74074   5.273   7.927   2.282
24611WAT     H174075   5.280   7.984   2.200
24611WAT     H274076   5.364   7.915   2.322
24612WAT      O74077   6.034   7.086   8.597
24612WAT     H174078   6.127   7.063   8.569
24612WAT     H274079   6.038   7.166   8.658
24613WAT      O74080   8.069   8.103   7.072
24613WAT     H174081   8.023   8.027   7.026
24613WAT     H274082   8.153   8.126   7.023
24614WAT      O74083   1.118   3.067   4.599
24614WAT     H174084   1.055   2.990   4.591
24614WAT     H274085   1.207   3.042   4.561
24615WAT      O74086   1.416   8.270   1.107
24615WAT     H174087   1.404   8.205   1.031
24615WAT     H274088   1.490   8.238   1.166
24616WAT      O74089   2.099   2.786   2.319
24616WAT     H174090   2.048   2.701   2.309
24616WAT     H274091   2.041   2.856   2.360
24617WAT      O74092   9.757   6.601   9.566
24617WAT     H174093   9.728   6.697   9.577
24617WAT     H274094   9.684   6.549   9.523
24618WAT      O74095   7.779   5.179   4.779
24618WAT     H174096   7.685   5.154   4.755
24618WAT     H274097   7.819   5.234   4.705
24619WAT      O74098   8.410   7.755   4.244
24619WAT     H174099   8.471   7.683   4.276
24619WAT     H274100   8.325   7.715   4.211
24620WAT      O74101   4.577   1.916   4.652
24620WAT     H174102   4.619   1.998   4.611
24620WAT     H274103   4.532   1.863   4.581
24621WAT      O74104   2.173   2.942   9.721
24621WAT     H174105   2.263   2.982   9.702
24621WAT     H274106   2.121   3.005   9.779
24622WAT      O74107   0.047   6.628   7.483
24622WAT     H174108   0.044   6.530   7.461
24622WAT     H274109   0.130   6.669   7.446
24623WAT      O74110   3.403   8.751   4.779
24623WAT     H174111   3.338   8.770   4.705
24623WAT     H274112   3.357   8.766   4.867
24624WAT      O74113   7.292   9.595   2.655
24624WAT     H174114   7.276   9.662   2.582
24624WAT     H274115   7.204   9.557   2.684
24625WAT      O74116   1.905   2.407   5.321
24625WAT     H174117   1.920   2.313   5.352
24625WAT     H274118   1.859   2.458   5.394
24626WAT      O74119   5.308   3.754   7.645
24626WAT     H174120   5.313   3.811   7.563
24626WAT     H274121   5.397   3.713   7.662
24627WAT      O74122   6.266   7.664   2.491
24627WAT     H174123   6.232   7.575   2.520
24627WAT     H274124   6.306   7.712   2.569
24628WAT      O74125   6.005   6.620   7.860
24628WAT     H174126   6.006   6.568   7.945
24628WAT     H274127   6.096   6.620   7.819
24629WAT      O74128   4.396   1.435   0.746
24629WAT     H174129   4.485   1.406   0.781
24629WAT     H274130   4.390   1.412   0.649
24630WAT      O74131   3.636   8.285   3.558
24630WAT     H174132   3.709   8.286   3.490
24630WAT     H274133   3.599   8.378   3.570
24631WAT      O74134   8.897   7.418   3.117
24631WAT     H174135   8.846   7.355   3.058
24631WAT     H274136   8.842   7.440   3.197
24632WAT      O74137   4.910   9.259   8.091
24632WAT     H174138   5.007   9.256   8.115
24632WAT     H274139   4.859   9.196   8.149
24633WAT      O74140   8.288   1.038   0.209
24633WAT     H174141   8.282   1.128   0.166
24633WAT     H274142   8.226   1.035   0.287
24634WAT      O74143   9.596   7.474   2.258
24634WAT     H174144   9.584   7.554   2.317
24634WAT     H274145   9.674   7.420   2.289
24635WAT      O74146   2.373   6.624   7.828
24635WAT     H174147   2.385   6.555   7.900
24635WAT     H274148   2.283   6.666   7.837
24636WAT      O74149   2.465   8.288   9.847
24636WAT     H174150   2.449   8.338   9.761
24636WAT     H274151   2.563   8.290   9.868
24637WAT      O74152   5.103   9.496   6.936
24637WAT     H174153   5.153   9.571   6.980
24637WAT     H274154   5.111   9.505   6.837
24638WAT      O74155   5.195   5.443   1.896
24638WAT     H174156   5.229   5.473   1.985
24638WAT     H274157   5.256   5.374   1.858
24639WAT      O74158   7.732   1.516   1.181
24639WAT     H174159   7.721   1.518   1.081
24639WAT     H274160   7.773   1.602   1.212
24640WAT      O74161   6.543   2.315   0.374
24640WAT     H174162   6.625   2.325   0.431
24640WAT     H274163   6.569   2.314   0.278
24641WAT      O74164   3.365   4.186   6.112
24641WAT     H174165   3.353   4.147   6.203
24641WAT     H274166   3.276   4.217   6.077
24642WAT      O74167   0.654   4.015   1.606
24642WAT     H174168   0.613   4.086   1.549
24642WAT     H274169   0.605   4.010   1.694
24643WAT      O74170   5.318   9.382   6.526
24643WAT     H174171   5.346   9.287   6.514
24643WAT     H274172   5.332   9.409   6.621
24644WAT      O74173   7.621   3.328   6.634
24644WAT     H174174   7.559   3.369   6.701
24644WAT     H274175   7.567   3.281   6.564
24645WAT      O74176   6.452   3.283   2.403
24645WAT     H174177   6.356   3.290   2.378
24645WAT     H274178   6.460   3.247   2.496
24646WAT      O74179   7.483   5.575   3.404
24646WAT     H174180   7.406   5.587   3.340
24646WAT     H274181   7.515   5.664   3.434
24647WAT      O74182   4.076   3.768   8.351
24647WAT     H174183   4.153   3.757   8.288
24647WAT     H274184   4.019   3.686   8.349
24648WAT      O74185   8.915   4.867   2.790
24648WAT     H174186   8.986   4.861   2.860
24648WAT     H274187   8.956   4.852   2.700
24649WAT      O74188   4.542   8.614   3.991
24649WAT     H174189   4.494   8.579   4.071
24649WAT     H274190   4.632   8.571   3.984
24650WAT      O74191   5.881   8.570   7.285
24650WAT     H174192   5.842   8.551   7.196
24650WAT     H274193   5.829   8.642   7.330
24651WAT      O74194   2.112   8.344   8.390
24651WAT     H174195   2.024   8.384   8.416
24651WAT     H274196   2.124   8.350   8.291
24652WAT      O74197   2.214   9.051   7.107
24652WAT     H174198   2.303   9.096   7.116
24652WAT     H274199   2.212   8.968   7.162
24653WAT      O74200   1.981   7.573   5.791
24653WAT     H174201   1.990   7.490   5.846
24653WAT     H274202   2.054   7.576   5.722
24654WAT      O74203   8.553   5.042   7.227
24654WAT     H174204   8.536   4.949   7.195
24654WAT     H274205   8.468   5.082   7.261
24655WAT      O74206   1.212   2.270   9.031
24655WAT     H174207   1.173   2.358   9.006
24655WAT     H274208   1.187   2.247   9.125
24656WAT      O74209   3.530   0.070   5.989
24656WAT     H174210   3.549   0.167   5.974
24656WAT     H274211   3.460   0.060   6.060
24657WAT      O74212   8.835   3.925   8.874
24657WAT     H174213   8.887   3.873   8.942
24657WAT     H274214   8.799   3.862   8.805
24658WAT      O74215   3.613   3.678   8.999
24658WAT     H174216   3.543   3.614   8.968
24658WAT     H274217   3.635   3.742   8.926
24659WAT      O74218   4.042   2.394   7.131
24659WAT     H174219   3.944   2.375   7.119
24659WAT     H274220   4.058   2.492   7.120
24660WAT      O74221   7.921   8.674   7.841
24660WAT     H174222   7.958   8.767   7.841
24660WAT     H274223   7.837   8.671   7.787
24661WAT      O74224   1.742   0.547   8.519
24661WAT     H174225   1.751   0.646   8.506
24661WAT     H274226   1.650   0.526   8.551
24662WAT      O74227   1.414   9.480   6.660
24662WAT     H174228   1.365   9.543   6.721
24662WAT     H274229   1.365   9.393   6.654
24663WAT      O74230   5.206   3.680   4.084
24663WAT     H174231   5.189   3.777   4.066
24663WAT     H274232   5.254   3.640   4.006
24664WAT      O74233   1.619   1.667   6.453
24664WAT     H174234   1.653   1.751   6.412
24664WAT     H274235   1.519   1.668   6.454
24665WAT      O74236   9.781   6.775   4.997
24665WAT     H174237   9.825   6.686   4.996
24665WAT     H274238   9.699   6.772   4.939
24666WAT      O74239   2.188   3.231   4.095
24666WAT     H174240   2.209   3.136   4.072
24666WAT     H274241   2.090   3.246   4.093
24667WAT      O74242   6.139   6.152   3.451
24667WAT     H174243   6.224   6.120   3.409
24667WAT     H274244   6.103   6.081   3.512
24668WAT      O74245   9.043   5.285   2.959
24668WAT     H174246   9.121   5.308   3.018
24668WAT     H274247   9.070   5.292   2.864
24669WAT      O74248   3.302   8.470   6.557
24669WAT     H174249   3.348   8.382   6.569
24669WAT     H274250   3.203   8.458   6.571
24670WAT      O74251   7.326   5.396   8.971
24670WAT     H174252   7.392   5.461   9.007
24670WAT     H274253   7.373   5.313   8.939
24671WAT      O74254   5.471   7.259   1.951
24671WAT     H174255   5.395   7.261   1.887
24671WAT     H274256   5.501   7.353   1.970
24672WAT      O74257   5.493   7.015   2.708
24672WAT     H174258   5.471   7.082   2.779
24672WAT     H274259   5.409   6.977   2.670
24673WAT      O74260   7.670   3.512   3.583
24673WAT     H174261   7.633   3.452   3.653
24673WAT     H274262   7.670   3.607   3.615
24674WAT      O74263   0.797   7.523   3.546
24674WAT     H174264   0.761   7.479   3.628
24674WAT     H274265   0.894   7.499   3.536
24675WAT      O74266   5.350   5.788   0.513
24675WAT     H174267   5.256   5.823   0.509
24675WAT     H274268   5.389   5.806   0.603
24676WAT      O74269   5.856   6.154   5.701
24676WAT     H174270   5.817   6.239   5.667
24676WAT     H274271   5.783   6.088   5.717
24677WAT      O74272   6.580   1.091   2.470
24677WAT     H174273   6.539   1.000   2.471
24677WAT     H274274   6.514   1.157   2.435
24678WAT      O74275   5.315   1.968   4.931
24678WAT     H174276   5.395   1.945   4.875
24678WAT     H274277   5.345   2.016   5.013
24679WAT      O74278   5.350   4.697   1.727
24679WAT     H174279   5.263   4.738   1.756
24679WAT     H274280   5.333   4.633   1.653
24680WAT      O74281   4.794   0.739   4.677
24680WAT     H174282   4.807   0.644   4.706
24680WAT     H274283   4.807   0.746   4.578
24681WAT      O74284   0.021   5.214   5.751
24681WAT     H174285   0.039   5.245   5.658
24681WAT     H274286   0.095   5.154   5.781
24682WAT      O74287   1.534   3.916   7.709
24682WAT     H174288   1.624   3.934   7.670
24682WAT     H274289   1.465   3.966   7.658
24683WAT      O74290   9.555   9.407   8.832
24683WAT     H174291   9.485   9.440   8.894
24683WAT     H274292   9.628   9.476   8.824
24684WAT      O74293   6.117   8.556   2.753
24684WAT     H174294   6.061   8.527   2.676
24684WAT     H274295   6.163   8.477   2.793
24685WAT      O74296   1.000   2.978   7.281
24685WAT     H174297   1.021   3.045   7.352
24685WAT     H274298   0.902   2.958   7.282
24686WAT      O74299   6.211   3.085   5.555
24686WAT     H174300   6.238   2.993   5.525
24686WAT     H274301   6.203   3.145   5.476
24687WAT      O74302   8.730   7.871   8.157
24687WAT     H174303   8.798   7.817   8.108
24687WAT     H274304   8.750   7.968   8.147
24688WAT      O74305   4.470   9.081   0.204
24688WAT     H174306   4.484   9.021   0.282
24688WAT     H274307   4.396   9.146   0.225
24689WAT      O74308   0.946   6.782   1.596
24689WAT     H174309   0.976   6.715   1.664
24689WAT     H274310   1.025   6.820   1.548
24690WAT      O74311   2.063   2.768   3.796
24690WAT     H174312   2.147   2.808   3.758
24690WAT     H274313   2.001   2.743   3.721
24691WAT      O74314   1.558   4.822   7.340
24691WAT     H174315   1.543   4.723   7.349
24691WAT     H274316   1.608   4.855   7.420
24692WAT      O74317   7.923   3.862   3.944
24692WAT     H174318   7.887   3.951   3.972
24692WAT     H274319   8.008   3.876   3.892
24693WAT      O74320   4.012   0.404   4.658
24693WAT     H174321   4.010   0.362   4.567
24693WAT     H274322   4.099   0.450   4.671
24694WAT      O74323   5.681   4.712   8.081
24694WAT     H174324   5.702   4.810   8.091
24694WAT     H274325   5.716   4.663   8.161
24695WAT      O74326   1.079   9.138   2.058
24695WAT     H174327   1.046   9.050   2.025
24695WAT     H274328   1.113   9.192   1.981
24696WAT      O74329   9.445   7.152   1.160
24696WAT     H174330   9.454   7.134   1.258
24696WAT     H274331   9.531   7.132   1.114
24697WAT      O74332   5.845   6.449   1.501
24697WAT     H174333   5.750   6.476   1.481
24697WAT     H274334   5.860   6.356   1.469
24698WAT      O74335   3.721   5.313   4.833
24698WAT     H174336   3.666   5.249   4.779
24698WAT     H274337   3.661   5.384   4.871
24699WAT      O74338   7.318   8.514   4.907
24699WAT     H174339   7.347   8.609   4.917
24699WAT     H274340   7.247   8.494   4.974
24700WAT      O74341   6.248   8.752   2.494
24700WAT     H174342   6.218   8.836   2.541
24700WAT     H274343   6.245   8.767   2.395
24701WAT      O74344   2.225   6.501   4.944
24701WAT     H174345   2.166   6.467   5.018
24701WAT     H274346   2.311   6.451   4.944
24702WAT      O74347   4.547   7.844   1.395
24702WAT     H174348   4.494   7.875   1.316
24702WAT     H274349   4.496   7.865   1.479
24703WAT      O74350   7.436   8.720   3.455
24703WAT     H174351   7.527   8.680   3.448
24703WAT     H274352   7.442   8.808   3.502
24704WAT      O74353   4.525   6.320   8.675
24704WAT     H174354   4.435   6.365   8.675
24704WAT     H274355   4.597   6.388   8.672
24705WAT      O74356   2.390   0.204   0.625
24705WAT     H174357   2.423   0.227   0.533
24705WAT     H274358   2.393   0.285   0.683
24706WAT      O74359   3.779   2.082   6.745
24706WAT     H174360   3.698   2.115   6.695
24706WAT     H274361   3.752   2.057   6.838
24707WAT      O74362   7.064   3.758   7.567
24707WAT     H174363   6.976   3.775   7.612
24707WAT     H274364   7.130   3.827   7.597
24708WAT      O74365   2.810   6.698   7.603
24708WAT     H174366   2.856   6.614   7.631
24708WAT     H274367   2.740   6.722   7.670
24709WAT      O74368   7.872   5.091   1.957
24709WAT     H174369   7.797   5.029   1.981
24709WAT     H274370   7.916   5.059   1.873
24710WAT      O74371   1.008   7.102   1.665
24710WAT     H174372   0.929   7.048   1.636
24710WAT     H274373   1.053   7.141   1.585
24711WAT      O74374   9.628   2.155   8.806
24711WAT     H174375   9.575   2.213   8.744
24711WAT     H274376   9.619   2.060   8.778
24712WAT      O74377   5.026   7.807   7.152
24712WAT     H174378   5.111   7.784   7.105
24712WAT     H274379   4.949   7.783   7.094
24713WAT      O74380   4.493   1.682   0.821
24713WAT     H174381   4.448   1.601   0.782
24713WAT     H274382   4.590   1.680   0.799
24714WAT      O74383   5.742   6.695   6.736
24714WAT     H174384   5.772   6.737   6.822
24714WAT     H274385   5.813   6.706   6.667
24715WAT      O74386   7.039   1.883   4.931
24715WAT     H174387   6.941   1.861   4.937
24715WAT     H274388   7.056   1.936   4.848
24716WAT      O74389   7.152   3.672   2.547
24716WAT     H174390   7.065   3.645   2.506
24716WAT     H274391   7.160   3.632   2.639
24717WAT      O74392   2.084   3.032   0.454
24717WAT     H174393   2.167   3.032   0.399
24717WAT     H274394   2.008   3.066   0.399
24718WAT      O74395   7.975   8.043   3.250
24718WAT     H174396   8.011   7.957   3.212
24718WAT     H274397   8.051   8.102   3.276
24719WAT      O74398   2.332   3.699   8.313
24719WAT     H174399   2.415   3.661   8.353
24719WAT     H274400   2.349   3.723   8.217
24720WAT      O74401   5.387   4.152   9.618
24720WAT     H174402   5.349   4.185   9.532
24720WAT     H274403   5.475   4.106   9.601
24721WAT      O74404   1.535   5.520   2.240
24721WAT     H174405   1.440   5.496   2.259
24721WAT     H274406   1.562   5.599   2.295
24722WAT      O74407   4.534   3.939   3.137
24722WAT     H174408   4.616   3.975   3.093
24722WAT     H274409   4.537   3.958   3.235
24723WAT      O74410   2.256   8.899   8.222
24723WAT     H174411   2.176   8.925   8.167
24723WAT     H274412   2.240   8.809   8.263
24724WAT      O74413   3.425   8.262   9.379
24724WAT     H174414   3.334   8.225   9.365
24724WAT     H274415   3.432   8.300   9.472
24725WAT      O74416   6.846   6.748   3.805
24725WAT     H174417   6.923   6.788   3.854
24725WAT     H274418   6.771   6.731   3.868
24726WAT      O74419   8.905   0.310   4.892
24726WAT     H174420   8.813   0.326   4.928
24726WAT     H274421   8.907   0.224   4.841
24727WAT      O74422   0.118   2.767   5.095
24727WAT     H174423   0.058   2.777   5.015
24727WAT     H274424   0.188   2.698   5.076
24728WAT      O74425   2.026   4.742   8.435
24728WAT     H174426   2.101   4.729   8.370
24728WAT     H274427   1.943   4.698   8.399
24729WAT      O74428   1.041   6.451   2.109
24729WAT     H174429   1.033   6.386   2.185
24729WAT     H274430   1.057   6.543   2.144
24730WAT      O74431   3.743   3.273   4.102
24730WAT     H174432   3.758   3.174   4.099
24730WAT     H274433   3.747   3.310   4.010
24731WAT      O74434   6.035   4.858   5.943
24731WAT     H174435   6.004   4.802   6.019
24731WAT     H274436   6.076   4.800   5.873
24732WAT      O74437   9.704   9.053   6.873
24732WAT     H174438   9.775   9.124   6.873
24732WAT     H274439   9.619   9.093   6.907
24733WAT      O74440   2.247   6.418   2.710
24733WAT     H174441   2.185   6.345   2.740
24733WAT     H274442   2.334   6.378   2.683
24734WAT      O74443   7.353   7.377   2.196
24734WAT     H174444   7.326   7.343   2.286
24734WAT     H274445   7.343   7.303   2.129
24735WAT      O74446   6.787   1.845   3.239
24735WAT     H174447   6.763   1.751   3.215
24735WAT     H274448   6.848   1.845   3.318
24736WAT      O74449   3.782   8.165   1.870
24736WAT     H174450   3.820   8.256   1.884
24736WAT     H274451   3.822   8.124   1.788
24737WAT      O74452   4.067   4.384   0.285
24737WAT     H174453   4.108   4.464   0.243
24737WAT     H274454   4.005   4.339   0.220
24738WAT      O74455   2.028   3.086   2.812
24738WAT     H174456   1.951   3.083   2.875
24738WAT     H274457   2.082   3.002   2.822
24739WAT      O74458   0.454   0.649   8.229
24739WAT     H174459   0.470   0.583   8.155
24739WAT     H274460   0.532   0.710   8.237
24740WAT      O74461   0.140   2.682   4.581
24740WAT     H174462   0.078   2.617   4.536
24740WAT     H274463   0.102   2.774   4.575
24741WAT      O74464   4.957   2.552   6.040
24741WAT     H174465   4.878   2.491   6.035
24741WAT     H274466   4.987   2.574   5.947
24742WAT      O74467   1.749   2.325   9.523
24742WAT     H174468   1.722   2.229   9.520
24742WAT     H274469   1.841   2.333   9.560
24743WAT      O74470   3.840   4.568   7.975
24743WAT     H174471   3.826   4.494   7.909
24743WAT     H274472   3.938   4.586   7.984
24744WAT      O74473   2.904   3.842   0.254
24744WAT     H174474   2.915   3.797   0.343
24744WAT     H274475   2.971   3.916   0.245
24745WAT      O74476   9.830   6.848   6.017
24745WAT     H174477   9.863   6.819   6.107
24745WAT     H274478   9.757   6.787   5.987
24746WAT      O74479   6.131   5.285   4.464
24746WAT     H174480   6.071   5.344   4.518
24746WAT     H274481   6.106   5.189   4.480
24747WAT      O74482   2.489   4.079   6.659
24747WAT     H174483   2.505   3.981   6.667
24747WAT     H274484   2.534   4.126   6.735
24748WAT      O74485   8.172   9.090   5.154
24748WAT     H174486   8.175   9.189   5.148
24748WAT     H274487   8.077   9.060   5.167
24749WAT      O74488   5.906   8.326   9.465
24749WAT     H174489   5.839   8.253   9.479
24749WAT     H274490   5.973   8.295   9.397
24750WAT      O74491   6.569   2.352   2.290
24750WAT     H174492   6.557   2.253   2.289
24750WAT     H274493   6.663   2.375   2.265
24751WAT      O74494   8.648   7.096   5.061
24751WAT     H174495   8.681   7.144   5.143
24751WAT     H274496   8.584   7.154   5.012
24752WAT      O74497   9.087   1.448   5.481
24752WAT     H174498   9.111   1.483   5.571
24752WAT     H274499   8.995   1.409   5.483
24753WAT      O74500   5.886   1.057   5.848
24753WAT     H174501   5.855   1.151   5.862
24753WAT     H274502   5.950   1.032   5.921
24754WAT      O74503   1.312   6.877   8.772
24754WAT     H174504   1.217   6.904   8.780
24754WAT     H274505   1.334   6.808   8.841
24755WAT      O74506   1.414   4.841   1.759
24755WAT     H174507   1.363   4.826   1.844
24755WAT     H274508   1.437   4.938   1.751
24756WAT      O74509   1.298   3.719   2.687
24756WAT     H174510   1.202   3.747   2.684
24756WAT     H274511   1.304   3.621   2.672
24757WAT      O74512   9.844   8.475   5.404
24757WAT     H174513   9.880   8.557   5.448
24757WAT     H274514   9.750   8.459   5.434
24758WAT      O74515   4.393   1.165   3.410
24758WAT     H174516   4.322   1.181   3.479
24758WAT     H274517   4.466   1.233   3.422
24759WAT      O74518   7.980   0.577   1.957
24759WAT     H174519   8.048   0.623   1.898
24759WAT     H274520   7.891   0.620   1.945
24760WAT      O74521   5.382   1.040   6.081
24760WAT     H174522   5.413   0.992   6.162
24760WAT     H274523   5.340   1.127   6.107
24761WAT      O74524   8.594   6.857   5.183
24761WAT     H174525   8.611   6.945   5.139
24761WAT     H274526   8.570   6.789   5.113
24762WAT      O74527   6.347   9.554   5.406
24762WAT     H174528   6.264   9.501   5.388
24762WAT     H274529   6.333   9.648   5.377
24763WAT      O74530   3.814   8.510   0.823
24763WAT     H174531   3.731   8.531   0.770
24763WAT     H274532   3.805   8.547   0.915
24764WAT      O74533   8.844   2.873   0.503
24764WAT     H174534   8.832   2.907   0.410
24764WAT     H274535   8.931   2.823   0.510
24765WAT      O74536   8.016   8.006   9.219
24765WAT     H174537   7.944   7.952   9.261
24765WAT     H274538   8.030   7.977   9.125
24766WAT      O74539   6.028   7.463   6.139
24766WAT     H174540   6.068   7.476   6.229
24766WAT     H274541   6.014   7.552   6.095
24767WAT      O74542   3.652   8.912   3.622
24767WAT     H174543   3.655   8.959   3.710
24767WAT     H274544   3.692   8.970   3.551
24768WAT      O74545   8.240   4.394   4.712
24768WAT     H174546   8.227   4.297   4.730
24768WAT     H274547   8.232   4.411   4.613
24769WAT      O74548   3.969   5.500   1.344
24769WAT     H174549   3.885   5.459   1.308
24769WAT     H274550   4.013   5.435   1.405
24770WAT      O74551   2.608   3.610   4.065
24770WAT     H174552   2.511   3.588   4.066
24770WAT     H274553   2.659   3.536   4.022
24771WAT      O74554   0.273   7.152   0.717
24771WAT     H174555   0.269   7.152   0.816
24771WAT     H274556   0.345   7.214   0.686
24772WAT      O74557   5.200   6.102   0.516
24772WAT     H174558   5.290   6.094   0.560
24772WAT     H274559   5.160   6.012   0.505
24773WAT      O74560   8.237   8.136   0.954
24773WAT     H174561   8.308   8.205   0.940
24773WAT     H274562   8.213   8.132   1.051
24774WAT      O74563   3.089   4.360   3.959
24774WAT     H174564   3.124   4.269   3.980
24774WAT     H274565   3.069   4.366   3.861
24775WAT      O74566   1.301   6.688   5.303
24775WAT     H174567   1.323   6.596   5.336
24775WAT     H274568   1.264   6.682   5.210
24776WAT      O74569   9.271   0.734   7.015
24776WAT     H174570   9.335   0.661   7.035
24776WAT     H274571   9.237   0.724   6.921
24777WAT      O74572   3.276   6.315   6.472
24777WAT     H174573   3.258   6.363   6.386
24777WAT     H274574   3.317   6.379   6.538
24778WAT      O74575   4.266   2.617   1.092
24778WAT     H174576   4.253   2.715   1.109
24778WAT     H274577   4.360   2.591   1.115
24779WAT      O74578   3.338   6.690   3.062
24779WAT     H174579   3.386   6.670   2.976
24779WAT     H274580   3.320   6.788   3.067
24780WAT      O74581   1.505   6.921   7.308
24780WAT     H174582   1.586   6.937   7.364
24780WAT     H274583   1.480   7.006   7.261
24781WAT      O74584   7.145   8.797   9.378
24781WAT     H174585   7.234   8.825   9.413
24781WAT     H274586   7.096   8.876   9.343
24782WAT      O74587   0.327   4.743   6.614
24782WAT     H174588   0.398   4.776   6.676
24782WAT     H274589   0.370   4.709   6.530
24783WAT      O74590   6.568   2.191   8.764
24783WAT     H174591   6.586   2.116   8.699
24783WAT     H274592   6.603   2.166   8.854
24784WAT      O74593   7.569   0.053   1.477
24784WAT     H174594   7.497   0.032   1.411
24784WAT     H274595   7.571   0.152   1.493
24785WAT      O74596   7.884   9.092   8.936
24785WAT     H174597   7.954   9.057   8.998
24785WAT     H274598   7.881   9.192   8.943
24786WAT      O74599   5.877   9.259   5.331
24786WAT     H174600   5.974   9.237   5.323
24786WAT     H274601   5.838   9.212   5.410
24787WAT      O74602   8.359   3.683   3.761
24787WAT     H174603   8.290   3.610   3.764
24787WAT     H274604   8.449   3.642   3.747
24788WAT      O74605   6.528   2.815   4.995
24788WAT     H174606   6.551   2.758   4.916
24788WAT     H274607   6.580   2.900   4.990
24789WAT      O74608   8.674   9.012   4.498
24789WAT     H174609   8.713   8.936   4.549
24789WAT     H274610   8.593   8.981   4.448
24790WAT      O74611   6.288   9.417   1.420
24790WAT     H174612   6.259   9.327   1.387
24790WAT     H274613   6.221   9.486   1.393
24791WAT      O74614   9.877   5.395   3.662
24791WAT     H174615   9.817   5.316   3.676
24791WAT     H274616   9.841   5.474   3.711
24792WAT      O74617   8.556   7.268   8.977
24792WAT     H174618   8.598   7.205   9.043
24792WAT     H274619   8.612   7.271   8.894
24793WAT      O74620   3.817   2.439   2.991
24793WAT     H174621   3.860   2.382   3.061
24793WAT     H274622   3.858   2.530   2.992
24794WAT      O74623   6.451   1.645   6.146
24794WAT     H174624   6.505   1.637   6.230
24794WAT     H274625   6.503   1.608   6.069
24795WAT      O74626   2.860   3.416   1.072
24795WAT     H174627   2.818   3.330   1.041
24795WAT     H274628   2.899   3.403   1.163
24796WAT      O74629   5.416   2.633   3.280
24796WAT     H174630   5.484   2.564   3.305
24796WAT     H274631   5.449   2.685   3.201
24797WAT      O74632   7.986   4.013   9.426
24797WAT     H174633   7.903   4.046   9.470
24797WAT     H274634   8.029   3.942   9.482
24798WAT      O74635   0.935   6.303   4.473
24798WAT     H174636   0.884   6.303   4.558
24798WAT     H274637   1.030   6.277   4.490
24799WAT      O74638   7.887   2.754   2.828
24799WAT     H174639   7.938   2.838   2.809
24799WAT     H274640   7.904   2.726   2.923
24800WAT      O74641   6.793   3.314   2.679
24800WAT     H174642   6.885   3.286   2.706
24800WAT     H274643   6.790   3.330   2.580
24801WAT      O74644   2.140   5.496   6.462
24801WAT     H174645   2.119   5.533   6.553
24801WAT     H274646   2.159   5.570   6.399
24802WAT      O74647   2.969   4.002   5.861
24802WAT     H174648   2.921   4.084   5.892
24802WAT     H274649   2.975   3.936   5.936
24803WAT      O74650   9.138   6.245   5.798
24803WAT     H174651   9.093   6.184   5.864
24803WAT     H274652   9.182   6.189   5.727
24804WAT      O74653   1.037   0.924   6.846
24804WAT     H174654   1.134   0.939   6.865
24804WAT     H274655   0.993   1.011   6.825
24805WAT      O74656   9.385   9.174   8.995
24805WAT     H174657   9.476   9.153   9.032
24805WAT     H274658   9.371   9.273   8.996
24806WAT      O74659   4.857   0.160   3.961
24806WAT     H174660   4.895   0.252   3.955
24806WAT     H274661   4.892   0.114   4.043
24807WAT      O74662   9.020   8.980   8.971
24807WAT     H174663   8.943   8.929   8.934
24807WAT     H274664   9.022   9.072   8.933
24808WAT      O74665   7.543   3.028   8.879
24808WAT     H174666   7.532   3.043   8.977
24808WAT     H274667   7.632   3.062   8.849
24809WAT      O74668   4.239   7.385   9.077
24809WAT     H174669   4.250   7.485   9.079
24809WAT     H274670   4.282   7.349   8.994
24810WAT      O74671   9.504   9.435   1.410
24810WAT     H174672   9.491   9.348   1.457
24810WAT     H274673   9.421   9.458   1.358
24811WAT      O74674   9.290   0.995   8.358
24811WAT     H174675   9.283   1.055   8.438
24811WAT     H274676   9.298   0.900   8.388
24812WAT      O74677   6.498   3.145   4.353
24812WAT     H174678   6.467   3.117   4.262
24812WAT     H274679   6.436   3.215   4.389
24813WAT      O74680   0.798   4.327   3.565
24813WAT     H174681   0.837   4.353   3.653
24813WAT     H274682   0.754   4.238   3.572
24814WAT      O74683   1.885   1.549   3.908
24814WAT     H174684   1.984   1.536   3.900
24814WAT     H274685   1.839   1.461   3.902
24815WAT      O74686   8.216   6.869   9.357
24815WAT     H174687   8.275   6.869   9.277
24815WAT     H274688   8.120   6.872   9.327
24816WAT      O74689   1.621   6.160   2.532
24816WAT     H174690   1.661   6.199   2.615
24816WAT     H274691   1.526   6.190   2.524
24817WAT      O74692   8.003   5.970   2.943
24817WAT     H174693   7.927   5.905   2.938
24817WAT     H274694   7.982   6.042   3.009
24818WAT      O74695   0.686   4.991   6.024
24818WAT     H174696   0.633   5.048   6.087
24818WAT     H274697   0.733   5.049   5.958
24819WAT      O74698   0.098   1.535   0.319
24819WAT     H174699   0.175   1.571   0.266
24819WAT     H274700   0.069   1.603   0.386
24820WAT      O74701   4.113   8.504   5.179
24820WAT     H174702   4.112   8.430   5.113
24820WAT     H274703   4.036   8.494   5.241
24821WAT      O74704   0.030   1.685   8.643
24821WAT     H174705   0.107   1.733   8.685
24821WAT     H274706  -0.054   1.709   8.691
24822WAT      O74707   1.512   3.958   3.977
24822WAT     H174708   1.590   3.999   3.930
24822WAT     H274709   1.486   3.874   3.930
24823WAT      O74710   9.282   4.082   6.280
24823WAT     H174711   9.376   4.096   6.312
24823WAT     H274712   9.264   4.141   6.202
24824WAT      O74713   7.124   4.447   0.545
24824WAT     H174714   7.131   4.350   0.569
24824WAT     H274715   7.079   4.496   0.620
24825WAT      O74716   1.350   8.786   1.971
24825WAT     H174717   1.304   8.780   2.060
24825WAT     H274718   1.285   8.765   1.898
24826WAT      O74719   3.234   7.842   1.261
24826WAT     H174720   3.220   7.903   1.183
24826WAT     H274721   3.310   7.876   1.316
24827WAT      O74722   0.154   3.270   1.840
24827WAT     H174723   0.238   3.310   1.878
24827WAT     H274724   0.177   3.191   1.784
24828WAT      O74725   8.302   6.227   0.310
24828WAT     H174726   8.217   6.267   0.343
24828WAT     H274727   8.285   6.180   0.223
24829WAT      O74728   8.689   3.326   1.322
24829WAT     H174729   8.667   3.399   1.387
24829WAT     H274730   8.770   3.276   1.353
24830WAT      O74731   6.734   5.643   2.961
24830WAT     H174732   6.721   5.739   2.988
24830WAT     H274733   6.762   5.639   2.866
24831WAT      O74734   6.195   4.843   9.167
24831WAT     H174735   6.173   4.940   9.154
24831WAT     H274736   6.288   4.826   9.134
24832WAT      O74737   8.440   5.362   4.509
24832WAT     H174738   8.531   5.397   4.529
24832WAT     H274739   8.417   5.289   4.574
24833WAT      O74740   4.895   9.807   6.870
24833WAT     H174741   4.871   9.722   6.917
24833WAT     H274742   4.976   9.792   6.813
24834WAT      O74743   9.774   4.679   4.259
24834WAT     H174744   9.682   4.715   4.246
24834WAT     H274745   9.812   4.712   4.345
24835WAT      O74746   8.475   4.905   0.911
24835WAT     H174747   8.492   4.999   0.939
24835WAT     H274748   8.436   4.903   0.819
24836WAT      O74749   7.013   8.963   3.113
24836WAT     H174750   7.047   8.983   3.021
24836WAT     H274751   6.915   8.982   3.116
24837WAT      O74752   3.903   2.951   0.509
24837WAT     H174753   3.920   2.940   0.607
24837WAT     H274754   3.836   2.883   0.480
24838WAT      O74755   0.303   2.798   6.140
24838WAT     H174756   0.251   2.759   6.064
24838WAT     H274757   0.336   2.724   6.199
24839WAT      O74758   6.134   7.419   2.497
24839WAT     H174759   6.217   7.377   2.461
24839WAT     H274760   6.056   7.395   2.438
24840WAT      O74761   0.373   8.333   5.304
24840WAT     H174762   0.445   8.266   5.324
24840WAT     H274763   0.290   8.286   5.277
24841WAT      O74764   5.101   4.376   5.594
24841WAT     H174765   5.100   4.281   5.624
24841WAT     H274766   5.015   4.398   5.548
24842WAT      O74767   1.305   4.398   5.504
24842WAT     H174768   1.367   4.395   5.582
24842WAT     H274769   1.353   4.370   5.421
24843WAT      O74770   0.464   5.192   5.760
24843WAT     H174771   0.506   5.255   5.825
24843WAT     H274772   0.442   5.242   5.676
24844WAT      O74773   1.076   2.210   7.967
24844WAT     H174774   0.977   2.221   7.953
24844WAT     H274775   1.123   2.293   7.938
24845WAT      O74776   2.248   0.652   1.849
24845WAT     H174777   2.204   0.592   1.783
24845WAT     H274778   2.179   0.697   1.905
24846WAT      O74779   8.432   6.196   2.187
24846WAT     H174780   8.436   6.099   2.211
24846WAT     H274781   8.337   6.226   2.182
24847WAT      O74782   8.057   2.205   2.973
24847WAT     H174783   8.122   2.129   2.967
24847WAT     H274784   7.990   2.186   3.045
24848WAT      O74785   3.527   9.166   7.158
24848WAT     H174786   3.549   9.140   7.064
24848WAT     H274787   3.539   9.264   7.170
24849WAT      O74788   4.377   8.876   5.083
24849WAT     H174789   4.291   8.923   5.105
24849WAT     H274790   4.447   8.903   5.148
24850WAT      O74791   8.461   9.650   4.741
24850WAT     H174792   8.519   9.582   4.786
24850WAT     H274793   8.495   9.667   4.649
24851WAT      O74794   4.888   1.299   3.175
24851WAT     H174795   4.883   1.399   3.170
24851WAT     H274796   4.807   1.264   3.221
24852WAT      O74797   2.260   7.351   8.532
24852WAT     H174798   2.203   7.398   8.465
24852WAT     H274799   2.209   7.274   8.571
24853WAT      O74800   5.218   3.298   4.033
24853WAT     H174801   5.236   3.210   4.076
24853WAT     H274802   5.168   3.285   3.948
24854WAT      O74803   6.163   8.821   0.602
24854WAT     H174804   6.210   8.902   0.567
24854WAT     H274805   6.064   8.833   0.593
24855WAT      O74806   8.062   8.671   3.142
24855WAT     H174807   8.067   8.575   3.117
24855WAT     H274808   8.137   8.721   3.099
24856WAT      O74809   2.741   4.221   5.899
24856WAT     H174810   2.660   4.217   5.840
24856WAT     H274811   2.713   4.228   5.995
24857WAT      O74812   8.791   3.608   0.363
24857WAT     H174813   8.773   3.629   0.267
24857WAT     H274814   8.865   3.666   0.397
24858WAT      O74815   2.622   4.979   0.138
24858WAT     H174816   2.567   4.896   0.144
24858WAT     H274817   2.563   5.056   0.113
24859WAT      O74818   9.404   4.823   1.017
24859WAT     H174819   9.372   4.871   1.099
24859WAT     H274820   9.419   4.727   1.039
24860WAT      O74821   9.319   7.157   3.827
24860WAT     H174822   9.277   7.177   3.915
24860WAT     H274823   9.294   7.227   3.760
24861WAT      O74824   8.616   8.696   4.137
24861WAT     H174825   8.582   8.608   4.103
24861WAT     H274826   8.538   8.752   4.166
24862WAT      O74827   1.339   1.681   8.808
24862WAT     H174828   1.343   1.710   8.713
24862WAT     H274829   1.247   1.645   8.828
24863WAT      O74830   3.927   3.398   8.200
24863WAT     H174831   3.920   3.449   8.286
24863WAT     H274832   3.894   3.305   8.213
24864WAT      O74833   7.065   9.318   3.047
24864WAT     H174834   7.084   9.330   3.144
24864WAT     H274835   7.147   9.282   3.002
24865WAT      O74836   4.129   0.803   9.577
24865WAT     H174837   4.135   0.724   9.516
24865WAT     H274838   4.127   0.773   9.672
24866WAT      O74839   1.608   2.578   9.004
24866WAT     H174840   1.596   2.518   9.083
24866WAT     H274841   1.663   2.532   8.934
24867WAT      O74842   4.729   1.101   5.216
24867WAT     H174843   4.770   1.045   5.143
24867WAT     H274844   4.787   1.096   5.297
24868WAT      O74845   3.463   0.194   2.815
24868WAT     H174846   3.548   0.172   2.863
24868WAT     H274847   3.467   0.288   2.782
24869WAT      O74848   7.888   0.033   3.741
24869WAT     H174849   7.816   0.021   3.673
24869WAT     H274850   7.976   0.004   3.703
24870WAT      O74851   6.754   9.450   8.286
24870WAT     H174852   6.782   9.419   8.195
24870WAT     H274853   6.690   9.526   8.276
24871WAT      O74854   0.580   6.686   2.376
24871WAT     H174855   0.646   6.610   2.380
24871WAT     H274856   0.624   6.765   2.333
24872WAT      O74857   3.225   2.167   1.319
24872WAT     H174858   3.302   2.190   1.379
24872WAT     H274859   3.169   2.248   1.303
24873WAT      O74860   1.095   8.439   4.380
24873WAT     H174861   1.132   8.517   4.331
24873WAT     H274862   1.054   8.375   4.315
24874WAT      O74863   5.110   0.789   0.123
24874WAT     H174864   5.165   0.872   0.114
24874WAT     H274865   5.063   0.770   0.037
24875WAT      O74866   1.714   5.604   6.551
24875WAT     H174867   1.753   5.515   6.530
24875WAT     H274868   1.665   5.639   6.471
24876WAT      O74869   3.406   6.458   8.636
24876WAT     H174870   3.356   6.397   8.697
24876WAT     H274871   3.370   6.450   8.543
24877WAT      O74872   6.300   7.749   1.884
24877WAT     H174873   6.270   7.836   1.845
24877WAT     H274874   6.390   7.759   1.926
24878WAT      O74875   1.063   2.017   9.715
24878WAT     H174876   1.037   2.000   9.810
24878WAT     H274877   1.014   2.098   9.681
24879WAT      O74878   7.966   5.029   8.468
24879WAT     H174879   7.889   5.035   8.405
24879WAT     H274880   8.041   4.980   8.424
24880WAT      O74881   9.098   2.171   6.828
24880WAT     H174882   9.175   2.234   6.817
24880WAT     H274883   9.029   2.213   6.888
24881WAT      O74884   4.292   8.488   3.678
24881WAT     H174885   4.333   8.399   3.698
24881WAT     H274886   4.358   8.560   3.698
24882WAT      O74887   1.196   5.611   3.694
24882WAT     H174888   1.286   5.605   3.737
24882WAT     H274889   1.178   5.706   3.668
24883WAT      O74890   1.854   6.813   4.415
24883WAT     H174891   1.908   6.895   4.429
24883WAT     H274892   1.905   6.733   4.447
24884WAT      O74893   1.347   6.101   3.361
24884WAT     H174894   1.445   6.110   3.376
24884WAT     H274895   1.300   6.178   3.404
24885WAT      O74896   4.297   4.838   9.241
24885WAT     H174897   4.364   4.874   9.175
24885WAT     H274898   4.229   4.783   9.194
24886WAT      O74899   0.009   0.140   1.983
24886WAT     H174900  -0.028   0.053   2.013
24886WAT     H274901   0.044   0.132   1.890
24887WAT      O74902   4.038   3.338   5.790
24887WAT     H174903   4.129   3.296   5.787
24887WAT     H274904   4.043   3.431   5.755
24888WAT      O74905   6.824   1.677   0.403
24888WAT     H174906   6.763   1.727   0.465
24888WAT     H274907   6.918   1.708   0.417
24889WAT      O74908   8.206   3.781   3.296
24889WAT     H174909   8.282   3.754   3.356
24889WAT     H274910   8.182   3.704   3.237
24890WAT      O74911   6.835   1.175   9.342
24890WAT     H174912   6.922   1.164   9.389
24890WAT     H274913   6.784   1.089   9.346
24891WAT      O74914   0.669   2.097   4.288
24891WAT     H174915   0.661   2.182   4.235
24891WAT     H274916   0.584   2.080   4.337
24892WAT      O74917   6.239   0.145   4.619
24892WAT     H174918   6.185   0.112   4.696
24892WAT     H274919   6.228   0.083   4.541
24893WAT      O74920   4.000   3.988   3.511
24893WAT     H174921   4.068   3.985   3.583
24893WAT     H274922   3.921   4.042   3.541
24894WAT      O74923   3.408   9.839   2.191
24894WAT     H174924   3.452   9.929   2.189
24894WAT     H274925   3.390   9.813   2.286
24895WAT      O74926   0.984   4.029   8.057
24895WAT     H174927   1.049   4.098   8.025
24895WAT     H274928   0.897   4.041   8.010
24896WAT      O74929   1.973   1.401   2.876
24896WAT     H174930   1.883   1.396   2.918
24896WAT     H274931   2.042   1.362   2.938
24897WAT      O74932   8.940   9.418   7.069
24897WAT     H174933   8.947   9.396   6.972
24897WAT     H274934   8.909   9.513   7.079
24898WAT      O74935   5.318   0.092   3.389
24898WAT     H174936   5.302   0.004   3.433
24898WAT     H274937   5.402   0.132   3.425
24899WAT      O74938   2.560   0.337   4.413
24899WAT     H174939   2.587   0.349   4.509
24899WAT     H274940   2.527   0.424   4.376
24900WAT      O74941   4.343   7.887   9.342
24900WAT     H174942   4.358   7.811   9.406
24900WAT     H274943   4.262   7.938   9.370
24901WAT      O74944   2.992   2.352   9.248
24901WAT     H174945   2.912   2.295   9.261
24901WAT     H274946   2.983   2.436   9.301
24902WAT      O74947   1.312   0.997   6.822
24902WAT     H174948   1.363   0.971   6.740
24902WAT     H274949   1.372   0.994   6.902
24903WAT      O74950   5.773   3.222   1.544
24903WAT     H174951   5.846   3.209   1.611
24903WAT     H274952   5.696   3.163   1.567
24904WAT      O74953   7.200   6.846   9.568
24904WAT     H174954   7.190   6.823   9.665
24904WAT     H274955   7.129   6.800   9.515
24905WAT      O74956   0.527   6.907   1.718
24905WAT     H174957   0.508   6.880   1.624
24905WAT     H274958   0.442   6.913   1.769
24906WAT      O74959   5.424   8.835   8.177
24906WAT     H174960   5.510   8.801   8.214
24906WAT     H274961   5.361   8.856   8.252
24907WAT      O74962   4.032   8.679   9.714
24907WAT     H174963   4.067   8.773   9.712
24907WAT     H274964   4.033   8.641   9.622
24908WAT      O74965   2.691   7.958   7.909
24908WAT     H174966   2.719   7.892   7.839
24908WAT     H274967   2.613   7.922   7.960
24909WAT      O74968   6.652   9.394   4.070
24909WAT     H174969   6.598   9.335   4.130
24909WAT     H274970   6.707   9.338   4.009
24910WAT      O74971   4.634   9.597   5.324
24910WAT     H174972   4.567   9.618   5.253
24910WAT     H274973   4.704   9.669   5.326
24911WAT      O74974   2.227   3.361   0.929
24911WAT     H174975   2.165   3.342   1.005
24911WAT     H274976   2.313   3.313   0.943
24912WAT      O74977   4.780   6.738   9.644
24912WAT     H174978   4.799   6.719   9.548
24912WAT     H274979   4.725   6.822   9.652
24913WAT      O74980   6.041   9.182   8.746
24913WAT     H174981   6.020   9.131   8.662
24913WAT     H274982   6.064   9.276   8.723
24914WAT      O74983   6.669   1.640   8.556
24914WAT     H174984   6.764   1.651   8.526
24914WAT     H274985   6.658   1.682   8.646
24915WAT      O74986   1.930   9.633   7.676
24915WAT     H174987   1.941   9.730   7.659
24915WAT     H274988   2.018   9.592   7.700
24916WAT      O74989   7.291   8.503   3.559
24916WAT     H174990   7.367   8.439   3.573
24916WAT     H274991   7.326   8.590   3.524
24917WAT      O74992   4.851   6.426   2.828
24917WAT     H174993   4.841   6.327   2.840
24917WAT     H274994   4.863   6.470   2.917
24918WAT      O74995   9.836   5.807   2.813
24918WAT     H174996   9.804   5.811   2.907
24918WAT     H274997   9.920   5.752   2.808
24919WAT      O74998   5.198   9.304   6.053
24919WAT     H174999   5.218   9.253   5.970
24919WAT     H275000   5.106   9.342   6.048
24920WAT      O75001   7.206   7.178   8.508
24920WAT     H175002   7.277   7.189   8.439
24920WAT     H275003   7.121   7.150   8.464
24921WAT      O75004   4.751   6.355   1.467
24921WAT     H175005   4.704   6.333   1.381
24921WAT     H275006   4.769   6.271   1.518
24922WAT      O75007   2.736   1.505   5.618
24922WAT     H175008   2.667   1.437   5.594
24922WAT     H275009   2.771   1.487   5.709
24923WAT      O75010   0.027   6.517   6.791
24923WAT     H175011   0.006   6.613   6.773
24923WAT     H275012  -0.049   6.474   6.838
24924WAT      O75013   8.973   3.203   0.522
24924WAT     H175014   9.055   3.164   0.565
24924WAT     H275015   8.896   3.196   0.585
24925WAT      O75016   7.584   3.013   3.927
24925WAT     H175017   7.633   2.926   3.940
24925WAT     H275018   7.559   3.049   4.017
24926WAT      O75019   6.086   8.518   9.548
24926WAT     H175020   6.108   8.566   9.464
24926WAT     H275021   6.017   8.448   9.530
24927WAT      O75022   6.951   4.026   1.934
24927WAT     H175023   6.923   3.949   1.876
24927WAT     H275024   7.050   4.021   1.950
24928WAT      O75025   8.495   3.651   1.795
24928WAT     H175026   8.535   3.741   1.812
24928WAT     H275027   8.569   3.585   1.779
24929WAT      O75028   5.593   5.053   6.753
24929WAT     H175029   5.646   5.091   6.829
24929WAT     H275030   5.520   4.995   6.790
24930WAT      O75031   5.605   1.358   2.381
24930WAT     H175032   5.633   1.276   2.331
24930WAT     H275033   5.545   1.413   2.324
24931WAT      O75034   6.604   9.810   0.266
24931WAT     H175035   6.645   9.796   0.175
24931WAT     H275036   6.513   9.850   0.256
24932WAT      O75037   7.073   0.296   3.076
24932WAT     H175038   7.166   0.261   3.074
24932WAT     H275039   7.072   0.387   3.117
24933WAT      O75040   4.842   6.130   2.767
24933WAT     H175041   4.775   6.076   2.819
24933WAT     H275042   4.843   6.100   2.672
24934WAT      O75043   0.611   1.458   9.265
24934WAT     H175044   0.645   1.542   9.223
24934WAT     H275045   0.623   1.382   9.202
24935WAT      O75046   1.366   6.504   6.174
24935WAT     H175047   1.326   6.536   6.088
24935WAT     H275048   1.316   6.425   6.207
24936WAT      O75049   4.465   6.582   5.834
24936WAT     H175050   4.494   6.512   5.899
24936WAT     H275051   4.544   6.612   5.780
24937WAT      O75052   8.241   7.816   7.813
24937WAT     H175053   8.172   7.886   7.797
24937WAT     H275054   8.226   7.775   7.903
24938WAT      O75055   9.450   7.159   5.860
24938WAT     H175056   9.461   7.138   5.957
24938WAT     H275057   9.404   7.247   5.850
24939WAT      O75058   4.385   9.321   2.088
24939WAT     H175059   4.302   9.335   2.034
24939WAT     H275060   4.366   9.254   2.160
24940WAT      O75061   0.562   0.012   6.481
24940WAT     H175062   0.563  -0.085   6.505
24940WAT     H275063   0.477   0.034   6.434
24941WAT      O75064   0.525   1.135   7.556
24941WAT     H175065   0.484   1.087   7.479
24941WAT     H275066   0.453   1.179   7.611
24942WAT      O75067   6.028   4.525   2.120
24942WAT     H175068   6.036   4.606   2.062
24942WAT     H275069   6.113   4.473   2.116
24943WAT      O75070   3.268   5.066   4.171
24943WAT     H175071   3.355   5.114   4.185
24943WAT     H275072   3.284   4.967   4.168
24944WAT      O75073   2.969   3.136   0.514
24944WAT     H175074   3.053   3.118   0.565
24944WAT     H275075   2.897   3.166   0.576
24945WAT      O75076   4.278   2.433   3.610
24945WAT     H175077   4.371   2.396   3.603
24945WAT     H275078   4.275   2.524   3.569
24946WAT      O75079   0.726   3.403   5.395
24946WAT     H175080   0.690   3.376   5.305
24946WAT     H275081   0.815   3.448   5.383
24947WAT      O75082   2.682   3.007   1.989
24947WAT     H175083   2.622   3.008   1.909
24947WAT     H275084   2.773   2.977   1.963
24948WAT      O75085   1.497   3.488   0.785
24948WAT     H175086   1.547   3.491   0.698
24948WAT     H275087   1.530   3.561   0.845
24949WAT      O75088   3.117   9.337   5.576
24949WAT     H175089   3.142   9.308   5.668
24949WAT     H275090   3.062   9.421   5.582
24950WAT      O75091   8.680   3.210   0.009
24950WAT     H175092   8.679   3.135   0.074
24950WAT     H275093   8.700   3.296   0.057
24951WAT      O75094   8.739   4.721   6.030
24951WAT     H175095   8.729   4.817   6.005
24951WAT     H275096   8.648   4.680   6.042
24952WAT      O75097   6.054   3.065   3.664
24952WAT     H175098   6.062   2.970   3.694
24952WAT     H275099   6.134   3.090   3.611
24953WAT      O75100   8.736   8.778   5.084
24953WAT     H175101   8.646   8.735   5.086
24953WAT     H275102   8.806   8.707   5.074
24954WAT      O75103   1.464   8.532   1.141
24954WAT     H175104   1.547   8.580   1.111
24954WAT     H275105   1.456   8.445   1.093
24955WAT      O75106   1.144   1.392   2.620
24955WAT     H175107   1.103   1.302   2.614
24955WAT     H275108   1.168   1.424   2.528
24956WAT      O75109   0.636   5.917   4.012
24956WAT     H175110   0.715   5.878   4.059
24956WAT     H275111   0.611   6.003   4.055
24957WAT      O75112   4.588   0.391   0.853
24957WAT     H175113   4.541   0.349   0.931
24957WAT     H275114   4.536   0.373   0.770
24958WAT      O75115   0.368   8.299   3.748
24958WAT     H175116   0.409   8.266   3.833
24958WAT     H275117   0.349   8.222   3.688
24959WAT      O75118   5.949   0.842   3.845
24959WAT     H175119   5.986   0.928   3.810
24959WAT     H275120   5.928   0.852   3.943
24960WAT      O75121   3.297   4.978   0.158
24960WAT     H175122   3.231   4.933   0.098
24960WAT     H275123   3.301   4.930   0.246
24961WAT      O75124   6.008   9.244   6.592
24961WAT     H175125   5.923   9.214   6.549
24961WAT     H275126   5.988   9.277   6.685
24962WAT      O75127   5.547   0.549   8.019
24962WAT     H175128   5.606   0.479   8.059
24962WAT     H275129   5.488   0.588   8.090
24963WAT      O75130   6.798   7.052   7.650
24963WAT     H175131   6.842   7.016   7.568
24963WAT     H275132   6.759   6.977   7.703
24964WAT      O75133   4.735   0.853   2.771
24964WAT     H175134   4.679   0.771   2.772
24964WAT     H275135   4.701   0.918   2.840
24965WAT      O75136   4.826   8.116   5.427
24965WAT     H175137   4.887   8.039   5.408
24965WAT     H275138   4.732   8.089   5.406
24966WAT      O75139   5.883   6.624   9.664
24966WAT     H175140   5.950   6.691   9.695
24966WAT     H275141   5.808   6.618   9.731
24967WAT      O75142   3.883   3.121   8.279
24967WAT     H175143   3.946   3.129   8.356
24967WAT     H275144   3.790   3.106   8.313
24968WAT      O75145   6.751   7.156   8.629
24968WAT     H175146   6.658   7.120   8.623
24968WAT     H275147   6.750   7.243   8.678
24969WAT      O75148   7.934   1.211   1.554
24969WAT     H175149   7.851   1.198   1.608
24969WAT     H275150   7.991   1.130   1.559
24970WAT      O75151   0.314   3.561   4.936
24970WAT     H175152   0.225   3.600   4.958
24970WAT     H275153   0.332   3.482   4.995
24971WAT      O75154   8.591   6.657   1.868
24971WAT     H175155   8.655   6.611   1.929
24971WAT     H275156   8.509   6.683   1.919
24972WAT      O75157   3.794   6.802   4.655
24972WAT     H175158   3.814   6.721   4.599
24972WAT     H275159   3.747   6.774   4.738
24973WAT      O75160   9.256   1.041   2.338
24973WAT     H175161   9.253   1.087   2.427
24973WAT     H275162   9.323   1.087   2.279
24974WAT      O75163   5.312   7.901   6.207
24974WAT     H175164   5.333   7.886   6.304
24974WAT     H275165   5.293   7.813   6.163
24975WAT      O75166   5.118   8.495   9.021
24975WAT     H175167   5.136   8.442   9.104
24975WAT     H275168   5.100   8.433   8.945
24976WAT      O75169   4.721   2.517   5.362
24976WAT     H175170   4.787   2.456   5.319
24976WAT     H275171   4.721   2.605   5.314
24977WAT      O75172   0.277   3.742   8.440
24977WAT     H175173   0.280   3.821   8.378
24977WAT     H275174   0.287   3.773   8.534
24978WAT      O75175   4.902   4.289   8.393
24978WAT     H175176   4.806   4.267   8.409
24978WAT     H275177   4.947   4.211   8.350
24979WAT      O75178   1.081   4.314   6.718
24979WAT     H175179   1.066   4.216   6.730
24979WAT     H275180   1.045   4.343   6.629
24980WAT      O75181   9.670   6.399   6.981
24980WAT     H175182   9.670   6.311   7.027
24980WAT     H275183   9.628   6.390   6.891
24981WAT      O75184   1.634   3.495   2.822
24981WAT     H175185   1.582   3.475   2.905
24981WAT     H275186   1.580   3.555   2.762
24982WAT      O75187   7.897   5.672   3.252
24982WAT     H175188   7.815   5.621   3.226
24982WAT     H275189   7.902   5.678   3.352
24983WAT      O75190   5.900   4.498   4.209
24983WAT     H175191   5.863   4.553   4.283
24983WAT     H275192   5.998   4.517   4.199
24984WAT      O75193   6.210   8.153   3.723
24984WAT     H175194   6.241   8.092   3.650
24984WAT     H275195   6.198   8.101   3.807
24985WAT      O75196   7.402   8.116   6.291
24985WAT     H175197   7.408   8.032   6.345
24985WAT     H275198   7.326   8.172   6.324
24986WAT      O75199   2.636   9.304   9.477
24986WAT     H175200   2.611   9.334   9.385
24986WAT     H275201   2.635   9.204   9.481
24987WAT      O75202   4.252   5.345   4.223
24987WAT     H175203   4.214   5.436   4.210
24987WAT     H275204   4.338   5.337   4.173
24988WAT      O75205   6.414   0.557   1.870
24988WAT     H175206   6.436   0.621   1.944
24988WAT     H275207   6.390   0.608   1.788
24989WAT      O75208   7.996   3.292   0.384
24989WAT     H175209   7.975   3.213   0.441
24989WAT     H275210   8.067   3.268   0.317
24990WAT      O75211   7.975   6.743   4.163
24990WAT     H175212   7.988   6.644   4.152
24990WAT     H275213   8.030   6.791   4.094
24991WAT      O75214   7.453   9.564   8.409
24991WAT     H175215   7.364   9.545   8.451
24991WAT     H275216   7.521   9.501   8.446
24992WAT      O75217   9.661   9.241   6.337
24992WAT     H175218   9.577   9.195   6.310
24992WAT     H275219   9.690   9.206   6.427
24993WAT      O75220   5.802   4.907   6.339
24993WAT     H175221   5.848   4.835   6.288
24993WAT     H275222   5.844   4.915   6.430
24994WAT      O75223   8.322   3.470   2.926
24994WAT     H175224   8.338   3.372   2.938
24994WAT     H275225   8.249   3.485   2.859
24995WAT      O75226   1.185   3.734   3.713
24995WAT     H175227   1.105   3.716   3.770
24995WAT     H275228   1.230   3.648   3.690
24996WAT      O75229   9.425   7.233   7.727
24996WAT     H175230   9.501   7.195   7.779
24996WAT     H275231   9.460   7.293   7.655
24997WAT      O75232   3.318   0.855   1.680
24997WAT     H175233   3.385   0.928   1.669
24997WAT     H275234   3.287   0.853   1.775
24998WAT      O75235   6.501   1.911   5.375
24998WAT     H175236   6.480   1.825   5.329
24998WAT     H275237   6.466   1.987   5.321
24999WAT      O75238   8.199   0.197   7.976
24999WAT     H175239   8.284   0.249   7.968
24999WAT     H275240   8.213   0.105   7.938
25000WAT      O75241   1.022   6.231   6.315
25000WAT     H175242   0.970   6.311   6.286
25000WAT     H275243   0.977   6.148   6.280
25001WAT      O75244   9.091   5.942   9.364
25001WAT     H175245   9.011   5.945   9.423
25001WAT     H275246   9.168   5.987   9.410
25002WAT      O75247   5.929   9.145   7.022
25002WAT     H175248   5.901   9.056   7.058
25002WAT     H275249   5.925   9.213   7.095
25003WAT      O75250   2.956   8.369   8.742
25003WAT     H175251   2.860   8.397   8.734
25003WAT     H275252   2.964   8.298   8.812
25004WAT      O75253   4.204   5.991   1.770
25004WAT     H175254   4.157   5.903   1.783
25004WAT     H275255   4.206   6.040   1.857
25005WAT      O75256   7.250   6.422   4.620
25005WAT     H175257   7.199   6.473   4.550
25005WAT     H275258   7.302   6.348   4.575
25006WAT      O75259   4.680   6.287   3.054
25006WAT     H175260   4.663   6.377   3.094
25006WAT     H275261   4.638   6.282   2.964
25007WAT      O75262   5.781   1.334   9.512
25007WAT     H175263   5.801   1.432   9.511
25007WAT     H275264   5.761   1.305   9.606
25008WAT      O75265   8.666   8.848   6.679
25008WAT     H175266   8.647   8.764   6.627
25008WAT     H275267   8.601   8.855   6.755
25009WAT      O75268   2.590   5.181   2.604
25009WAT     H175269   2.681   5.177   2.562
25009WAT     H275270   2.523   5.138   2.543
25010WAT      O75271   9.017   1.363   2.065
25010WAT     H175272   9.093   1.358   2.130
25010WAT     H275273   9.045   1.418   1.986
25011WAT      O75274   0.944   7.897   8.165
25011WAT     H175275   0.900   7.871   8.078
25011WAT     H275276   0.989   7.986   8.154
25012WAT      O75277   5.446   6.613   0.463
25012WAT     H175278   5.470   6.533   0.518
25012WAT     H275279   5.403   6.583   0.377
25013WAT      O75280   5.538   9.455   6.995
25013WAT     H175281   5.593   9.520   6.942
25013WAT     H275282   5.524   9.490   7.087
25014WAT      O75283   2.559   8.862   5.058
25014WAT     H175284   2.529   8.872   4.963
25014WAT     H275285   2.594   8.949   5.092
25015WAT      O75286   4.979   3.768   5.886
25015WAT     H175287   4.996   3.843   5.951
25015WAT     H275288   5.052   3.701   5.894
25016WAT      O75289   6.048   0.269   7.807
25016WAT     H175290   5.965   0.324   7.796
25016WAT     H275291   6.128   0.326   7.784
25017WAT      O75292   1.803   7.979   7.777
25017WAT     H175293   1.846   8.029   7.853
25017WAT     H275294   1.704   7.984   7.786
25018WAT      O75295   6.301   0.352   9.011
25018WAT     H175296   6.367   0.292   9.058
25018WAT     H275297   6.246   0.401   9.079
25019WAT      O75298   6.259   4.394   2.059
25019WAT     H175299   6.314   4.475   2.038
25019WAT     H275300   6.319   4.322   2.093
25020WAT      O75301   0.946   8.887   4.640
25020WAT     H175302   1.019   8.953   4.625
25020WAT     H275303   0.966   8.833   4.722
25021WAT      O75304   0.663   9.652   3.270
25021WAT     H175305   0.711   9.623   3.187
25021WAT     H275306   0.638   9.571   3.323
25022WAT      O75307   1.640   7.022   0.219
25022WAT     H175308   1.583   7.004   0.139
25022WAT     H275309   1.736   7.008   0.196
25023WAT      O75310   2.320   1.562   6.593
25023WAT     H175311   2.276   1.476   6.620
25023WAT     H275312   2.371   1.548   6.508
25024WAT      O75313   0.059   1.355   8.002
25024WAT     H175314   0.056   1.256   8.010
25024WAT     H275315   0.128   1.392   8.065
25025WAT      O75316   3.473   8.808   9.590
25025WAT     H175317   3.571   8.786   9.594
25025WAT     H275318   3.443   8.807   9.495
25026WAT      O75319   2.814   6.361   6.379
25026WAT     H175320   2.885   6.346   6.448
25026WAT     H275321   2.727   6.328   6.414
25027WAT      O75322   6.495   4.549   3.639
25027WAT     H175323   6.561   4.485   3.678
25027WAT     H275324   6.403   4.508   3.643
25028WAT      O75325   1.056   6.019   9.677
25028WAT     H175326   0.987   6.060   9.737
25028WAT     H275327   1.011   5.978   9.598
25029WAT      O75328   0.064   7.383   8.234
25029WAT     H175329  -0.031   7.411   8.247
25029WAT     H275330   0.075   7.338   8.145
25030WAT      O75331   8.368   8.675   6.995
25030WAT     H175332   8.454   8.657   7.043
25030WAT     H275333   8.292   8.667   7.060
25031WAT      O75334   3.076   1.637   4.304
25031WAT     H175335   2.979   1.632   4.327
25031WAT     H275336   3.125   1.688   4.375
25032WAT      O75337   7.357   7.190   0.727
25032WAT     H175338   7.431   7.124   0.736
25032WAT     H275339   7.393   7.282   0.742
25033WAT      O75340   4.691   7.829   7.937
25033WAT     H175341   4.616   7.810   8.000
25033WAT     H275342   4.770   7.772   7.961
25034WAT      O75343   3.338   8.285   3.147
25034WAT     H175344   3.405   8.268   3.074
25034WAT     H275345   3.341   8.382   3.173
25035WAT      O75346   1.406   2.751   8.108
25035WAT     H175347   1.426   2.693   8.029
25035WAT     H275348   1.419   2.698   8.192
25036WAT      O75349   4.093   1.246   4.204
25036WAT     H175350   4.078   1.163   4.258
25036WAT     H275351   4.053   1.324   4.251
25037WAT      O75352   0.521   2.073   8.836
25037WAT     H175353   0.430   2.113   8.842
25037WAT     H275354   0.530   1.999   8.903
25038WAT      O75355   0.390   3.290   9.545
25038WAT     H175356   0.477   3.332   9.574
25038WAT     H275357   0.322   3.362   9.533
25039WAT      O75358   8.966   5.886   0.768
25039WAT     H175359   8.872   5.871   0.800
25039WAT     H275360   9.005   5.965   0.816
25040WAT      O75361   3.479   7.282   4.820
25040WAT     H175362   3.538   7.211   4.860
25040WAT     H275363   3.531   7.334   4.753
25041WAT      O75364   7.714   1.357   3.609
25041WAT     H175365   7.812   1.342   3.593
25041WAT     H275366   7.673   1.399   3.528
25042WAT      O75367   4.044   8.004   9.772
25042WAT     H175368   4.136   7.968   9.756
25042WAT     H275369   3.980   7.961   9.708
25043WAT      O75370   4.248   4.477   2.358
25043WAT     H175371   4.300   4.412   2.304
25043WAT     H275372   4.305   4.558   2.377
25044WAT      O75373   3.660   3.409   5.423
25044WAT     H175374   3.747   3.364   5.445
25044WAT     H275375   3.644   3.483   5.489
25045WAT      O75376   1.454   4.533   8.907
25045WAT     H175377   1.466   4.470   8.830
25045WAT     H275378   1.531   4.524   8.970
25046WAT      O75379   0.388   4.700   7.596
25046WAT     H175380   0.468   4.759   7.594
25046WAT     H275381   0.383   4.648   7.511
25047WAT      O75382   7.954   3.633   7.714
25047WAT     H175383   8.047   3.671   7.718
25047WAT     H275384   7.933   3.590   7.802
25048WAT      O75385   6.346   6.462   6.871
25048WAT     H175386   6.360   6.369   6.905
25048WAT     H275387   6.248   6.485   6.875
25049WAT      O75388   7.209   7.988   8.384
25049WAT     H175389   7.301   8.021   8.365
25049WAT     H275390   7.165   8.047   8.451
25050WAT      O75391   5.258   0.042   5.411
25050WAT     H175392   5.161   0.021   5.397
25050WAT     H275393   5.314  -0.022   5.357
25051WAT      O75394   2.742   1.835   6.067
25051WAT     H175395   2.765   1.877   6.155
25051WAT     H275396   2.789   1.883   5.994
25052WAT      O75397   3.237   3.240   8.860
25052WAT     H175398   3.317   3.224   8.918
25052WAT     H275399   3.169   3.293   8.911
25053WAT      O75400   8.754   0.709   9.262
25053WAT     H175401   8.738   0.621   9.307
25053WAT     H275402   8.745   0.782   9.330
25054WAT      O75403   3.895   2.233   5.855
25054WAT     H175404   3.814   2.174   5.848
25054WAT     H275405   3.867   2.328   5.863
25055WAT      O75406   8.622   0.523   1.425
25055WAT     H175407   8.551   0.453   1.415
25055WAT     H275408   8.685   0.495   1.497
25056WAT      O75409   0.722   0.373   8.157
25056WAT     H175410   0.655   0.440   8.126
25056WAT     H275411   0.677   0.284   8.170
25057WAT      O75412   7.424   8.666   0.532
25057WAT     H175413   7.357   8.643   0.602
25057WAT     H275414   7.476   8.746   0.561
25058WAT      O75415   3.427   5.950   5.588
25058WAT     H175416   3.471   5.905   5.511
25058WAT     H275417   3.377   5.882   5.642
25059WAT      O75418   0.165   4.364   5.228
25059WAT     H175419   0.104   4.442   5.236
25059WAT     H275420   0.183   4.326   5.319
25060WAT      O75421   2.101   9.618   6.417
25060WAT     H175422   2.138   9.625   6.324
25060WAT     H275423   2.103   9.522   6.446
25061WAT      O75424   4.796   7.400   9.859
25061WAT     H175425   4.809   7.325   9.925
25061WAT     H275426   4.874   7.404   9.797
25062WAT      O75427   3.393   2.770   1.286
25062WAT     H175428   3.375   2.682   1.328
25062WAT     H275429   3.308   2.823   1.283
25063WAT      O75430   5.287   3.332   7.331
25063WAT     H175431   5.350   3.367   7.400
25063WAT     H275432   5.327   3.342   7.240
25064WAT      O75433   2.392   4.473   4.211
25064WAT     H175434   2.463   4.493   4.144
25064WAT     H275435   2.415   4.518   4.298
25065WAT      O75436   8.330   6.183   5.897
25065WAT     H175437   8.412   6.157   5.948
25065WAT     H275438   8.354   6.202   5.802
25066WAT      O75439   5.933   4.223   2.936
25066WAT     H175440   6.018   4.261   2.902
25066WAT     H275441   5.873   4.201   2.859
25067WAT      O75442   1.527   1.580   1.047
25067WAT     H175443   1.621   1.548   1.063
25067WAT     H275444   1.471   1.503   1.016
25068WAT      O75445   6.709   0.206   9.861
25068WAT     H175446   6.761   0.278   9.906
25068WAT     H275447   6.612   0.215   9.884
25069WAT      O75448   0.781   6.616   9.275
25069WAT     H175449   0.768   6.713   9.295
25069WAT     H275450   0.843   6.576   9.342
25070WAT      O75451   9.498   2.758   1.470
25070WAT     H175452   9.434   2.810   1.527
25070WAT     H275453   9.562   2.708   1.529
25071WAT      O75454   6.332   9.602   0.740
25071WAT     H175455   6.344   9.696   0.772
25071WAT     H275456   6.283   9.549   0.809
25072WAT      O75457   7.867   6.859   4.379
25072WAT     H175458   7.884   6.953   4.350
25072WAT     H275459   7.902   6.796   4.310
25073WAT      O75460   8.681   1.074   0.166
25073WAT     H175461   8.709   1.015   0.242
25073WAT     H275462   8.671   1.168   0.200
25074WAT      O75463   6.526   2.088   2.274
25074WAT     H175464   6.543   2.089   2.175
25074WAT     H275465   6.507   1.995   2.304
25075WAT      O75466   9.638   4.590   2.627
25075WAT     H175467   9.715   4.542   2.670
25075WAT     H275468   9.623   4.552   2.536
25076WAT      O75469   7.873   0.748   9.490
25076WAT     H175470   7.970   0.747   9.516
25076WAT     H275471   7.839   0.842   9.492
25077WAT      O75472   7.439   7.494   5.755
25077WAT     H175473   7.457   7.537   5.667
25077WAT     H275474   7.461   7.558   5.829
25078WAT      O75475   4.191   4.021   0.626
25078WAT     H175476   4.098   3.998   0.656
25078WAT     H275477   4.188   4.063   0.535
25079WAT      O75478   5.185   9.005   1.939
25079WAT     H175479   5.222   9.096   1.953
25079WAT     H275480   5.235   8.960   1.864
25080WAT      O75481   4.042   0.543   8.950
25080WAT     H175482   4.028   0.479   9.026
25080WAT     H275483   3.960   0.599   8.939
25081WAT      O75484   9.637   1.246   0.567
25081WAT     H175485   9.549   1.221   0.527
25081WAT     H275486   9.710   1.208   0.511
25082WAT      O75487   7.108   4.033   5.973
25082WAT     H175488   7.188   4.090   5.953
25082WAT     H275489   7.040   4.044   5.900
25083WAT      O75490   4.242   8.204   6.027
25083WAT     H175491   4.178   8.142   5.983
25083WAT     H275492   4.279   8.268   5.959
25084WAT      O75493   4.150   0.853   1.354
25084WAT     H175494   4.157   0.758   1.325
25084WAT     H275495   4.129   0.911   1.275
25085WAT      O75496   8.155   1.504   1.043
25085WAT     H175497   8.215   1.469   1.115
25085WAT     H275498   8.208   1.522   0.961
25086WAT      O75499   2.298   6.994   2.575
25086WAT     H175500   2.222   7.057   2.557
25086WAT     H275501   2.265   6.900   2.573
25087WAT      O75502   4.383   8.426   0.857
25087WAT     H175503   4.477   8.458   0.841
25087WAT     H275504   4.340   8.484   0.926
25088WAT      O75505   4.929   2.440   1.618
25088WAT     H175506   4.985   2.383   1.677
25088WAT     H275507   4.951   2.536   1.633
25089WAT      O75508   4.300   3.676   4.230
25089WAT     H175509   4.209   3.635   4.224
25089WAT     H275510   4.336   3.663   4.322
25090WAT      O75511   3.399   2.486   7.825
25090WAT     H175512   3.324   2.430   7.790
25090WAT     H275513   3.473   2.488   7.758
25091WAT      O75514   8.917   4.114   7.354
25091WAT     H175515   9.005   4.067   7.355
25091WAT     H275516   8.868   4.095   7.439
25092WAT      O75517   7.960   7.179   9.253
25092WAT     H175518   7.881   7.151   9.307
25092WAT     H275519   8.034   7.208   9.314
25093WAT      O75520   3.439   2.311   2.072
25093WAT     H175521   3.398   2.225   2.044
25093WAT     H275522   3.413   2.332   2.166
25094WAT      O75523   5.364   7.107   3.279
25094WAT     H175524   5.438   7.118   3.213
25094WAT     H275525   5.403   7.080   3.367
25095WAT      O75526   1.897   8.306   9.578
25095WAT     H175527   1.922   8.377   9.513
25095WAT     H275528   1.833   8.242   9.534
25096WAT      O75529   1.980   8.725   5.572
25096WAT     H175530   1.990   8.756   5.477
25096WAT     H275531   2.032   8.640   5.584
25097WAT      O75532   1.677   0.330   3.654
25097WAT     H175533   1.690   0.411   3.711
25097WAT     H275534   1.718   0.250   3.699
25098WAT      O75535   6.200   5.421   9.426
25098WAT     H175536   6.193   5.373   9.513
25098WAT     H275537   6.279   5.482   9.427
25099WAT      O75538   9.044   6.761   8.203
25099WAT     H175539   8.947   6.754   8.179
25099WAT     H275540   9.099   6.726   8.126
25100WAT      O75541   6.018   8.901   3.392
25100WAT     H175542   6.055   8.902   3.484
25100WAT     H275543   5.918   8.893   3.396
25101WAT      O75544   7.372   8.153   5.219
25101WAT     H175545   7.419   8.065   5.207
25101WAT     H275546   7.437   8.222   5.249
25102WAT      O75547   0.969   3.913   1.651
25102WAT     H175548   0.886   3.876   1.608
25102WAT     H275549   1.042   3.845   1.647
25103WAT      O75550   1.008   9.416   5.040
25103WAT     H175551   1.077   9.450   4.976
25103WAT     H275552   1.000   9.479   5.117
25104WAT      O75553   5.616   7.275   7.737
25104WAT     H175554   5.553   7.206   7.703
25104WAT     H275555   5.588   7.303   7.829
25105WAT      O75556   8.349   0.293   8.932
25105WAT     H175557   8.305   0.338   8.855
25105WAT     H275558   8.410   0.357   8.978
25106WAT      O75559   6.603   7.233   2.114
25106WAT     H175560   6.597   7.333   2.115
25106WAT     H275561   6.600   7.201   2.019
25107WAT      O75562   7.388   6.584   7.720
25107WAT     H175563   7.477   6.557   7.757
25107WAT     H275564   7.316   6.530   7.764
25108WAT      O75565   3.338   3.678   4.967
25108WAT     H175566   3.310   3.767   5.004
25108WAT     H275567   3.428   3.653   5.004
25109WAT      O75568   4.896   2.715   1.616
25109WAT     H175569   4.801   2.742   1.628
25109WAT     H275570   4.933   2.754   1.532
25110WAT      O75571   7.099   4.008   9.118
25110WAT     H175572   7.001   4.000   9.103
25110WAT     H275573   7.119   4.097   9.160
25111WAT      O75574   6.789   4.470   2.466
25111WAT     H175575   6.833   4.460   2.556
25111WAT     H275576   6.827   4.402   2.403
25112WAT      O75577   4.449   7.767   4.626
25112WAT     H175578   4.436   7.769   4.726
25112WAT     H275579   4.366   7.798   4.581
25113WAT      O75580   2.692   4.883   7.259
25113WAT     H175581   2.747   4.957   7.298
25113WAT     H275582   2.618   4.923   7.204
25114WAT      O75583   1.827   1.699   7.456
25114WAT     H175584   1.809   1.714   7.553
25114WAT     H275585   1.823   1.601   7.435
25115WAT      O75586   1.697   5.231   0.351
25115WAT     H175587   1.723   5.298   0.420
25115WAT     H275588   1.627   5.270   0.290
25116WAT      O75589   0.523   6.783   4.404
25116WAT     H175590   0.604   6.771   4.461
25116WAT     H275591   0.453   6.832   4.456
25117WAT      O75592   5.263   0.293   5.453
25117WAT     H175593   5.353   0.326   5.426
25117WAT     H275594   5.264   0.194   5.460
25118WAT      O75595   6.206   5.748   6.175
25118WAT     H175596   6.210   5.650   6.152
25118WAT     H275597   6.218   5.759   6.274
25119WAT      O75598   4.187   6.089   2.912
25119WAT     H175599   4.220   6.098   3.006
25119WAT     H275600   4.094   6.125   2.906
25120WAT      O75601   1.684   0.191   9.381
25120WAT     H175602   1.644   0.108   9.420
25120WAT     H275603   1.772   0.210   9.426
25121WAT      O75604   4.787   3.980   5.314
25121WAT     H175605   4.880   3.949   5.337
25121WAT     H275606   4.730   3.902   5.291
25122WAT      O75607   7.440   7.645   2.204
25122WAT     H175608   7.402   7.552   2.208
25122WAT     H275609   7.494   7.663   2.287
25123WAT      O75610   6.054   9.050   1.595
25123WAT     H175611   5.975   9.110   1.583
25123WAT     H275612   6.061   9.024   1.691
25124WAT      O75613   7.216   3.166   4.698
25124WAT     H175614   7.170   3.078   4.693
25124WAT     H275615   7.180   3.218   4.775
25125WAT      O75616   2.305   5.842   9.784
25125WAT     H175617   2.282   5.749   9.815
25125WAT     H275618   2.222   5.898   9.783
25126WAT      O75619   7.327   8.440   9.464
25126WAT     H175620   7.306   8.499   9.387
25126WAT     H275621   7.295   8.483   9.549
25127WAT      O75622   3.118   0.193   5.748
25127WAT     H175623   3.177   0.272   5.762
25127WAT     H275624   3.047   0.216   5.681
25128WAT      O75625   0.222   7.615   8.308
25128WAT     H175626   0.146   7.621   8.374
25128WAT     H275627   0.222   7.525   8.266
25129WAT      O75628   3.247   1.489   2.707
25129WAT     H175629   3.307   1.568   2.693
25129WAT     H275630   3.265   1.449   2.796
25130WAT      O75631   3.840   9.828   7.604
25130WAT     H175632   3.818   9.750   7.662
25130WAT     H275633   3.765   9.893   7.605
25131WAT      O75634   6.807   4.154   7.137
25131WAT     H175635   6.793   4.074   7.195
25131WAT     H275636   6.737   4.158   7.067
25132WAT      O75637   6.246   4.518   9.269
25132WAT     H175638   6.217   4.586   9.201
25132WAT     H275639   6.166   4.477   9.311
25133WAT      O75640   0.718   9.643   6.246
25133WAT     H175641   0.624   9.675   6.255
25133WAT     H275642   0.724   9.575   6.174
25134WAT      O75643   8.448   7.507   7.691
25134WAT     H175644   8.449   7.576   7.764
25134WAT     H275645   8.479   7.549   7.606
25135WAT      O75646   2.182   9.568   7.708
25135WAT     H175647   2.203   9.537   7.801
25135WAT     H275648   2.255   9.627   7.675
25136WAT      O75649   6.533   5.166   6.613
25136WAT     H175650   6.448   5.116   6.625
25136WAT     H275651   6.514   5.264   6.607
25137WAT      O75652   7.014   0.454   0.599
25137WAT     H175653   6.998   0.356   0.586
25137WAT     H275654   7.112   0.472   0.607
25138WAT      O75655   2.826   5.882   6.518
25138WAT     H175656   2.739   5.892   6.471
25138WAT     H275657   2.900   5.917   6.460
25139WAT      O75658   3.082   4.931   7.130
25139WAT     H175659   3.017   4.917   7.056
25139WAT     H275660   3.150   4.998   7.102
25140WAT      O75661   2.218   0.488   3.096
25140WAT     H175662   2.218   0.405   3.039
25140WAT     H275663   2.284   0.478   3.170
25141WAT      O75664   2.778   0.477   2.841
25141WAT     H175665   2.846   0.427   2.894
25141WAT     H275666   2.810   0.486   2.746
25142WAT      O75667   5.172   0.214   4.187
25142WAT     H175668   5.265   0.181   4.173
25142WAT     H275669   5.139   0.260   4.105
25143WAT      O75670   4.595   8.193   2.251
25143WAT     H175671   4.534   8.163   2.324
25143WAT     H275672   4.576   8.289   2.230
25144WAT      O75673   4.787   5.152   1.764
25144WAT     H175674   4.835   5.239   1.757
25144WAT     H275675   4.732   5.137   1.681
25145WAT      O75676   5.415   4.867   6.860
25145WAT     H175677   5.415   4.812   6.776
25145WAT     H275678   5.429   4.807   6.939
25146WAT      O75679   6.168   5.063   6.063
25146WAT     H175680   6.105   5.140   6.071
25146WAT     H275681   6.126   4.990   6.009
25147WAT      O75682   2.348   3.208   7.307
25147WAT     H175683   2.378   3.218   7.402
25147WAT     H275684   2.377   3.118   7.273
25148WAT      O75685   4.596   3.760   4.433
25148WAT     H175686   4.595   3.860   4.431
25148WAT     H275687   4.689   3.727   4.448
25149WAT      O75688   1.216   3.566   4.113
25149WAT     H175689   1.308   3.531   4.128
25149WAT     H275690   1.219   3.665   4.103
25150WAT      O75691   5.808   0.009   0.835
25150WAT     H175692   5.852  -0.012   0.922
25150WAT     H275693   5.815  -0.069   0.773
25151WAT      O75694   0.957   8.140   2.031
25151WAT     H175695   0.874   8.109   1.985
25151WAT     H275696   0.932   8.188   2.115
25152WAT      O75697   3.068   7.329   2.044
25152WAT     H175698   2.987   7.360   2.094
25152WAT     H275699   3.116   7.260   2.098
25153WAT      O75700   4.921   4.003   9.761
25153WAT     H175701   5.003   4.036   9.714
25153WAT     H275702   4.924   3.903   9.767
25154WAT      O75703   2.189   9.673   0.197
25154WAT     H175704   2.239   9.712   0.274
25154WAT     H275705   2.115   9.616   0.230
25155WAT      O75706   0.093   8.463   3.418
25155WAT     H175707   0.184   8.483   3.454
25155WAT     H275708   0.025   8.515   3.469
25156WAT      O75709   8.802   9.234   6.714
25156WAT     H175710   8.876   9.258   6.776
25156WAT     H275711   8.815   9.141   6.680
25157WAT      O75712   5.594   7.190   3.076
25157WAT     H175713   5.542   7.226   2.998
25157WAT     H275714   5.605   7.262   3.144
25158WAT      O75715   0.669   6.944   6.294
25158WAT     H175716   0.588   6.991   6.330
25158WAT     H275717   0.659   6.845   6.308
25159WAT      O75718   9.660   2.063   4.618
25159WAT     H175719   9.641   1.975   4.660
25159WAT     H275720   9.627   2.063   4.524
25160WAT      O75721   8.006   3.886   0.755
25160WAT     H175722   8.102   3.885   0.782
25160WAT     H275723   7.949   3.851   0.829
25161WAT      O75724   2.903   8.983   4.572
25161WAT     H175725   2.844   8.942   4.502
25161WAT     H275726   2.846   9.028   4.642
25162WAT      O75727   5.949   6.095   8.588
25162WAT     H175728   5.947   6.132   8.496
25162WAT     H275729   5.970   6.168   8.653
25163WAT      O75730   1.410   7.109   3.418
25163WAT     H175731   1.462   7.025   3.401
25163WAT     H275732   1.357   7.099   3.503
25164WAT      O75733   4.756   9.619   3.243
25164WAT     H175734   4.788   9.558   3.171
25164WAT     H275735   4.765   9.573   3.332
25165WAT      O75736   2.987   4.320   3.157
25165WAT     H175737   2.969   4.276   3.069
25165WAT     H275738   2.921   4.393   3.171
25166WAT      O75739   0.446   1.793   2.729
25166WAT     H175740   0.430   1.713   2.787
25166WAT     H275741   0.542   1.794   2.700
25167WAT      O75742   1.014   0.426   8.723
25167WAT     H175743   1.017   0.327   8.707
25167WAT     H275744   1.006   0.443   8.821
25168WAT      O75745   7.857   7.500   6.353
25168WAT     H175746   7.840   7.406   6.383
25168WAT     H275747   7.814   7.563   6.417
25169WAT      O75748   4.598   4.181   9.171
25169WAT     H175749   4.584   4.128   9.087
25169WAT     H275750   4.592   4.120   9.250
25170WAT      O75751   8.240   9.344   2.854
25170WAT     H175752   8.249   9.245   2.844
25170WAT     H275753   8.196   9.382   2.772
25171WAT      O75754   3.762   7.664   1.213
25171WAT     H175755   3.663   7.675   1.221
25171WAT     H275756   3.805   7.753   1.201
25172WAT      O75757   1.273   9.714   2.528
25172WAT     H175758   1.189   9.678   2.570
25172WAT     H275759   1.262   9.811   2.510
25173WAT      O75760   2.671   0.203   8.568
25173WAT     H175761   2.733   0.160   8.503
25173WAT     H275762   2.594   0.243   8.519
25174WAT      O75763   9.500   3.096   2.671
25174WAT     H175764   9.542   3.171   2.620
25174WAT     H275765   9.404   3.118   2.688
25175WAT      O75766   7.155   0.252   1.971
25175WAT     H175767   7.112   0.185   1.911
25175WAT     H275768   7.100   0.263   2.054
25176WAT      O75769   7.155   2.602   9.778
25176WAT     H175770   7.159   2.701   9.792
25176WAT     H275771   7.084   2.562   9.837
25177WAT      O75772   8.122   9.160   5.751
25177WAT     H175773   8.129   9.241   5.693
25177WAT     H275774   8.132   9.186   5.847
25178WAT      O75775   7.214   0.653   6.602
25178WAT     H175776   7.141   0.704   6.646
25178WAT     H275777   7.276   0.617   6.672
25179WAT      O75778   4.990   2.021   3.698
25179WAT     H175779   4.980   1.937   3.751
25179WAT     H275780   5.067   2.010   3.634
25180WAT      O75781   6.506   8.793   2.814
25180WAT     H175782   6.484   8.695   2.807
25180WAT     H275783   6.509   8.833   2.722
25181WAT      O75784   2.271   7.459   2.112
25181WAT     H175785   2.310   7.420   2.028
25181WAT     H275786   2.199   7.524   2.088
25182WAT      O75787   4.831   2.731   0.505
25182WAT     H175788   4.863   2.683   0.424
25182WAT     H275789   4.748   2.686   0.539
25183WAT      O75790   5.371   6.742   3.336
25183WAT     H175791   5.300   6.788   3.282
25183WAT     H275792   5.338   6.725   3.428
25184WAT      O75793   8.378   7.729   2.691
25184WAT     H175794   8.476   7.739   2.704
25184WAT     H275795   8.350   7.636   2.714
25185WAT      O75796   9.180   1.621   1.495
25185WAT     H175797   9.260   1.645   1.550
25185WAT     H275798   9.195   1.531   1.452
25186WAT      O75799   4.924   8.989   2.251
25186WAT     H175800   4.862   8.911   2.244
25186WAT     H275801   4.884   9.067   2.203
25187WAT      O75802   6.769   0.695   0.828
25187WAT     H175803   6.818   0.719   0.745
25187WAT     H275804   6.835   0.681   0.902
25188WAT      O75805   5.549   3.738   9.371
25188WAT     H175806   5.528   3.641   9.357
25188WAT     H275807   5.547   3.759   9.469
25189WAT      O75808   4.609   1.826   0.281
25189WAT     H175809   4.682   1.759   0.293
25189WAT     H275810   4.561   1.837   0.368
25190WAT      O75811   4.431   6.775   4.198
25190WAT     H175812   4.463   6.861   4.238
25190WAT     H275813   4.484   6.699   4.236
25191WAT      O75814   5.593   4.560   9.687
25191WAT     H175815   5.527   4.634   9.672
25191WAT     H275816   5.670   4.595   9.740
25192WAT      O75817   5.813   6.333   3.844
25192WAT     H175818   5.781   6.345   3.938
25192WAT     H275819   5.751   6.273   3.794
25193WAT      O75820   7.777   0.715   1.728
25193WAT     H175821   7.790   0.770   1.811
25193WAT     H275822   7.708   0.757   1.670
25194WAT      O75823   1.216   0.593   2.530
25194WAT     H175824   1.166   0.578   2.445
25194WAT     H275825   1.193   0.683   2.566
25195WAT      O75826   3.921   1.633   1.172
25195WAT     H175827   3.934   1.570   1.095
25195WAT     H275828   3.930   1.583   1.258
25196WAT      O75829   5.486   3.180   1.896
25196WAT     H175830   5.488   3.104   1.961
25196WAT     H275831   5.478   3.266   1.946
25197WAT      O75832   1.193   2.061   9.234
25197WAT     H175833   1.280   2.037   9.191
25197WAT     H275834   1.210   2.092   9.328
25198WAT      O75835   5.489   7.051   7.634
25198WAT     H175836   5.486   7.078   7.538
25198WAT     H275837   5.564   6.987   7.648
25199WAT      O75838   1.757   4.532   5.944
25199WAT     H175839   1.743   4.621   5.987
25199WAT     H275840   1.814   4.475   6.003
25200WAT      O75841   0.543   0.581   9.879
25200WAT     H175842   0.619   0.580   9.814
25200WAT     H275843   0.571   0.628   9.962
25201WAT      O75844   6.834   0.240   2.993
25201WAT     H175845   6.806   0.144   3.002
25201WAT     H275846   6.917   0.256   3.046
25202WAT      O75847   1.008   7.355   2.849
25202WAT     H175848   1.012   7.439   2.904
25202WAT     H275849   0.945   7.290   2.891
25203WAT      O75850   1.417   3.837   8.089
25203WAT     H175851   1.377   3.800   8.173
25203WAT     H275852   1.516   3.843   8.098
25204WAT      O75853   0.530   3.122   8.562
25204WAT     H175854   0.518   3.023   8.566
25204WAT     H275855   0.627   3.144   8.552
25205WAT      O75856   7.706   4.402   5.352
25205WAT     H175857   7.710   4.417   5.451
25205WAT     H275858   7.777   4.456   5.308
25206WAT      O75859   3.820   3.291   1.342
25206WAT     H175860   3.731   3.248   1.328
25206WAT     H275861   3.807   3.381   1.385
25207WAT      O75862   8.578   0.994   3.822
25207WAT     H175863   8.586   1.055   3.744
25207WAT     H275864   8.656   0.931   3.825
25208WAT      O75865   1.851   6.607   0.813
25208WAT     H175866   1.921   6.547   0.773
25208WAT     H275867   1.791   6.641   0.741
25209WAT      O75868   7.650   6.225   0.250
25209WAT     H175869   7.556   6.258   0.261
25209WAT     H275870   7.662   6.139   0.300
25210WAT      O75871   8.034   1.805   5.275
25210WAT     H175872   8.028   1.805   5.375
25210WAT     H275873   7.962   1.745   5.238
25211WAT      O75874   5.679   8.680   8.202
25211WAT     H175875   5.734   8.762   8.222
25211WAT     H275876   5.679   8.663   8.103
25212WAT      O75877   6.014   0.071   7.962
25212WAT     H175878   5.916   0.073   7.981
25212WAT     H275879   6.036   0.142   7.895
25213WAT      O75880   8.852   6.173   6.601
25213WAT     H175881   8.838   6.139   6.508
25213WAT     H275882   8.897   6.262   6.599
25214WAT      O75883   5.397   6.522   7.408
25214WAT     H175884   5.477   6.462   7.409
25214WAT     H275885   5.420   6.609   7.451
25215WAT      O75886   0.136   4.164   1.480
25215WAT     H175887   0.141   4.181   1.381
25215WAT     H275888   0.179   4.239   1.529
25216WAT      O75889   1.986   7.869   4.314
25216WAT     H175890   1.925   7.797   4.347
25216WAT     H275891   1.937   7.925   4.247
25217WAT      O75892   1.605   5.494   2.788
25217WAT     H175893   1.677   5.451   2.735
25217WAT     H275894   1.539   5.538   2.727
25218WAT      O75895   6.108   9.635   0.577
25218WAT     H175896   6.191   9.614   0.629
25218WAT     H275897   6.029   9.597   0.625
25219WAT      O75898   1.644   6.699   6.226
25219WAT     H175899   1.618   6.733   6.136
25219WAT     H275900   1.740   6.672   6.226
25220WAT      O75901   4.233   1.666   0.147
25220WAT     H175902   4.169   1.594   0.121
25220WAT     H275903   4.216   1.694   0.241
25221WAT      O75904   4.477   5.299   9.693
25221WAT     H175905   4.467   5.343   9.782
25221WAT     H275906   4.461   5.201   9.701
25222WAT      O75907   9.710   7.874   9.647
25222WAT     H175908   9.718   7.835   9.555
25222WAT     H275909   9.773   7.827   9.708
25223WAT      O75910   2.892   0.481   6.720
25223WAT     H175911   2.878   0.503   6.816
25223WAT     H275912   2.972   0.531   6.686
25224WAT      O75913   7.758   3.324   2.611
25224WAT     H175914   7.757   3.419   2.580
25224WAT     H275915   7.791   3.320   2.706
25225WAT      O75916   6.719   0.933   9.321
25225WAT     H175917   6.716   0.833   9.321
25225WAT     H275918   6.663   0.968   9.246
25226WAT      O75919   0.070   3.124   8.797
25226WAT     H175920   0.163   3.103   8.766
25226WAT     H275921   0.020   3.039   8.812
25227WAT      O75922   6.748   9.108   3.501
25227WAT     H175923   6.783   9.200   3.481
25227WAT     H275924   6.824   9.044   3.509
25228WAT      O75925   4.134   4.821   1.291
25228WAT     H175926   4.044   4.806   1.331
25228WAT     H275927   4.205   4.788   1.354
25229WAT      O75928   4.351   9.667   1.713
25229WAT     H175929   4.261   9.701   1.742
25229WAT     H275930   4.407   9.650   1.794
25230WAT      O75931   5.315   8.433   7.374
25230WAT     H175932   5.255   8.372   7.322
25230WAT     H275933   5.410   8.421   7.343
25231WAT      O75934   6.702   2.257   1.412
25231WAT     H175935   6.782   2.197   1.404
25231WAT     H275936   6.731   2.349   1.438
25232WAT      O75937   5.569   0.831   0.100
25232WAT     H175938   5.558   0.736   0.129
25232WAT     H275939   5.518   0.846   0.015
25233WAT      O75940   9.145   6.641   6.851
25233WAT     H175941   9.236   6.659   6.816
25233WAT     H275942   9.093   6.726   6.853
25234WAT      O75943   4.005   3.640   1.603
25234WAT     H175944   4.014   3.624   1.702
25234WAT     H275945   4.079   3.594   1.555
25235WAT      O75946   3.950   2.943   6.623
25235WAT     H175947   4.021   2.886   6.665
25235WAT     H275948   3.881   2.966   6.692
25236WAT      O75949   1.733   3.562   3.376
25236WAT     H175950   1.786   3.548   3.460
25236WAT     H275951   1.789   3.612   3.310
25237WAT      O75952   5.770   0.982   6.512
25237WAT     H175953   5.736   0.931   6.433
25237WAT     H275954   5.763   1.080   6.493
25238WAT      O75955   7.088   2.482   3.324
25238WAT     H175956   7.051   2.447   3.410
25238WAT     H275957   7.169   2.538   3.342
25239WAT      O75958   5.707   6.491   6.198
25239WAT     H175959   5.736   6.399   6.225
25239WAT     H275960   5.726   6.504   6.100
25240WAT      O75961   3.679   1.356   0.866
25240WAT     H175962   3.587   1.388   0.889
25240WAT     H275963   3.712   1.404   0.784
25241WAT      O75964   1.251   5.226   7.365
25241WAT     H175965   1.155   5.215   7.339
25241WAT     H275966   1.293   5.136   7.379
25242WAT      O75967   7.083   9.286   7.639
25242WAT     H175968   7.157   9.219   7.642
25242WAT     H275969   7.013   9.256   7.575
25243WAT      O75970   3.976   0.265   7.102
25243WAT     H175971   4.027   0.269   7.188
25243WAT     H275972   3.900   0.201   7.112
25244WAT      O75973   2.187   3.817   5.113
25244WAT     H175974   2.253   3.814   5.038
25244WAT     H275975   2.134   3.901   5.108
25245WAT      O75976   9.634   8.511   5.735
25245WAT     H175977   9.689   8.595   5.731
25245WAT     H275978   9.558   8.524   5.798
25246WAT      O75979   6.700   8.528   1.324
25246WAT     H175980   6.616   8.486   1.359
25246WAT     H275981   6.677   8.593   1.251
25247WAT      O75982   7.422   7.781   6.707
25247WAT     H175983   7.354   7.717   6.671
25247WAT     H275984   7.493   7.730   6.756
25248WAT      O75985   4.353   0.206   4.605
25248WAT     H175986   4.397   0.182   4.519
25248WAT     H275987   4.285   0.136   4.628
25249WAT      O75988   0.732   3.808   2.451
25249WAT     H175989   0.831   3.805   2.434
25249WAT     H275990   0.703   3.904   2.462
25250WAT      O75991   0.715   3.030   3.044
25250WAT     H175992   0.676   2.944   3.079
25250WAT     H275993   0.698   3.103   3.110
25251WAT      O75994   8.790   8.808   3.968
25251WAT     H175995   8.889   8.800   3.985
25251WAT     H275996   8.742   8.738   4.019
25252WAT      O75997   0.571   4.797   0.761
25252WAT     H175998   0.598   4.736   0.835
25252WAT     H275999   0.531   4.743   0.686
25253WAT      O76000   5.162   0.328   8.705
25253WAT     H176001   5.109   0.395   8.757
25253WAT     H276002   5.101   0.279   8.643
25254WAT      O76003   7.944   6.364   2.846
25254WAT     H176004   8.016   6.310   2.888
25254WAT     H276005   7.858   6.350   2.896
25255WAT      O76006   8.438   0.342   8.564
25255WAT     H176007   8.395   0.292   8.488
25255WAT     H276008   8.366   0.380   8.622
25256WAT      O76009   2.819   8.045   7.113
25256WAT     H176010   2.744   8.085   7.165
25256WAT     H276011   2.809   7.946   7.109
25257WAT      O76012   3.258   9.829   7.880
25257WAT     H176013   3.303   9.877   7.805
25257WAT     H276014   3.255   9.731   7.860
25258WAT      O76015   3.062   3.694   4.976
25258WAT     H176016   3.156   3.694   4.943
25258WAT     H276017   3.062   3.703   5.075
25259WAT      O76018   3.173   3.219   1.480
25259WAT     H176019   3.257   3.219   1.426
25259WAT     H276020   3.167   3.136   1.534
25260WAT      O76021   0.045   4.654   3.772
25260WAT     H176022   0.085   4.741   3.742
25260WAT     H276023   0.050   4.648   3.872
25261WAT      O76024   4.805   5.838   4.613
25261WAT     H176025   4.857   5.753   4.622
25261WAT     H276026   4.724   5.834   4.672
25262WAT      O76027   5.470   0.174   9.508
25262WAT     H176028   5.558   0.182   9.461
25262WAT     H276029   5.396   0.180   9.441
25263WAT      O76030   2.912   7.287   6.124
25263WAT     H176031   2.832   7.297   6.184
25263WAT     H276032   2.988   7.248   6.176
25264WAT      O76033   2.624   7.188   2.708
25264WAT     H176034   2.599   7.285   2.711
25264WAT     H276035   2.553   7.134   2.752
25265WAT      O76036   8.949   7.750   0.896
25265WAT     H176037   8.944   7.845   0.864
25265WAT     H276038   8.995   7.747   0.984
25266WAT      O76039   7.723   3.122   9.438
25266WAT     H176040   7.788   3.085   9.372
25266WAT     H276041   7.661   3.050   9.469
25267WAT      O76042   9.396   6.180   4.867
25267WAT     H176043   9.417   6.258   4.927
25267WAT     H276044   9.478   6.154   4.817
25268WAT      O76045   1.337   4.622   4.387
25268WAT     H176046   1.318   4.717   4.361
25268WAT     H276047   1.332   4.564   4.306
25269WAT      O76048   9.110   6.152   4.227
25269WAT     H176049   9.115   6.217   4.151
25269WAT     H276050   9.172   6.076   4.210
25270WAT      O76051   6.555   3.075   3.485
25270WAT     H176052   6.626   3.095   3.418
25270WAT     H276053   6.580   3.113   3.574
25271WAT      O76054   0.444   9.123   3.867
25271WAT     H176055   0.382   9.195   3.897
25271WAT     H276056   0.471   9.139   3.772
25272WAT      O76057   2.088   7.811   1.504
25272WAT     H176058   2.141   7.819   1.589
25272WAT     H276059   1.997   7.850   1.518
25273WAT      O76060   8.014   0.670   8.406
25273WAT     H176061   7.922   0.647   8.375
25273WAT     H276062   8.013   0.687   8.504
25274WAT      O76063   8.915   9.305   7.816
25274WAT     H176064   8.857   9.250   7.755
25274WAT     H276065   8.862   9.333   7.896
25275WAT      O76066   0.835   7.990   0.014
25275WAT     H176067   0.814   8.001   0.111
25275WAT     H276068   0.890   7.907   0.002
25276WAT      O76069   4.571   0.877   1.203
25276WAT     H176070   4.511   0.953   1.226
25276WAT     H276071   4.652   0.910   1.154
25277WAT      O76072   8.790   2.290   9.736
25277WAT     H176073   8.833   2.282   9.826
25277WAT     H276074   8.723   2.217   9.725
25278WAT      O76075   1.114   9.538   9.697
25278WAT     H176076   1.164   9.624   9.704
25278WAT     H276077   1.156   9.470   9.759
25279WAT      O76078   7.647   5.753   0.201
25279WAT     H176079   7.667   5.686   0.273
25279WAT     H276080   7.630   5.705   0.115
25280WAT      O76081   0.250   6.460   2.307
25280WAT     H176082   0.152   6.479   2.312
25280WAT     H276083   0.291   6.474   2.397
25281WAT      O76084   2.779   8.448   5.302
25281WAT     H176085   2.767   8.536   5.257
25281WAT     H276086   2.750   8.455   5.398
25282WAT      O76087   2.904   9.071   9.319
25282WAT     H176088   2.828   9.041   9.376
25282WAT     H276089   2.987   9.078   9.375
25283WAT      O76090   7.124   0.871   7.038
25283WAT     H176091   7.177   0.841   7.116
25283WAT     H276092   7.040   0.917   7.070
25284WAT      O76093   2.408   3.608   5.814
25284WAT     H176094   2.374   3.538   5.876
25284WAT     H276095   2.409   3.573   5.720
25285WAT      O76096   4.183   5.723   9.851
25285WAT     H176097   4.283   5.720   9.845
25285WAT     H276098   4.151   5.814   9.824
25286WAT      O76099   1.260   8.964   6.446
25286WAT     H176100   1.234   8.869   6.462
25286WAT     H276101   1.213   8.997   6.364
25287WAT      O76102   1.012   1.622   4.078
25287WAT     H176103   1.108   1.597   4.093
25287WAT     H276104   1.004   1.722   4.077
25288WAT      O76105   8.266   5.494   0.305
25288WAT     H176106   8.314   5.480   0.219
25288WAT     H276107   8.328   5.536   0.372
25289WAT      O76108   3.730   8.164   8.159
25289WAT     H176109   3.753   8.079   8.206
25289WAT     H276110   3.680   8.143   8.075
25290WAT      O76111   4.436   1.903   9.724
25290WAT     H176112   4.341   1.936   9.727
25290WAT     H276113   4.453   1.842   9.802
25291WAT      O76114   0.844   0.520   0.167
25291WAT     H176115   0.910   0.511   0.242
25291WAT     H276116   0.892   0.515   0.080
25292WAT      O76117   2.210   3.864   7.450
25292WAT     H176118   2.281   3.836   7.386
25292WAT     H276119   2.142   3.792   7.458
25293WAT      O76120   1.662   7.521   3.515
25293WAT     H176121   1.691   7.489   3.424
25293WAT     H276122   1.742   7.530   3.574
25294WAT      O76123   0.374   1.916   7.981
25294WAT     H176124   0.437   1.987   8.012
25294WAT     H276125   0.413   1.870   7.901
25295WAT      O76126   2.031   0.761   8.086
25295WAT     H176127   2.088   0.679   8.075
25295WAT     H276128   1.946   0.736   8.134
25296WAT      O76129   0.776   0.400   2.867
25296WAT     H176130   0.847   0.382   2.798
25296WAT     H276131   0.763   0.320   2.924
25297WAT      O76132   6.936   0.502   5.142
25297WAT     H176133   6.881   0.496   5.225
25297WAT     H276134   7.016   0.442   5.150
25298WAT      O76135   9.683   2.863   4.528
25298WAT     H176136   9.738   2.877   4.446
25298WAT     H276137   9.667   2.951   4.573
25299WAT      O76138   0.335   0.988   6.045
25299WAT     H176139   0.405   0.918   6.038
25299WAT     H276140   0.329   1.039   5.959
25300WAT      O76141   6.831   3.276   9.755
25300WAT     H176142   6.831   3.353   9.819
25300WAT     H276143   6.898   3.208   9.785
25301WAT      O76144   9.142   2.803   1.691
25301WAT     H176145   9.165   2.738   1.618
25301WAT     H276146   9.043   2.816   1.694
25302WAT      O76147   9.676   1.587   5.008
25302WAT     H176148   9.770   1.562   5.034
25302WAT     H276149   9.660   1.562   4.913
25303WAT      O76150   1.896   8.898   9.335
25303WAT     H176151   1.818   8.849   9.374
25303WAT     H276152   1.925   8.852   9.251
25304WAT      O76153   2.851   7.536   6.873
25304WAT     H176154   2.935   7.590   6.867
25304WAT     H276155   2.816   7.518   6.781
25305WAT      O76156   9.494   1.527   5.659
25305WAT     H176157   9.520   1.433   5.681
25305WAT     H276158   9.528   1.550   5.567
25306WAT      O76159   9.627   6.168   2.359
25306WAT     H176160   9.650   6.220   2.441
25306WAT     H276161   9.529   6.151   2.357
25307WAT      O76162   8.418   3.258   7.770
25307WAT     H176163   8.378   3.255   7.679
25307WAT     H276164   8.490   3.328   7.772
25308WAT      O76165   6.058   3.671   7.984
25308WAT     H176166   6.086   3.728   7.906
25308WAT     H276167   5.959   3.659   7.982
25309WAT      O76168   4.000   3.583   1.003
25309WAT     H176169   4.002   3.495   1.050
25309WAT     H276170   4.062   3.581   0.925
25310WAT      O76171   0.846   1.408   4.085
25310WAT     H176172   0.870   1.498   4.120
25310WAT     H276173   0.897   1.338   4.135
25311WAT      O76174   2.715   2.710   2.090
25311WAT     H176175   2.751   2.617   2.088
25311WAT     H276176   2.787   2.773   2.120
25312WAT      O76177   8.336   2.327   1.256
25312WAT     H176178   8.269   2.262   1.291
25312WAT     H276179   8.297   2.375   1.177
25313WAT      O76180   3.161   6.758   2.718
25313WAT     H176181   3.094   6.832   2.713
25313WAT     H276182   3.133   6.692   2.788
25314WAT      O76183   5.984   1.147   0.962
25314WAT     H176184   5.993   1.164   1.060
25314WAT     H276185   6.074   1.149   0.919
25315WAT      O76186   7.811   1.290   9.672
25315WAT     H176187   7.795   1.385   9.646
25315WAT     H276188   7.910   1.272   9.673
25316WAT      O76189   4.854   7.177   7.290
25316WAT     H176190   4.849   7.265   7.244
25316WAT     H276191   4.917   7.117   7.241
25317WAT      O76192   0.186   1.958   1.418
25317WAT     H176193   0.285   1.972   1.424
25317WAT     H276194   0.143   2.037   1.375
25318WAT      O76195   5.644   4.580   4.592
25318WAT     H176196   5.656   4.668   4.639
25318WAT     H276197   5.642   4.506   4.660
25319WAT      O76198   7.613   5.926   5.066
25319WAT     H176199   7.572   5.848   5.113
25319WAT     H276200   7.642   5.897   4.974
25320WAT      O76201   4.397   5.067   0.275
25320WAT     H176202   4.390   5.040   0.179
25320WAT     H276203   4.461   5.006   0.322
25321WAT      O76204   5.944   9.132   8.293
25321WAT     H176205   5.976   9.093   8.380
25321WAT     H276206   5.989   9.220   8.277
25322WAT      O76207   8.383   6.619   2.722
25322WAT     H176208   8.421   6.531   2.695
25322WAT     H276209   8.407   6.638   2.817
25323WAT      O76210   9.014   2.157   1.746
25323WAT     H176211   8.993   2.224   1.818
25323WAT     H276212   9.018   2.203   1.658
25324WAT      O76213   5.018   6.787   5.741
25324WAT     H176214   5.042   6.825   5.831
25324WAT     H276215   4.992   6.691   5.750
25325WAT      O76216   4.435   6.526   0.129
25325WAT     H176217   4.486   6.611   0.137
25325WAT     H276218   4.428   6.483   0.220
25326WAT      O76219   2.319   8.838   7.847
25326WAT     H176220   2.356   8.749   7.871
25326WAT     H276221   2.353   8.907   7.912
25327WAT      O76222   8.304   2.213   9.457
25327WAT     H176223   8.275   2.126   9.417
25327WAT     H276224   8.275   2.288   9.397
25328WAT      O76225   4.746   5.815   6.848
25328WAT     H176226   4.707   5.806   6.756
25328WAT     H276227   4.715   5.739   6.905
25329WAT      O76228   5.319   0.997   5.469
25329WAT     H176229   5.395   0.932   5.462
25329WAT     H276230   5.324   1.062   5.393
25330WAT      O76231   5.806   0.181   3.778
25330WAT     H176232   5.881   0.247   3.787
25330WAT     H276233   5.832   0.095   3.822
25331WAT      O76234   5.849   6.381   6.558
25331WAT     H176235   5.910   6.327   6.500
25331WAT     H276236   5.786   6.434   6.500
25332WAT      O76237   9.716   4.194   8.067
25332WAT     H176238   9.748   4.208   8.161
25332WAT     H276239   9.794   4.168   8.009
25333WAT      O76240   0.951   5.644   8.981
25333WAT     H176241   0.856   5.667   9.003
25333WAT     H276242   0.961   5.545   8.975
25334WAT      O76243   8.287   6.203   3.172
25334WAT     H176244   8.296   6.105   3.191
25334WAT     H276245   8.347   6.227   3.096
25335WAT      O76246   7.823   8.475   2.118
25335WAT     H176247   7.883   8.473   2.198
25335WAT     H276248   7.826   8.387   2.071
25336WAT      O76249   0.454   8.968   8.292
25336WAT     H176250   0.376   8.928   8.244
25336WAT     H276251   0.502   8.897   8.343
25337WAT      O76252   8.249   3.245   4.626
25337WAT     H176253   8.259   3.344   4.634
25337WAT     H276254   8.226   3.206   4.715
25338WAT      O76255   8.857   9.362   0.805
25338WAT     H176256   8.950   9.333   0.783
25338WAT     H276257   8.858   9.460   0.829
25339WAT      O76258   5.913   9.780   3.452
25339WAT     H176259   5.906   9.864   3.398
25339WAT     H276260   5.826   9.764   3.500
25340WAT      O76261   0.700   0.725   7.085
25340WAT     H176262   0.717   0.762   7.177
25340WAT     H276263   0.787   0.717   7.036
25341WAT      O76264   3.273   2.930   7.371
25341WAT     H176265   3.369   2.944   7.346
25341WAT     H276266   3.245   3.000   7.436
25342WAT      O76267   0.300   5.373   2.568
25342WAT     H176268   0.377   5.432   2.544
25342WAT     H276269   0.215   5.412   2.531
25343WAT      O76270   4.777   6.473   6.750
25343WAT     H176271   4.809   6.476   6.655
25343WAT     H276272   4.678   6.456   6.751
25344WAT      O76273   5.637   2.693   7.548
25344WAT     H176274   5.719   2.658   7.593
25344WAT     H276275   5.652   2.788   7.520
25345WAT      O76276   8.038   8.025   9.664
25345WAT     H176277   8.050   8.041   9.762
25345WAT     H276278   7.975   7.948   9.651
25346WAT      O76279   8.187   0.813   2.301
25346WAT     H176280   8.287   0.803   2.296
25346WAT     H276281   8.162   0.908   2.282
25347WAT      O76282   3.194   6.079   7.202
25347WAT     H176283   3.141   6.010   7.154
25347WAT     H276284   3.167   6.081   7.298
25348WAT      O76285   0.007   4.680   8.572
25348WAT     H176286  -0.072   4.741   8.564
25348WAT     H276287  -0.012   4.593   8.528
25349WAT      O76288   5.616   1.904   2.161
25349WAT     H176289   5.623   1.982   2.099
25349WAT     H276290   5.594   1.936   2.253
25350WAT      O76291   2.438   6.037   0.035
25350WAT     H176292   2.387   5.968  -0.016
25350WAT     H276293   2.375   6.091   0.091
25351WAT      O76294   7.295   8.071   5.619
25351WAT     H176295   7.266   8.156   5.576
25351WAT     H276296   7.279   7.995   5.555
25352WAT      O76297   5.695   1.205   3.762
25352WAT     H176298   5.691   1.143   3.840
25352WAT     H276299   5.788   1.239   3.752
25353WAT      O76300   0.357   3.010   5.500
25353WAT     H176301   0.376   2.915   5.524
25353WAT     H276302   0.262   3.031   5.521
25354WAT      O76303   0.282   0.342   9.177
25354WAT     H176304   0.204   0.281   9.171
25354WAT     H276305   0.259   0.430   9.136
25355WAT      O76306   2.702   8.734   7.273
25355WAT     H176307   2.771   8.736   7.346
25355WAT     H276308   2.747   8.725   7.185
25356WAT      O76309   2.580   0.371   1.183
25356WAT     H176310   2.539   0.415   1.263
25356WAT     H276311   2.508   0.336   1.124
25357WAT      O76312   2.873   0.573   8.458
25357WAT     H176313   2.910   0.484   8.486
25357WAT     H276314   2.776   0.563   8.436
25358WAT      O76315   3.247   4.517   5.818
25358WAT     H176316   3.336   4.539   5.777
25358WAT     H276317   3.201   4.602   5.845
25359WAT      O76318   4.231   7.678   8.522
25359WAT     H176319   4.211   7.580   8.512
25359WAT     H276320   4.150   7.726   8.554
25360WAT      O76321   3.780   2.753   9.658
25360WAT     H176322   3.803   2.849   9.638
25360WAT     H276323   3.847   2.716   9.723
25361WAT      O76324   2.768   1.063   0.142
25361WAT     H176325   2.819   1.149   0.136
25361WAT     H276326   2.698   1.060   0.070
25362WAT      O76327   8.021   1.343   5.717
25362WAT     H176328   7.999   1.379   5.808
25362WAT     H276329   8.109   1.295   5.721
25363WAT      O76330   6.314   6.864   8.521
25363WAT     H176331   6.295   6.947   8.469
25363WAT     H276332   6.364   6.799   8.462
25364WAT      O76333   1.581   8.104   8.292
25364WAT     H176334   1.614   8.165   8.364
25364WAT     H276335   1.543   8.158   8.217
25365WAT      O76336   6.090   8.704   9.347
25365WAT     H176337   6.079   8.804   9.354
25365WAT     H276338   6.107   8.679   9.252
25366WAT      O76339   2.102   2.847   4.387
25366WAT     H176340   2.068   2.924   4.332
25366WAT     H276341   2.045   2.767   4.368
25367WAT      O76342   1.451   2.957   7.240
25367WAT     H176343   1.464   2.898   7.160
25367WAT     H276344   1.400   3.039   7.214
25368WAT      O76345   4.443   1.624   8.993
25368WAT     H176346   4.455   1.547   9.055
25368WAT     H276347   4.530   1.672   8.982
25369WAT      O76348   5.360   1.002   6.584
25369WAT     H176349   5.282   1.047   6.540
25369WAT     H276350   5.328   0.947   6.660
25370WAT      O76351   5.130   7.926   5.627
25370WAT     H176352   5.033   7.912   5.648
25370WAT     H276353   5.180   7.950   5.710
25371WAT      O76354   5.668   1.887   3.322
25371WAT     H176355   5.723   1.938   3.389
25371WAT     H276356   5.727   1.859   3.246
25372WAT      O76357   7.200   9.369   6.836
25372WAT     H176358   7.283   9.345   6.784
25372WAT     H276359   7.120   9.340   6.784
25373WAT      O76360   7.909   9.589   0.083
25373WAT     H176361   7.857   9.667   0.117
25373WAT     H276362   7.919   9.596  -0.016
25374WAT      O76363   4.517   8.547   4.426
25374WAT     H176364   4.604   8.595   4.418
25374WAT     H276365   4.443   8.614   4.433
25375WAT      O76366   9.670   7.653   5.142
25375WAT     H176367   9.707   7.560   5.140
25375WAT     H276368   9.744   7.719   5.135
25376WAT      O76369   4.129   1.391   2.630
25376WAT     H176370   4.136   1.293   2.650
25376WAT     H276371   4.219   1.434   2.643
25377WAT      O76372   0.746   0.632   8.502
25377WAT     H176373   0.841   0.628   8.534
25377WAT     H276374   0.711   0.539   8.490
25378WAT      O76375   1.264   9.800   7.381
25378WAT     H176376   1.267   9.711   7.334
25378WAT     H276377   1.340   9.857   7.349
25379WAT      O76378   2.654   5.967   3.450
25379WAT     H176379   2.631   6.011   3.363
25379WAT     H276380   2.613   5.876   3.454
25380WAT      O76381   7.369   0.213   6.030
25380WAT     H176382   7.344   0.190   6.124
25380WAT     H276383   7.449   0.274   6.030
25381WAT      O76384   1.425   1.912   5.018
25381WAT     H176385   1.364   1.958   4.954
25381WAT     H276386   1.393   1.819   5.033
25382WAT      O76387   0.465   5.212   2.761
25382WAT     H176388   0.555   5.225   2.720
25382WAT     H276389   0.397   5.263   2.709
25383WAT      O76390   8.605   2.302   8.146
25383WAT     H176391   8.606   2.287   8.047
25383WAT     H276392   8.534   2.246   8.188
25384WAT      O76393   3.136   2.550   9.729
25384WAT     H176394   3.066   2.586   9.791
25384WAT     H276395   3.170   2.623   9.671
25385WAT      O76396   7.858   5.506   2.126
25385WAT     H176397   7.903   5.566   2.193
25385WAT     H276398   7.834   5.419   2.170
25386WAT      O76399   8.694   2.416   1.800
25386WAT     H176400   8.793   2.412   1.782
25386WAT     H276401   8.670   2.344   1.866
25387WAT      O76402   3.953   3.970   8.503
25387WAT     H176403   3.975   4.064   8.478
25387WAT     H276404   4.000   3.907   8.442
25388WAT      O76405   1.515   5.249   1.922
25388WAT     H176406   1.515   5.201   1.835
25388WAT     H276407   1.458   5.199   1.988
25389WAT      O76408   1.317   8.329   5.676
25389WAT     H176409   1.284   8.235   5.667
25389WAT     H276410   1.416   8.328   5.695
25390WAT      O76411   0.237   6.348   8.867
25390WAT     H176412   0.278   6.308   8.949
25390WAT     H276413   0.302   6.348   8.792
25391WAT      O76414   8.749   6.659   3.546
25391WAT     H176415   8.809   6.637   3.468
25391WAT     H276416   8.741   6.758   3.554
25392WAT      O76417   6.370   0.236   7.505
25392WAT     H176418   6.463   0.271   7.498
25392WAT     H276419   6.322   0.285   7.578
25393WAT      O76420   1.059   0.033   8.880
25393WAT     H176421   0.990   0.071   8.819
25393WAT     H276422   1.018  -0.037   8.938
25394WAT      O76423   7.551   5.064   4.669
25394WAT     H176424   7.575   4.978   4.624
25394WAT     H276425   7.478   5.049   4.735
25395WAT      O76426   9.079   0.008   4.474
25395WAT     H176427   9.085   0.108   4.470
25395WAT     H276428   9.076  -0.021   4.570
25396WAT      O76429   3.746   1.129   2.893
25396WAT     H176430   3.775   1.145   2.987
25396WAT     H276431   3.653   1.093   2.893
25397WAT      O76432   1.277   5.969   3.138
25397WAT     H176433   1.268   6.019   3.052
25397WAT     H276434   1.288   6.034   3.214
25398WAT      O76435   0.987   5.441   2.502
25398WAT     H176436   0.927   5.516   2.476
25398WAT     H276437   0.986   5.371   2.431
25399WAT      O76438   6.161   4.825   1.334
25399WAT     H176439   6.255   4.822   1.300
25399WAT     H276440   6.140   4.917   1.367
25400WAT      O76441   8.569   1.924   3.004
25400WAT     H176442   8.594   1.993   3.072
25400WAT     H276443   8.641   1.917   2.935
25401WAT      O76444   8.101   2.617   0.208
25401WAT     H176445   8.012   2.600   0.250
25401WAT     H276446   8.155   2.533   0.208
25402WAT      O76447   8.466   1.703   1.017
25402WAT     H176448   8.427   1.729   1.105
25402WAT     H276449   8.475   1.784   0.959
25403WAT      O76450   4.078   0.208   3.030
25403WAT     H176451   4.058   0.279   2.961
25403WAT     H276452   4.110   0.252   3.114
25404WAT      O76453   3.316   3.109   5.143
25404WAT     H176454   3.302   3.186   5.205
25404WAT     H276455   3.411   3.108   5.111
25405WAT      O76456   2.488   2.850   4.630
25405WAT     H176457   2.534   2.901   4.557
25405WAT     H276458   2.535   2.762   4.642
25406WAT      O76459   2.884   5.093   0.110
25406WAT     H176460   2.791   5.059   0.122
25406WAT     H276461   2.938   5.027   0.058
25407WAT      O76462   6.433   7.799   6.885
25407WAT     H176463   6.338   7.771   6.868
25407WAT     H276464   6.491   7.717   6.889
25408WAT      O76465   2.643   7.388   7.793
25408WAT     H176466   2.562   7.378   7.736
25408WAT     H276467   2.691   7.472   7.769
25409WAT      O76468   0.823   0.460   1.405
25409WAT     H176469   0.828   0.407   1.320
25409WAT     H276470   0.914   0.495   1.428
25410WAT      O76471   3.710   7.480   7.381
25410WAT     H176472   3.792   7.508   7.432
25410WAT     H276473   3.727   7.393   7.335
25411WAT      O76474   6.475   3.588   8.125
25411WAT     H176475   6.438   3.654   8.191
25411WAT     H276476   6.570   3.567   8.149
25412WAT      O76477   1.926   5.849   9.148
25412WAT     H176478   2.007   5.876   9.200
25412WAT     H276479   1.902   5.755   9.170
25413WAT      O76480   4.134   1.078   2.312
25413WAT     H176481   4.052   1.038   2.272
25413WAT     H276482   4.128   1.074   2.412
25414WAT      O76483   6.603   6.005   4.539
25414WAT     H176484   6.617   6.063   4.619
25414WAT     H276485   6.506   6.008   4.513
25415WAT      O76486   8.843   5.164   4.111
25415WAT     H176487   8.857   5.211   4.198
25415WAT     H276488   8.749   5.176   4.080
25416WAT      O76489   0.130   4.937   2.912
25416WAT     H176490   0.054   4.951   2.848
25416WAT     H276491   0.210   4.904   2.862
25417WAT      O76492   1.458   9.838   8.777
25417WAT     H176493   1.440   9.809   8.683
25417WAT     H276494   1.377   9.883   8.814
25418WAT      O76495   5.679   7.142   8.537
25418WAT     H176496   5.650   7.124   8.631
25418WAT     H276497   5.777   7.161   8.535
25419WAT      O76498   9.440   9.545   4.165
25419WAT     H176499   9.487   9.521   4.080
25419WAT     H276500   9.505   9.589   4.227
25420WAT      O76501   8.985   2.716   6.099
25420WAT     H176502   8.897   2.669   6.095
25420WAT     H276503   9.013   2.729   6.194
25421WAT      O76504   7.492   1.441   3.976
25421WAT     H176505   7.493   1.407   4.070
25421WAT     H276506   7.545   1.379   3.918
25422WAT      O76507   2.908   0.117   1.356
25422WAT     H176508   2.948   0.062   1.283
25422WAT     H276509   2.957   0.100   1.442
25423WAT      O76510   3.425   8.732   5.385
25423WAT     H176511   3.367   8.668   5.436
25423WAT     H276512   3.521   8.713   5.404
25424WAT      O76513   1.918   8.155   0.856
25424WAT     H176514   1.963   8.216   0.922
25424WAT     H276515   1.830   8.125   0.894
25425WAT      O76516   5.667   1.096   7.628
25425WAT     H176517   5.707   1.111   7.719
25425WAT     H276518   5.674   1.000   7.604
25426WAT      O76519   2.525   7.279   0.017
25426WAT     H176520   2.538   7.304   0.113
25426WAT     H276521   2.428   7.278  -0.005
25427WAT      O76522   4.655   9.232   1.195
25427WAT     H176523   4.733   9.259   1.138
25427WAT     H276524   4.661   9.134   1.214
25428WAT      O76525   2.633   7.533   0.522
25428WAT     H176526   2.614   7.625   0.554
25428WAT     H276527   2.730   7.525   0.498
25429WAT      O76528   5.574   3.233   8.909
25429WAT     H176529   5.590   3.148   8.858
25429WAT     H276530   5.652   3.295   8.896
25430WAT      O76531   5.983   1.341   0.725
25430WAT     H176532   5.885   1.330   0.745
25430WAT     H276533   6.017   1.260   0.679
25431WAT      O76534   4.384   0.750   2.618
25431WAT     H176535   4.448   0.709   2.684
25431WAT     H276536   4.308   0.687   2.602
25432WAT      O76537   1.801   4.632   0.834
25432WAT     H176538   1.756   4.681   0.759
25432WAT     H276539   1.900   4.644   0.828
25433WAT      O76540   8.564   9.024   7.692
25433WAT     H176541   8.567   8.988   7.599
25433WAT     H276542   8.489   9.090   7.700
25434WAT      O76543   5.293   7.229   1.155
25434WAT     H176544   5.315   7.321   1.122
25434WAT     H276545   5.290   7.166   1.077
25435WAT      O76546   5.642   6.662   8.508
25435WAT     H176547   5.579   6.587   8.492
25435WAT     H276548   5.625   6.734   8.440
25436WAT      O76549   0.555   4.341   8.480
25436WAT     H176550   0.466   4.297   8.490
25436WAT     H276551   0.592   4.364   8.571
25437WAT      O76552   7.921   5.370   6.281
25437WAT     H176553   7.939   5.462   6.317
25437WAT     H276554   7.853   5.324   6.338
25438WAT      O76555   6.487   8.779   5.701
25438WAT     H176556   6.495   8.864   5.648
25438WAT     H276557   6.570   8.725   5.687
25439WAT      O76558   6.369   0.028   9.498
25439WAT     H176559   6.348  -0.048   9.560
25439WAT     H276560   6.285   0.058   9.453
25440WAT      O76561   9.509   7.397   0.170
25440WAT     H176562   9.546   7.313   0.131
25440WAT     H276563   9.424   7.422   0.122
25441WAT      O76564   4.796   6.832   8.437
25441WAT     H176565   4.880   6.886   8.428
25441WAT     H276566   4.779   6.783   8.351
25442WAT      O76567   3.584   3.425   1.679
25442WAT     H176568   3.632   3.470   1.603
25442WAT     H276569   3.497   3.471   1.696
25443WAT      O76570   0.322   3.106   5.228
25443WAT     H176571   0.375   3.105   5.312
25443WAT     H276572   0.227   3.081   5.247
25444WAT      O76573   0.538   8.979   9.792
25444WAT     H176574   0.620   8.967   9.735
25444WAT     H276575   0.560   8.957   9.887
25445WAT      O76576   6.159   4.345   8.145
25445WAT     H176577   6.109   4.296   8.216
25445WAT     H276578   6.257   4.328   8.156
25446WAT      O76579   5.003   7.766   8.589
25446WAT     H176580   4.947   7.765   8.671
25446WAT     H276581   4.974   7.693   8.527
25447WAT      O76582   5.411   0.847   9.267
25447WAT     H176583   5.495   0.846   9.321
25447WAT     H276584   5.359   0.930   9.287
25448WAT      O76585   0.674   5.351   4.065
25448WAT     H176586   0.756   5.333   4.012
25448WAT     H276587   0.700   5.377   4.159
25449WAT      O76588   9.532   4.092   7.603
25449WAT     H176589   9.615   4.133   7.567
25449WAT     H276590   9.503   4.017   7.543
25450WAT      O76591   4.847   2.795   3.814
25450WAT     H176592   4.917   2.761   3.878
25450WAT     H276593   4.809   2.718   3.763
25451WAT      O76594   9.044   7.749   2.513
25451WAT     H176595   9.124   7.799   2.481
25451WAT     H276596   8.965   7.772   2.456
25452WAT      O76597   0.214   7.378   1.780
25452WAT     H176598   0.259   7.448   1.836
25452WAT     H276599   0.115   7.395   1.778
25453WAT      O76600   4.761   9.511   8.676
25453WAT     H176601   4.791   9.472   8.589
25453WAT     H276602   4.717   9.440   8.732
25454WAT      O76603   7.182   7.368   5.380
25454WAT     H176604   7.105   7.378   5.317
25454WAT     H276605   7.257   7.428   5.352
25455WAT      O76606   7.828   3.753   5.845
25455WAT     H176607   7.743   3.703   5.858
25455WAT     H276608   7.846   3.765   5.747
25456WAT      O76609   8.505   2.092   6.163
25456WAT     H176610   8.473   2.185   6.183
25456WAT     H276611   8.500   2.076   6.064
25457WAT      O76612   4.776   6.360   7.214
25457WAT     H176613   4.767   6.453   7.177
25457WAT     H276614   4.688   6.314   7.208
25458WAT      O76615   2.407   6.588   9.149
25458WAT     H176616   2.404   6.654   9.224
25458WAT     H276617   2.321   6.592   9.097
25459WAT      O76618   2.108   4.602   1.211
25459WAT     H176619   2.147   4.680   1.260
25459WAT     H276620   2.028   4.568   1.261
25460WAT      O76621   0.559   5.514   7.823
25460WAT     H176622   0.573   5.415   7.828
25460WAT     H276623   0.646   5.558   7.798
25461WAT      O76624   0.418   9.333   0.768
25461WAT     H176625   0.393   9.264   0.700
25461WAT     H276626   0.480   9.292   0.835
25462WAT      O76627   3.444   0.783   0.804
25462WAT     H176628   3.383   0.771   0.883
25462WAT     H276629   3.536   0.804   0.836
25463WAT      O76630   1.308   2.957   0.652
25463WAT     H176631   1.344   2.921   0.738
25463WAT     H276632   1.209   2.965   0.659
25464WAT      O76633   5.276   6.575   6.242
25464WAT     H176634   5.342   6.586   6.167
25464WAT     H276635   5.183   6.579   6.205
25465WAT      O76636   7.512   0.975   8.188
25465WAT     H176637   7.534   1.061   8.144
25465WAT     H276638   7.469   0.993   8.277
25466WAT      O76639   0.400   4.651   3.904
25466WAT     H176640   0.351   4.585   3.961
25466WAT     H276641   0.487   4.612   3.876
25467WAT      O76642   1.661   2.608   5.189
25467WAT     H176643   1.569   2.621   5.225
25467WAT     H276644   1.681   2.510   5.181
25468WAT      O76645   8.037   6.094   8.975
25468WAT     H176646   7.974   6.106   8.898
25468WAT     H276647   8.109   6.030   8.949
25469WAT      O76648   3.294   5.203   7.441
25469WAT     H176649   3.362   5.136   7.471
25469WAT     H276650   3.210   5.192   7.494
25470WAT      O76651   6.110   7.411   7.927
25470WAT     H176652   6.200   7.391   7.967
25470WAT     H276653   6.113   7.394   7.828
25471WAT      O76654   8.185   9.143   7.508
25471WAT     H176655   8.163   9.056   7.465
25471WAT     H276656   8.128   9.215   7.469
25472WAT      O76657   7.890   8.539   6.317
25472WAT     H176658   7.826   8.500   6.252
25472WAT     H276659   7.840   8.589   6.388
25473WAT      O76660   0.650   6.266   7.701
25473WAT     H176661   0.732   6.255   7.757
25473WAT     H276662   0.603   6.178   7.692
25474WAT      O76663   0.914   4.354   5.018
25474WAT     H176664   0.975   4.396   4.950
25474WAT     H276665   0.855   4.425   5.057
25475WAT      O76666   0.968   2.708   3.923
25475WAT     H176667   0.950   2.737   3.829
25475WAT     H276668   0.882   2.681   3.966
25476WAT      O76669   5.185   5.475   9.860
25476WAT     H176670   5.096   5.430   9.868
25476WAT     H276671   5.225   5.485   9.952
25477WAT      O76672   7.686   0.950   7.795
25477WAT     H176673   7.743   0.869   7.784
25477WAT     H276674   7.633   0.942   7.879
25478WAT      O76675   5.021   8.961   4.807
25478WAT     H176676   5.079   8.900   4.753
25478WAT     H276677   4.968   8.908   4.873
25479WAT      O76678   1.892   4.314   6.036
25479WAT     H176679   1.861   4.224   6.003
25479WAT     H276680   1.970   4.302   6.097
25480WAT      O76681   5.492   2.851   8.222
25480WAT     H176682   5.543   2.771   8.192
25480WAT     H276683   5.399   2.824   8.247
25481WAT      O76684   6.920   6.425   3.874
25481WAT     H176685   6.973   6.386   3.799
25481WAT     H276686   6.902   6.522   3.855
25482WAT      O76687   1.617   0.655   6.410
25482WAT     H176688   1.645   0.745   6.444
25482WAT     H276689   1.632   0.586   6.482
25483WAT      O76690   9.063   5.867   3.966
25483WAT     H176691   9.112   5.929   4.027
25483WAT     H276692   9.073   5.773   3.999
25484WAT      O76693   9.493   8.972   9.537
25484WAT     H176694   9.478   8.975   9.438
25484WAT     H276695   9.420   8.918   9.580
25485WAT      O76696   4.458   8.230   7.723
25485WAT     H176697   4.445   8.152   7.662
25485WAT     H276698   4.377   8.289   7.719
25486WAT      O76699   5.625   7.005   4.063
25486WAT     H176700   5.708   7.033   4.014
25486WAT     H276701   5.650   6.959   4.148
25487WAT      O76702   1.537   8.704   7.828
25487WAT     H176703   1.499   8.788   7.791
25487WAT     H276704   1.525   8.702   7.927
25488WAT      O76705   3.749   1.724   0.154
25488WAT     H176706   3.764   1.761   0.062
25488WAT     H276707   3.757   1.798   0.221
25489WAT      O76708   0.205   2.901   9.102
25489WAT     H176709   0.183   2.895   9.005
25489WAT     H276710   0.303   2.914   9.113
25490WAT      O76711   9.525   3.429   4.332
25490WAT     H176712   9.486   3.435   4.424
25490WAT     H276713   9.579   3.511   4.313
25491WAT      O76714   1.794   7.182   9.259
25491WAT     H176715   1.841   7.201   9.173
25491WAT     H276716   1.775   7.269   9.306
25492WAT      O76717   3.298   8.271   1.906
25492WAT     H176718   3.284   8.186   1.956
25492WAT     H276719   3.378   8.262   1.846
25493WAT      O76720   3.493   0.958   9.812
25493WAT     H176721   3.563   1.014   9.768
25493WAT     H276722   3.475   0.994   9.904
25494WAT      O76723   4.461   8.961   7.488
25494WAT     H176724   4.374   8.976   7.442
25494WAT     H276725   4.499   9.048   7.517
25495WAT      O76726   2.182   2.529   8.030
25495WAT     H176727   2.150   2.548   8.123
25495WAT     H276728   2.188   2.430   8.017
25496WAT      O76729   8.735   0.409   6.415
25496WAT     H176730   8.737   0.310   6.402
25496WAT     H276731   8.804   0.452   6.358
25497WAT      O76732   7.679   1.739   4.487
25497WAT     H176733   7.657   1.755   4.391
25497WAT     H276734   7.770   1.774   4.508
25498WAT      O76735   6.707   8.206   5.342
25498WAT     H176736   6.749   8.125   5.384
25498WAT     H276737   6.652   8.255   5.410
25499WAT      O76738   5.434   0.344   0.384
25499WAT     H176739   5.397   0.408   0.317
25499WAT     H276740   5.437   0.252   0.343
25500WAT      O76741   2.834   0.869   5.899
25500WAT     H176742   2.866   0.848   5.992
25500WAT     H276743   2.910   0.906   5.846
25501WAT      O76744   4.418   0.386   3.940
25501WAT     H176745   4.368   0.394   4.026
25501WAT     H276746   4.481   0.308   3.946
25502WAT      O76747   9.641   0.683   0.828
25502WAT     H176748   9.599   0.771   0.848
25502WAT     H276749   9.695   0.689   0.744
25503WAT      O76750   8.304   0.616   5.918
25503WAT     H176751   8.335   0.683   5.985
25503WAT     H276752   8.207   0.631   5.898
25504WAT      O76753   3.981   1.503   3.532
25504WAT     H176754   4.024   1.499   3.442
25504WAT     H276755   3.989   1.596   3.568
25505WAT      O76756   7.415   7.989   3.911
25505WAT     H176757   7.348   7.960   3.843
25505WAT     H276758   7.434   8.086   3.900
25506WAT      O76759   5.702   8.339   7.316
25506WAT     H176760   5.693   8.339   7.415
25506WAT     H276761   5.758   8.416   7.287
25507WAT      O76762   4.232   4.071   1.873
25507WAT     H176763   4.254   4.164   1.900
25507WAT     H276764   4.134   4.064   1.853
25508WAT      O76765   1.633   9.112   6.753
25508WAT     H176766   1.604   9.079   6.842
25508WAT     H276767   1.582   9.064   6.681
25509WAT      O76768   1.508   6.722   0.378
25509WAT     H176769   1.537   6.812   0.345
25509WAT     H276770   1.572   6.653   0.347
25510WAT      O76771   6.908   8.934   4.802
25510WAT     H176772   6.969   9.011   4.788
25510WAT     H276773   6.941   8.855   4.750
25511WAT      O76774   8.770   1.253   1.712
25511WAT     H176775   8.772   1.319   1.637
25511WAT     H276776   8.742   1.300   1.796
25512WAT      O76777   0.537   8.988   5.957
25512WAT     H176778   0.623   8.982   5.907
25512WAT     H276779   0.537   8.923   6.033
25513WAT      O76780   2.673   0.414   7.583
25513WAT     H176781   2.603   0.485   7.578
25513WAT     H276782   2.747   0.445   7.643
25514WAT      O76783   6.196   1.611   2.610
25514WAT     H176784   6.135   1.614   2.531
25514WAT     H276785   6.237   1.702   2.623
25515WAT      O76786   9.379   8.666   7.586
25515WAT     H176787   9.365   8.581   7.536
25515WAT     H276788   9.373   8.743   7.522
25516WAT      O76789   7.898   8.839   4.844
25516WAT     H176790   7.828   8.785   4.797
25516WAT     H276791   7.952   8.779   4.903
25517WAT      O76792   3.493   0.488   0.197
25517WAT     H176793   3.413   0.491   0.257
25517WAT     H276794   3.494   0.569   0.138
25518WAT      O76795   4.153   5.027   1.748
25518WAT     H176796   4.155   5.125   1.727
25518WAT     H276797   4.058   4.997   1.758
25519WAT      O76798   0.633   8.443   6.304
25519WAT     H176799   0.562   8.413   6.239
25519WAT     H276800   0.679   8.524   6.269
25520WAT      O76801   1.755   6.918   5.277
25520WAT     H176802   1.771   6.926   5.179
25520WAT     H276803   1.663   6.881   5.293
25521WAT      O76804   8.121   6.294   2.183
25521WAT     H176805   8.118   6.268   2.280
25521WAT     H276806   8.062   6.373   2.168
25522WAT      O76807   5.836   4.635   7.528
25522WAT     H176808   5.774   4.615   7.604
25522WAT     H276809   5.931   4.629   7.560
25523WAT      O76810   9.104   7.756   6.370
25523WAT     H176811   9.109   7.856   6.362
25523WAT     H276812   9.159   7.713   6.298
25524WAT      O76813   5.869   8.332   6.680
25524WAT     H176814   5.820   8.299   6.599
25524WAT     H276815   5.802   8.357   6.751
25525WAT      O76816   2.541   1.617   2.972
25525WAT     H176817   2.588   1.531   2.994
25525WAT     H276818   2.480   1.642   3.047
25526WAT      O76819   3.262   5.555   2.771
25526WAT     H176820   3.294   5.470   2.730
25526WAT     H276821   3.304   5.567   2.860
25527WAT      O76822   5.599   2.646   1.323
25527WAT     H176823   5.624   2.704   1.245
25527WAT     H276824   5.677   2.591   1.350
25528WAT      O76825   8.390   0.136   5.236
25528WAT     H176826   8.338   0.071   5.291
25528WAT     H276827   8.334   0.218   5.221
25529WAT      O76828   2.617   4.515   5.655
25529WAT     H176829   2.703   4.555   5.687
25529WAT     H276830   2.633   4.468   5.568
25530WAT      O76831   7.328   9.341   1.695
25530WAT     H176832   7.366   9.416   1.641
25530WAT     H276833   7.265   9.288   1.638
25531WAT      O76834   9.784   8.589   3.919
25531WAT     H176835   9.758   8.512   3.861
25531WAT     H276836   9.873   8.623   3.891
25532WAT      O76837   6.262   2.693   8.162
25532WAT     H176838   6.278   2.769   8.224
25532WAT     H276839   6.173   2.704   8.118
25533WAT      O76840   5.451   2.036   8.746
25533WAT     H176841   5.355   2.021   8.769
25533WAT     H276842   5.508   1.996   8.818
25534WAT      O76843   5.759   9.205   6.515
25534WAT     H176844   5.724   9.290   6.556
25534WAT     H276845   5.712   9.127   6.555
25535WAT      O76846   8.483   4.478   9.824
25535WAT     H176847   8.414   4.532   9.775
25535WAT     H276848   8.450   4.384   9.834
25536WAT      O76849   2.030   1.080   8.339
25536WAT     H176850   2.127   1.066   8.359
25536WAT     H276851   1.979   0.997   8.364
25537WAT      O76852   7.729   8.763   1.085
25537WAT     H176853   7.677   8.767   1.000
25537WAT     H276854   7.827   8.755   1.063
25538WAT      O76855   5.371   0.360   7.743
25538WAT     H176856   5.274   0.353   7.766
25538WAT     H276857   5.381   0.379   7.645
25539WAT      O76858   8.856   3.240   6.351
25539WAT     H176859   8.946   3.279   6.333
25539WAT     H276860   8.836   3.246   6.449
25540WAT      O76861   0.061   6.133   6.120
25540WAT     H176862  -0.009   6.147   6.190
25540WAT     H276863   0.124   6.211   6.119
25541WAT      O76864   2.236   8.391   5.799
25541WAT     H176865   2.323   8.415   5.844
25541WAT     H276866   2.212   8.297   5.823
25542WAT      O76867   7.026   1.596   4.168
25542WAT     H176868   6.930   1.611   4.192
25542WAT     H276869   7.031   1.553   4.078
25543WAT      O76870   6.031   2.479   8.050
25543WAT     H176871   6.105   2.449   8.110
25543WAT     H276872   5.959   2.410   8.048
25544WAT      O76873   7.735   2.311   5.605
25544WAT     H176874   7.642   2.275   5.605
25544WAT     H276875   7.785   2.274   5.527
25545WAT      O76876   8.856   8.058   5.296
25545WAT     H176877   8.934   8.078   5.356
25545WAT     H276878   8.851   7.959   5.281
25546WAT      O76879   7.515   4.471   1.532
25546WAT     H176880   7.495   4.551   1.587
25546WAT     H276881   7.505   4.389   1.588
25547WAT      O76882   6.657   8.539   9.296
25547WAT     H176883   6.753   8.526   9.318
25547WAT     H276884   6.601   8.478   9.353
25548WAT      O76885   5.781   6.103   8.064
25548WAT     H176886   5.791   6.200   8.046
25548WAT     H276887   5.779   6.087   8.163
25549WAT      O76888   2.382   8.416   4.747
25549WAT     H176889   2.355   8.320   4.757
25549WAT     H276890   2.446   8.440   4.821
25550WAT      O76891   5.273   4.338   9.799
25550WAT     H176892   5.345   4.392   9.842
25550WAT     H276893   5.312   4.256   9.757
25551WAT      O76894   4.350   3.116   7.996
25551WAT     H176895   4.375   3.169   7.915
25551WAT     H276896   4.366   3.170   8.078
25552WAT      O76897   2.266   5.622   1.425
25552WAT     H176898   2.341   5.564   1.392
25552WAT     H276899   2.238   5.685   1.352
25553WAT      O76900   1.969   4.793   1.543
25553WAT     H176901   1.922   4.851   1.610
25553WAT     H276902   2.045   4.746   1.588
25554WAT      O76903   5.588   1.083   6.711
25554WAT     H176904   5.666   1.031   6.675
25554WAT     H276905   5.507   1.064   6.656
25555WAT      O76906   6.431   9.356   7.751
25555WAT     H176907   6.341   9.401   7.748
25555WAT     H276908   6.469   9.366   7.843
25556WAT      O76909   2.072   3.163   9.853
25556WAT     H176910   1.977   3.182   9.828
25556WAT     H276911   2.091   3.199   9.944
25557WAT      O76912   0.412   7.155   8.120
25557WAT     H176913   0.389   7.219   8.194
25557WAT     H276914   0.493   7.188   8.071
25558WAT      O76915   7.376   2.221   1.045
25558WAT     H176916   7.287   2.191   1.009
25558WAT     H276917   7.412   2.152   1.107
25559WAT      O76918   7.531   6.123   9.450
25559WAT     H176919   7.506   6.163   9.362
25559WAT     H276920   7.629   6.137   9.465
25560WAT      O76921   5.156   0.451   4.355
25560WAT     H176922   5.098   0.467   4.435
25560WAT     H276923   5.162   0.353   4.338
25561WAT      O76924   0.971   4.338   6.429
25561WAT     H176925   1.017   4.412   6.379
25561WAT     H276926   1.008   4.250   6.400
25562WAT      O76927   4.210   0.290   5.923
25562WAT     H176928   4.290   0.307   5.980
25562WAT     H276929   4.149   0.225   5.969
25563WAT      O76930   7.530   4.920   6.186
25563WAT     H176931   7.483   4.901   6.272
25563WAT     H276932   7.625   4.890   6.192
25564WAT      O76933   3.397   8.826   0.436
25564WAT     H176934   3.410   8.861   0.528
25564WAT     H276935   3.456   8.746   0.421
25565WAT      O76936   8.031   8.939   7.789
25565WAT     H176937   8.046   9.037   7.776
25565WAT     H276938   8.115   8.889   7.766
25566WAT      O76939   4.797   7.842   0.843
25566WAT     H176940   4.805   7.824   0.941
25566WAT     H276941   4.797   7.941   0.827
25567WAT      O76942   1.035   0.082   3.529
25567WAT     H176943   1.116   0.118   3.482
25567WAT     H276944   1.045  -0.017   3.543
25568WAT      O76945   6.841   6.601   3.347
25568WAT     H176946   6.850   6.598   3.447
25568WAT     H276947   6.818   6.510   3.312
25569WAT      O76948   6.595   5.384   5.115
25569WAT     H176949   6.630   5.336   5.195
25569WAT     H276950   6.495   5.391   5.120
25570WAT      O76951   9.266   9.162   3.957
25570WAT     H176952   9.342   9.199   3.903
25570WAT     H276953   9.187   9.148   3.897
25571WAT      O76954   4.414   4.059   5.817
25571WAT     H176955   4.325   4.097   5.845
25571WAT     H276956   4.453   4.007   5.893
25572WAT      O76957   1.332   4.261   6.436
25572WAT     H176958   1.270   4.220   6.370
25572WAT     H276959   1.339   4.203   6.517
25573WAT      O76960   1.930   2.134   8.748
25573WAT     H176961   1.909   2.071   8.823
25573WAT     H276962   1.848   2.150   8.694
25574WAT      O76963   6.775   5.068   4.502
25574WAT     H176964   6.690   5.083   4.553
25574WAT     H276965   6.841   5.022   4.560
25575WAT      O76966   5.715   8.306   1.667
25575WAT     H176967   5.739   8.307   1.570
25575WAT     H276968   5.656   8.228   1.686
25576WAT      O76969   3.714   0.039   5.789
25576WAT     H176970   3.681   0.112   5.730
25576WAT     H276971   3.647   0.022   5.862
25577WAT      O76972   0.867   4.755   5.131
25577WAT     H176973   0.799   4.685   5.152
25577WAT     H276974   0.885   4.755   5.033
25578WAT      O76975   9.508   7.318   2.810
25578WAT     H176976   9.473   7.399   2.857
25578WAT     H276977   9.548   7.343   2.723
25579WAT      O76978   5.716   6.035   6.021
25579WAT     H176979   5.631   6.061   6.066
25579WAT     H276980   5.703   6.033   5.922
25580WAT      O76981   0.720   8.077   8.077
25580WAT     H176982   0.681   7.987   8.057
25580WAT     H276983   0.654   8.148   8.052
25581WAT      O76984   1.693   3.489   1.086
25581WAT     H176985   1.788   3.493   1.117
25581WAT     H276986   1.633   3.468   1.163
25582WAT      O76987   1.137   6.912   8.344
25582WAT     H176988   1.048   6.951   8.321
25582WAT     H276989   1.140   6.817   8.313
25583WAT      O76990   2.468   1.295   1.617
25583WAT     H176991   2.493   1.198   1.609
25583WAT     H276992   2.395   1.305   1.684
25584WAT      O76993   3.575   6.821   1.728
25584WAT     H176994   3.653   6.771   1.764
25584WAT     H276995   3.600   6.916   1.711
25585WAT      O76996   7.777   9.743   4.458
25585WAT     H176997   7.849   9.764   4.524
25585WAT     H276998   7.776   9.645   4.441
25586WAT      O76999   1.519   5.099   1.712
25586WAT     H177000   1.451   5.137   1.649
25586WAT     H277001   1.593   5.058   1.659
25587WAT      O77002   6.710   5.412   6.023
25587WAT     H177003   6.634   5.472   6.000
25587WAT     H277004   6.678   5.339   6.084
25588WAT      O77005   6.339   2.436   8.218
25588WAT     H177006   6.304   2.529   8.207
25588WAT     H277007   6.438   2.439   8.231
25589WAT      O77008   5.446   3.476   1.232
25589WAT     H177009   5.472   3.518   1.145
25589WAT     H277010   5.428   3.379   1.217
25590WAT      O77011   2.307   6.138   7.757
25590WAT     H177012   2.311   6.171   7.851
25590WAT     H277013   2.303   6.038   7.757
25591WAT      O77014   1.840   3.969   8.906
25591WAT     H177015   1.869   3.883   8.948
25591WAT     H277016   1.821   3.954   8.809
25592WAT      O77017   3.449   2.413   2.353
25592WAT     H177018   3.379   2.468   2.400
25592WAT     H277019   3.522   2.473   2.321
25593WAT      O77020   1.392   3.914   2.100
25593WAT     H177021   1.342   3.912   2.014
25593WAT     H277022   1.425   4.006   2.119
25594WAT      O77023   1.004   1.953   1.666
25594WAT     H177024   1.095   1.918   1.691
25594WAT     H277025   0.954   1.884   1.615
25595WAT      O77026   2.527   7.081   8.658
25595WAT     H177027   2.580   7.077   8.743
25595WAT     H277028   2.473   7.165   8.656
25596WAT      O77029   8.315   5.314   9.202
25596WAT     H177030   8.365   5.231   9.176
25596WAT     H277031   8.280   5.360   9.120
25597WAT      O77032   7.169   5.349   9.410
25597WAT     H177033   7.221   5.403   9.475
25597WAT     H277034   7.075   5.339   9.442
25598WAT      O77035   6.651   1.350   9.257
25598WAT     H177036   6.561   1.373   9.294
25598WAT     H277037   6.686   1.270   9.305
25599WAT      O77038   3.691   6.695   8.971
25599WAT     H177039   3.678   6.634   8.892
25599WAT     H277040   3.714   6.641   9.051
25600WAT      O77041   2.489   3.940   7.220
25600WAT     H177042   2.413   3.984   7.269
25600WAT     H277043   2.452   3.890   7.141
25601WAT      O77044   3.619   3.870   9.237
25601WAT     H177045   3.627   3.824   9.148
25601WAT     H277046   3.645   3.806   9.310
25602WAT      O77047   3.611   1.259   8.360
25602WAT     H177048   3.544   1.185   8.355
25602WAT     H277049   3.601   1.307   8.447
25603WAT      O77050   5.489   0.033   8.332
25603WAT     H177051   5.525  -0.034   8.266
25603WAT     H277052   5.390   0.019   8.342
25604WAT      O77053   8.491   6.330   9.344
25604WAT     H177054   8.404   6.371   9.371
25604WAT     H277055   8.503   6.243   9.392
25605WAT      O77056   6.091   7.443   4.311
25605WAT     H177057   6.127   7.479   4.397
25605WAT     H277058   6.070   7.345   4.322
25606WAT      O77059   7.589   8.161   0.762
25606WAT     H177060   7.577   8.143   0.664
25606WAT     H277061   7.685   8.182   0.780
25607WAT      O77062   9.704   5.230   8.592
25607WAT     H177063   9.777   5.184   8.642
25607WAT     H277064   9.699   5.194   8.499
25608WAT      O77065   5.346   5.704   5.955
25608WAT     H177066   5.322   5.700   5.858
25608WAT     H277067   5.306   5.786   5.996
25609WAT      O77068   6.441   6.718   3.416
25609WAT     H177069   6.414   6.701   3.511
25609WAT     H277070   6.366   6.760   3.366
25610WAT      O77071   1.272   5.868   3.497
25610WAT     H177072   1.303   5.866   3.592
25610WAT     H277073   1.281   5.961   3.462
25611WAT      O77074   1.094   2.586   8.153
25611WAT     H177075   1.112   2.685   8.156
25611WAT     H277076   1.141   2.547   8.074
25612WAT      O77077   3.863   1.198   1.482
25612WAT     H177078   3.921   1.187   1.562
25612WAT     H277079   3.851   1.110   1.436
25613WAT      O77080   9.749   7.468   6.190
25613WAT     H177081   9.650   7.463   6.204
25613WAT     H277082   9.770   7.545   6.130
25614WAT      O77083   0.514   8.273   4.226
25614WAT     H177084   0.465   8.359   4.211
25614WAT     H277085   0.608   8.292   4.255
25615WAT      O77086   0.498   4.251   1.537
25615WAT     H177087   0.494   4.276   1.440
25615WAT     H277088   0.408   4.222   1.568
25616WAT      O77089   4.853   7.014   7.567
25616WAT     H177090   4.932   7.068   7.598
25616WAT     H277091   4.883   6.951   7.496
25617WAT      O77092   1.408   5.432   0.948
25617WAT     H177093   1.339   5.482   0.896
25617WAT     H277094   1.449   5.362   0.889
25618WAT      O77095   5.413   5.028   2.633
25618WAT     H177096   5.353   5.006   2.556
25618WAT     H277097   5.450   5.120   2.620
25619WAT      O77098   1.866   3.724   3.197
25619WAT     H177099   1.821   3.807   3.229
25619WAT     H277100   1.959   3.745   3.168
25620WAT      O77101   5.650   5.979   5.743
25620WAT     H177102   5.574   6.001   5.682
25620WAT     H277103   5.701   5.901   5.706
25621WAT      O77104   8.099   6.002   1.461
25621WAT     H177105   8.013   6.002   1.513
25621WAT     H277106   8.142   5.913   1.469
25622WAT      O77107   3.176   5.181   6.695
25622WAT     H177108   3.269   5.168   6.730
25622WAT     H277109   3.119   5.103   6.723
25623WAT      O77110   3.925   3.090   6.912
25623WAT     H177111   4.010   3.106   6.861
25623WAT     H277112   3.904   3.170   6.968
25624WAT      O77113   8.304   1.022   2.975
25624WAT     H177114   8.285   0.993   3.069
25624WAT     H277115   8.306   0.942   2.915
25625WAT      O77116   4.128   4.582   6.156
25625WAT     H177117   4.140   4.628   6.244
25625WAT     H277118   4.148   4.484   6.167
25626WAT      O77119   5.229   4.751   0.012
25626WAT     H177120   5.284   4.676   0.047
25626WAT     H277121   5.152   4.715  -0.040
25627WAT      O77122   5.871   2.119   1.526
25627WAT     H177123   5.819   2.120   1.611
25627WAT     H277124   5.905   2.211   1.507
25628WAT      O77125   7.684   6.923   8.637
25628WAT     H177126   7.636   7.006   8.667
25628WAT     H277127   7.677   6.914   8.538
25629WAT      O77128   3.931   0.459   4.250
25629WAT     H177129   3.983   0.397   4.309
25629WAT     H277130   3.835   0.432   4.250
25630WAT      O77131   5.231   7.282   5.023
25630WAT     H177132   5.136   7.267   5.052
25630WAT     H277133   5.284   7.200   5.040
25631WAT      O77134   6.240   1.710   7.823
25631WAT     H177135   6.159   1.768   7.825
25631WAT     H277136   6.322   1.767   7.816
25632WAT      O77137   1.475   0.354   4.077
25632WAT     H177138   1.392   0.340   4.131
25632WAT     H277139   1.477   0.286   4.003
25633WAT      O77140   6.710   8.723   7.859
25633WAT     H177141   6.640   8.769   7.804
25633WAT     H277142   6.679   8.714   7.953
25634WAT      O77143   0.725   9.588   9.675
25634WAT     H177144   0.684   9.676   9.653
25634WAT     H277145   0.799   9.601   9.741
25635WAT      O77146   5.260   6.085   8.913
25635WAT     H177147   5.241   6.077   9.011
25635WAT     H277148   5.176   6.110   8.865
25636WAT      O77149   7.710   8.171   3.796
25636WAT     H177150   7.711   8.107   3.719
25636WAT     H277151   7.803   8.190   3.825
25637WAT      O77152   6.694   5.678   8.717
25637WAT     H177153   6.642   5.682   8.803
25637WAT     H277154   6.726   5.585   8.702
25638WAT      O77155   3.658   8.909   1.717
25638WAT     H177156   3.698   8.825   1.680
25638WAT     H277157   3.642   8.974   1.643
25639WAT      O77158   2.037   3.239   4.510
25639WAT     H177159   1.992   3.185   4.439
25639WAT     H277160   2.065   3.327   4.472
25640WAT      O77161   8.686   5.706   1.695
25640WAT     H177162   8.662   5.787   1.748
25640WAT     H277163   8.781   5.713   1.663
25641WAT      O77164   3.530   4.200   4.410
25641WAT     H177165   3.539   4.281   4.352
25641WAT     H277166   3.457   4.141   4.375
25642WAT      O77167   6.839   1.962   7.049
25642WAT     H177168   6.741   1.954   7.069
25642WAT     H277169   6.885   2.005   7.127
25643WAT      O77170   3.981   7.951   6.931
25643WAT     H177171   3.934   7.908   7.008
25643WAT     H277172   3.936   7.925   6.845
25644WAT      O77173   8.859   7.663   4.038
25644WAT     H177174   8.953   7.671   4.005
25644WAT     H277175   8.857   7.603   4.118
25645WAT      O77176   0.321   0.643   0.776
25645WAT     H177177   0.309   0.552   0.736
25645WAT     H277178   0.255   0.706   0.737
25646WAT      O77179   3.535   4.907   5.791
25646WAT     H177180   3.455   4.967   5.782
25646WAT     H277181   3.615   4.953   5.753
25647WAT      O77182   3.450   1.041   8.306
25647WAT     H177183   3.481   0.950   8.333
25647WAT     H277184   3.421   1.039   8.210
25648WAT      O77185   2.045   4.359   8.245
25648WAT     H177186   2.074   4.356   8.149
25648WAT     H277187   1.947   4.381   8.250
25649WAT      O77188   5.890   5.530   6.615
25649WAT     H177189   5.928   5.499   6.702
25649WAT     H277190   5.819   5.599   6.631
25650WAT      O77191   1.908   8.694   0.305
25650WAT     H177192   1.902   8.600   0.338
25650WAT     H277193   1.828   8.715   0.249
25651WAT      O77194   3.358   6.072   6.580
25651WAT     H177195   3.323   6.140   6.516
25651WAT     H277196   3.445   6.104   6.618
25652WAT      O77197   8.220   8.359   9.330
25652WAT     H177198   8.218   8.272   9.379
25652WAT     H277199   8.153   8.356   9.255
25653WAT      O77200   9.050   3.812   2.157
25653WAT     H177201   9.084   3.904   2.140
25653WAT     H277202   8.982   3.814   2.231
25654WAT      O77203   1.799   8.350   4.791
25654WAT     H177204   1.882   8.297   4.807
25654WAT     H277205   1.811   8.442   4.828
25655WAT      O77206   9.132   0.512   5.585
25655WAT     H177207   9.162   0.450   5.657
25655WAT     H277208   9.159   0.605   5.608
25656WAT      O77209   1.342   6.181   1.674
25656WAT     H177210   1.408   6.230   1.731
25656WAT     H277211   1.308   6.102   1.723
25657WAT      O77212   8.452   5.143   8.508
25657WAT     H177213   8.352   5.147   8.507
25657WAT     H277214   8.482   5.056   8.548
25658WAT      O77215   1.671   4.869   6.341
25658WAT     H177216   1.739   4.815   6.390
25658WAT     H277217   1.697   4.876   6.244
25659WAT      O77218   2.904   9.108   5.508
25659WAT     H177219   2.970   9.176   5.476
25659WAT     H277220   2.894   9.036   5.440
25660WAT      O77221   9.266   5.783   9.740
25660WAT     H177222   9.220   5.872   9.749
25660WAT     H277223   9.210   5.713   9.785
25661WAT      O77224   4.970   5.373   6.638
25661WAT     H177225   4.944   5.395   6.544
25661WAT     H277226   4.899   5.406   6.701
25662WAT      O77227   4.771   0.582   7.112
25662WAT     H177228   4.803   0.516   7.180
25662WAT     H277229   4.671   0.589   7.117
25663WAT      O77230   2.377   5.382   6.353
25663WAT     H177231   2.412   5.464   6.309
25663WAT     H277232   2.292   5.404   6.402
25664WAT      O77233   6.312   8.926   8.560
25664WAT     H177234   6.349   8.901   8.470
25664WAT     H277235   6.343   9.018   8.584
25665WAT      O77236   5.077   0.848   6.345
25665WAT     H177237   5.055   0.913   6.272
25665WAT     H277238   4.996   0.834   6.402
25666WAT      O77239   5.648   8.046   7.542
25666WAT     H177240   5.554   8.028   7.513
25666WAT     H277241   5.707   8.048   7.461
25667WAT      O77242   4.871   9.833   4.669
25667WAT     H177243   4.886   9.776   4.588
25667WAT     H277244   4.921   9.794   4.746
25668WAT      O77245   6.200   2.260   8.687
25668WAT     H177246   6.276   2.220   8.737
25668WAT     H277247   6.115   2.216   8.714
25669WAT      O77248   9.727   6.375   9.218
25669WAT     H177249   9.755   6.461   9.175
25669WAT     H277250   9.762   6.298   9.164
25670WAT      O77251   8.822   1.978   1.766
25670WAT     H177252   8.861   1.889   1.789
25670WAT     H277253   8.896   2.046   1.761
25671WAT      O77254   1.198   2.464   7.937
25671WAT     H177255   1.288   2.505   7.926
25671WAT     H277256   1.139   2.493   7.862
25672WAT      O77257   3.493   6.087   8.807
25672WAT     H177258   3.402   6.047   8.820
25672WAT     H277259   3.559   6.037   8.863
25673WAT      O77260   5.088   3.269   6.985
25673WAT     H177261   5.010   3.217   7.021
25673WAT     H277262   5.173   3.219   7.004
25674WAT      O77263   6.835   9.797   4.660
25674WAT     H177264   6.829   9.874   4.597
25674WAT     H277265   6.822   9.712   4.609
25675WAT      O77266   6.317   0.021   7.334
25675WAT     H177267   6.380  -0.031   7.275
25675WAT     H277268   6.356   0.111   7.352
25676WAT      O77269   4.811   7.646   8.973
25676WAT     H177270   4.875   7.704   9.022
25676WAT     H277271   4.804   7.677   8.878
25677WAT      O77272   2.022   4.623   0.351
25677WAT     H177273   2.121   4.610   0.347
25677WAT     H277274   2.001   4.721   0.348
25678WAT      O77275   7.729   2.696   5.337
25678WAT     H177276   7.710   2.784   5.293
25678WAT     H277277   7.706   2.701   5.434
25679WAT      O77278   9.540   4.861   9.165
25679WAT     H177279   9.447   4.875   9.132
25679WAT     H277280   9.586   4.949   9.178
25680WAT      O77281   3.170   3.525   1.053
25680WAT     H177282   3.088   3.513   0.997
25680WAT     H277283   3.199   3.437   1.090
25681WAT      O77284   9.120   5.224   1.256
25681WAT     H177285   9.025   5.219   1.223
25681WAT     H277286   9.176   5.156   1.209
25682WAT      O77287   9.117   2.661   0.346
25682WAT     H177288   9.149   2.720   0.421
25682WAT     H277289   9.104   2.716   0.264
25683WAT      O77290   8.218   6.173   7.864
25683WAT     H177291   8.315   6.160   7.845
25683WAT     H277292   8.164   6.109   7.809
25684WAT      O77293   1.585   0.412   7.261
25684WAT     H177294   1.568   0.324   7.303
25684WAT     H277295   1.659   0.459   7.310
25685WAT      O77296   7.448   3.254   2.192
25685WAT     H177297   7.463   3.335   2.248
25685WAT     H277298   7.412   3.281   2.103
25686WAT      O77299   3.638   5.774   2.231
25686WAT     H177300   3.539   5.787   2.232
25686WAT     H277301   3.673   5.768   2.325
25687WAT      O77302   0.141   4.669   5.459
25687WAT     H177303   0.093   4.624   5.383
25687WAT     H277304   0.087   4.747   5.490
25688WAT      O77305   1.988   7.517   9.146
25688WAT     H177306   1.987   7.599   9.088
25688WAT     H277307   2.081   7.480   9.149
25689WAT      O77308   2.612   9.456   7.055
25689WAT     H177309   2.622   9.550   7.024
25689WAT     H277310   2.580   9.399   6.979
25690WAT      O77311   3.063   7.231   8.453
25690WAT     H177312   3.007   7.305   8.415
25690WAT     H277313   3.159   7.245   8.427
25691WAT      O77314   4.069   4.819   7.487
25691WAT     H177315   4.092   4.810   7.390
25691WAT     H277316   4.000   4.751   7.511
25692WAT      O77317   7.665   2.647   5.649
25692WAT     H177318   7.697   2.741   5.648
25692WAT     H277319   7.738   2.586   5.681
25693WAT      O77320   4.531   6.251   7.182
25693WAT     H177321   4.537   6.153   7.202
25693WAT     H277322   4.492   6.264   7.090
25694WAT      O77323   2.814   8.652   9.700
25694WAT     H177324   2.836   8.656   9.603
25694WAT     H277325   2.784   8.743   9.731
25695WAT      O77326   6.923   3.384   6.511
25695WAT     H177327   6.980   3.451   6.464
25695WAT     H277328   6.832   3.423   6.527
25696WAT      O77329   8.373   5.945   0.678
25696WAT     H177330   8.357   5.857   0.723
25696WAT     H277331   8.317   6.015   0.722
25697WAT      O77332   4.157   6.926   5.593
25697WAT     H177333   4.155   7.020   5.626
25697WAT     H277334   4.074   6.907   5.540
25698WAT      O77335   5.338   8.973   0.491
25698WAT     H177336   5.354   9.058   0.441
25698WAT     H277337   5.264   8.986   0.557
25699WAT      O77338   7.147   1.363   8.034
25699WAT     H177339   7.110   1.405   7.951
25699WAT     H277340   7.201   1.430   8.085
25700WAT      O77341   1.883   0.671   7.812
25700WAT     H177342   1.849   0.748   7.866
25700WAT     H277343   1.881   0.588   7.868
25701WAT      O77344   5.345   3.330   3.607
25701WAT     H177345   5.345   3.421   3.566
25701WAT     H277346   5.371   3.262   3.538
25702WAT      O77347   0.730   6.133   9.287
25702WAT     H177348   0.762   6.200   9.221
25702WAT     H277349   0.797   6.059   9.295
25703WAT      O77350   4.879   4.714   0.124
25703WAT     H177351   4.812   4.700   0.052
25703WAT     H277352   4.914   4.808   0.119
25704WAT      O77353   5.483   4.912   2.870
25704WAT     H177354   5.393   4.873   2.891
25704WAT     H277355   5.479   4.957   2.781
25705WAT      O77356   4.456   5.658   0.530
25705WAT     H177357   4.356   5.659   0.519
25705WAT     H277358   4.488   5.750   0.554
25706WAT      O77359   5.143   4.261   7.278
25706WAT     H177360   5.194   4.265   7.364
25706WAT     H277361   5.206   4.275   7.201
25707WAT      O77362   2.322   8.687   9.075
25707WAT     H177363   2.233   8.653   9.047
25707WAT     H277364   2.391   8.614   9.063
25708WAT      O77365   0.472   4.436   1.294
25708WAT     H177366   0.372   4.446   1.298
25708WAT     H277367   0.512   4.520   1.258
25709WAT      O77368   6.473   6.223   2.506
25709WAT     H177369   6.393   6.239   2.563
25709WAT     H277370   6.472   6.286   2.428
25710WAT      O77371   9.600   3.439   7.255
25710WAT     H177372   9.647   3.498   7.190
25710WAT     H277373   9.511   3.413   7.219
25711WAT      O77374   0.362   5.905   9.148
25711WAT     H177375   0.422   5.978   9.115
25711WAT     H277376   0.384   5.884   9.243
25712WAT      O77377   9.301   1.075   0.984
25712WAT     H177378   9.305   1.168   0.948
25712WAT     H277379   9.212   1.059   1.026
25713WAT      O77380   3.579   4.238   6.916
25713WAT     H177381   3.515   4.279   6.851
25713WAT     H277382   3.531   4.173   6.975
25714WAT      O77383   8.408   9.012   9.754
25714WAT     H177384   8.452   8.976   9.837
25714WAT     H277385   8.350   8.941   9.714
25715WAT      O77386   2.679   8.334   1.247
25715WAT     H177387   2.670   8.274   1.168
25715WAT     H277388   2.701   8.279   1.328
25716WAT      O77389   0.331   1.369   4.183
25716WAT     H177390   0.310   1.428   4.261
25716WAT     H277391   0.427   1.382   4.157
25717WAT      O77392   3.762   8.032   5.139
25717WAT     H177393   3.792   8.127   5.131
25717WAT     H277394   3.687   8.014   5.075
25718WAT      O77395   5.808   1.195   1.448
25718WAT     H177396   5.882   1.144   1.493
25718WAT     H277397   5.745   1.131   1.404
25719WAT      O77398   8.866   2.648   5.440
25719WAT     H177399   8.942   2.623   5.500
25719WAT     H277400   8.829   2.737   5.468
25720WAT      O77401   7.345   9.612   7.904
25720WAT     H177402   7.385   9.521   7.914
25720WAT     H277403   7.399   9.665   7.839
25721WAT      O77404   3.581   6.238   8.556
25721WAT     H177405   3.528   6.322   8.544
25721WAT     H277406   3.568   6.203   8.649
25722WAT      O77407   0.010   8.255   4.381
25722WAT     H177408   0.056   8.293   4.300
25722WAT     H277409  -0.083   8.227   4.356
25723WAT      O77410   6.240   8.058   6.904
25723WAT     H177411   6.164   8.085   6.844
25723WAT     H277412   6.327   8.077   6.858
25724WAT      O77413   9.717   6.381   1.940
25724WAT     H177414   9.665   6.296   1.932
25724WAT     H277415   9.810   6.361   1.968
25725WAT      O77416   6.725   1.273   8.833
25725WAT     H177417   6.817   1.312   8.826
25725WAT     H277418   6.731   1.174   8.844
25726WAT      O77419   4.700   5.091   0.786
25726WAT     H177420   4.616   5.111   0.735
25726WAT     H277421   4.680   5.022   0.856
25727WAT      O77422   5.493   7.914   1.899
25727WAT     H177423   5.396   7.921   1.923
25727WAT     H277424   5.545   7.985   1.947
25728WAT      O77425   0.990   0.509   9.789
25728WAT     H177426   0.998   0.414   9.761
25728WAT     H277427   1.068   0.561   9.753
25729WAT      O77428   7.643   2.293   3.707
25729WAT     H177429   7.588   2.323   3.786
25729WAT     H277430   7.655   2.370   3.644
25730WAT      O77431   7.633   6.973   1.095
25730WAT     H177432   7.661   7.050   1.038
25730WAT     H277433   7.538   6.948   1.073
25731WAT      O77434   2.959   9.172   3.551
25731WAT     H177435   3.051   9.133   3.547
25731WAT     H277436   2.965   9.272   3.541
25732WAT      O77437   6.712   7.599   8.230
25732WAT     H177438   6.664   7.532   8.287
25732WAT     H277439   6.646   7.669   8.199
25733WAT      O77440   5.196   3.375   0.376
25733WAT     H177441   5.164   3.408   0.287
25733WAT     H277442   5.152   3.428   0.449
25734WAT      O77443   4.037   8.778   2.263
25734WAT     H177444   3.957   8.793   2.204
25734WAT     H277445   4.017   8.705   2.328
25735WAT      O77446   4.874   3.584   2.743
25735WAT     H177447   4.909   3.626   2.827
25735WAT     H277448   4.911   3.633   2.664
25736WAT      O77449   6.894   3.556   1.645
25736WAT     H177450   6.923   3.481   1.704
25736WAT     H277451   6.931   3.543   1.554
25737WAT      O77452   0.338   5.310   7.005
25737WAT     H177453   0.259   5.353   7.048
25737WAT     H277454   0.420   5.326   7.060
25738WAT      O77455   3.478   1.212   9.394
25738WAT     H177456   3.424   1.254   9.467
25738WAT     H277457   3.485   1.276   9.318
25739WAT      O77458   7.575   4.702   5.373
25739WAT     H177459   7.508   4.629   5.356
25739WAT     H277460   7.590   4.712   5.471
25740WAT      O77461   1.573   7.625   2.694
25740WAT     H177462   1.661   7.671   2.685
25740WAT     H277463   1.588   7.530   2.721
25741WAT      O77464   5.732   0.795   3.710
25741WAT     H177465   5.818   0.805   3.760
25741WAT     H277466   5.659   0.839   3.761
25742WAT      O77467   3.321   1.628   9.645
25742WAT     H177468   3.348   1.648   9.551
25742WAT     H277469   3.402   1.605   9.700
25743WAT      O77470   5.583   0.234   6.902
25743WAT     H177471   5.485   0.252   6.896
25743WAT     H277472   5.599   0.149   6.951
25744WAT      O77473   7.671   3.745   7.918
25744WAT     H177474   7.604   3.819   7.926
25744WAT     H277475   7.760   3.784   7.894
25745WAT      O77476   2.294   7.672   0.844
25745WAT     H177477   2.257   7.764   0.858
25745WAT     H277478   2.394   7.677   0.844
25746WAT      O77479   1.000   0.302   4.218
25746WAT     H177480   0.945   0.284   4.300
25746WAT     H277481   0.953   0.262   4.139
25747WAT      O77482   6.947   7.461   7.379
25747WAT     H177483   6.956   7.550   7.333
25747WAT     H277484   6.929   7.391   7.311
25748WAT      O77485   3.276   2.586   5.876
25748WAT     H177486   3.282   2.551   5.970
25748WAT     H277487   3.182   2.582   5.844
25749WAT      O77488   2.856   9.753   2.489
25749WAT     H177489   2.897   9.778   2.401
25749WAT     H277490   2.924   9.768   2.562
25750WAT      O77491   1.024   1.901   4.961
25750WAT     H177492   0.985   1.891   5.053
25750WAT     H277493   0.981   1.834   4.900
25751WAT      O77494   6.632   7.231   0.242
25751WAT     H177495   6.700   7.257   0.311
25751WAT     H277496   6.651   7.281   0.157
25752WAT      O77497   4.338   5.486   3.574
25752WAT     H177498   4.438   5.490   3.571
25752WAT     H277499   4.309   5.412   3.636
25753WAT      O77500   6.485   5.386   0.324
25753WAT     H177501   6.392   5.415   0.301
25753WAT     H277502   6.546   5.465   0.321
25754WAT      O77503   2.375   2.390   7.500
25754WAT     H177504   2.301   2.324   7.511
25754WAT     H277505   2.341   2.482   7.520
25755WAT      O77506   7.124   0.481   6.406
25755WAT     H177507   7.168   0.541   6.473
25755WAT     H277508   7.025   0.492   6.412
25756WAT      O77509   6.641   4.604   5.439
25756WAT     H177510   6.574   4.675   5.461
25756WAT     H277511   6.727   4.625   5.485
25757WAT      O77512   1.400   8.392   9.310
25757WAT     H177513   1.341   8.313   9.326
25757WAT     H277514   1.480   8.386   9.369
25758WAT      O77515   0.310   1.018   9.408
25758WAT     H177516   0.238   1.026   9.477
25758WAT     H277517   0.353   1.107   9.395
25759WAT      O77518   4.655   0.264   5.266
25759WAT     H177519   4.680   0.187   5.324
25759WAT     H277520   4.658   0.235   5.170
25760WAT      O77521   8.550   6.950   8.573
25760WAT     H177522   8.478   7.014   8.547
25760WAT     H277523   8.561   6.951   8.673
25761WAT      O77524   7.621   6.745   0.341
25761WAT     H177525   7.547   6.810   0.355
25761WAT     H277526   7.644   6.701   0.428
25762WAT      O77527   4.699   5.596   5.876
25762WAT     H177528   4.636   5.522   5.899
25762WAT     H277529   4.707   5.659   5.954
25763WAT      O77530   7.562   6.946   9.288
25763WAT     H177531   7.520   6.903   9.368
25763WAT     H277532   7.630   7.013   9.318
25764WAT      O77533   1.167   8.148   8.393
25764WAT     H177534   1.240   8.108   8.337
25764WAT     H277535   1.080   8.141   8.344
25765WAT      O77536   0.011   0.433   0.743
25765WAT     H177537  -0.088   0.432   0.759
25765WAT     H277538   0.057   0.377   0.811
25766WAT      O77539   4.915   0.763   6.559
25766WAT     H177540   4.969   0.680   6.564
25766WAT     H277541   4.953   0.831   6.623
25767WAT      O77542   2.456   1.464   5.881
25767WAT     H177543   2.374   1.521   5.881
25767WAT     H277544   2.499   1.470   5.791
25768WAT      O77545   2.499   5.885   7.212
25768WAT     H177546   2.437   5.960   7.189
25768WAT     H277547   2.594   5.915   7.198
25769WAT      O77548   4.233   2.820   1.727
25769WAT     H177549   4.146   2.857   1.695
25769WAT     H277550   4.275   2.766   1.654
25770WAT      O77551   1.340   0.569   9.090
25770WAT     H177552   1.404   0.493   9.100
25770WAT     H277553   1.248   0.540   9.116
25771WAT      O77554   2.860   8.149   9.794
25771WAT     H177555   2.886   8.059   9.761
25771WAT     H277556   2.831   8.143   9.890
25772WAT      O77557   6.689   5.275   7.540
25772WAT     H177558   6.738   5.339   7.481
25772WAT     H277559   6.665   5.321   7.626
25773WAT      O77560   6.911   5.377   9.511
25773WAT     H177561   6.947   5.375   9.604
25773WAT     H277562   6.889   5.471   9.486
25774WAT      O77563   4.022   3.471   0.173
25774WAT     H177564   4.072   3.558   0.168
25774WAT     H277565   3.940   3.477   0.116
25775WAT      O77566   3.682   5.321   5.166
25775WAT     H177567   3.703   5.234   5.209
25775WAT     H277568   3.715   5.321   5.072
25776WAT      O77569   8.225   0.289   3.063
25776WAT     H177570   8.279   0.371   3.084
25776WAT     H277571   8.210   0.237   3.147
25777WAT      O77572   5.511   5.372   3.864
25777WAT     H177573   5.591   5.386   3.807
25777WAT     H277574   5.503   5.275   3.887
25778WAT      O77575   9.399   0.343   8.811
25778WAT     H177576   9.371   0.331   8.906
25778WAT     H277577   9.318   0.345   8.752
25779WAT      O77578   8.651   8.273   9.629
25779WAT     H177579   8.689   8.356   9.669
25779WAT     H277580   8.554   8.287   9.608
25780WAT      O77581   2.900   3.736   7.517
25780WAT     H177582   2.977   3.708   7.575
25780WAT     H277583   2.842   3.800   7.568
25781WAT      O77584   3.307   0.271   6.913
25781WAT     H177585   3.253   0.351   6.938
25781WAT     H277586   3.353   0.287   6.826
25782WAT      O77587   2.855   3.022   4.748
25782WAT     H177588   2.806   3.072   4.820
25782WAT     H277589   2.898   2.941   4.788
25783WAT      O77590   8.364   5.791   4.646
25783WAT     H177591   8.275   5.782   4.690
25783WAT     H277592   8.436   5.798   4.715
25784WAT      O77593   4.995   1.545   4.278
25784WAT     H177594   5.005   1.502   4.188
25784WAT     H277595   4.915   1.606   4.276
25785WAT      O77596   3.234   5.167   7.196
25785WAT     H177597   3.193   5.243   7.145
25785WAT     H277598   3.267   5.200   7.284
25786WAT      O77599   6.337   2.284   0.802
25786WAT     H177600   6.245   2.303   0.767
25786WAT     H277601   6.370   2.197   0.765
25787WAT      O77602   6.998   6.468   1.309
25787WAT     H177603   7.019   6.385   1.360
25787WAT     H277604   7.070   6.485   1.242
25788WAT      O77605   3.044   1.972   3.022
25788WAT     H177606   2.948   1.945   3.012
25788WAT     H277607   3.090   1.907   3.082
25789WAT      O77608   5.580   8.845   0.263
25789WAT     H177609   5.652   8.806   0.205
25789WAT     H277610   5.521   8.904   0.208
25790WAT      O77611   3.134   7.854   1.506
25790WAT     H177612   3.148   7.855   1.407
25790WAT     H277613   3.089   7.768   1.532
25791WAT      O77614   4.960   8.335   2.368
25791WAT     H177615   4.935   8.292   2.282
25791WAT     H277616   5.058   8.322   2.385
25792WAT      O77617   7.273   0.181   6.986
25792WAT     H177618   7.226   0.267   6.966
25792WAT     H277619   7.356   0.200   7.039
25793WAT      O77620   3.055   7.922   9.710
25793WAT     H177621   3.077   7.835   9.753
25793WAT     H277622   3.095   7.996   9.764
25794WAT      O77623   3.048   4.216   0.649
25794WAT     H177624   3.042   4.291   0.714
25794WAT     H277625   2.994   4.138   0.682
25795WAT      O77626   7.784   4.302   0.887
25795WAT     H177627   7.779   4.294   0.986
25795WAT     H277628   7.733   4.383   0.857
25796WAT      O77629   5.189   3.052   4.204
25796WAT     H177630   5.132   2.980   4.166
25796WAT     H277631   5.165   3.065   4.301
25797WAT      O77632   7.262   8.624   0.760
25797WAT     H177633   7.204   8.546   0.734
25797WAT     H277634   7.213   8.683   0.824
25798WAT      O77635   2.297   5.834   7.726
25798WAT     H177636   2.275   5.851   7.630
25798WAT     H277637   2.394   5.809   7.734
25799WAT      O77638   8.497   7.477   1.364
25799WAT     H177639   8.523   7.570   1.393
25799WAT     H277640   8.441   7.435   1.435
25800WAT      O77641   5.075   2.697   0.645
25800WAT     H177642   4.983   2.700   0.605
25800WAT     H277643   5.068   2.707   0.744
25801WAT      O77644   1.142   8.279   1.726
25801WAT     H177645   1.218   8.307   1.668
25801WAT     H277646   1.176   8.259   1.818
25802WAT      O77647   5.917   3.052   8.850
25802WAT     H177648   5.819   3.034   8.856
25802WAT     H277649   5.933   3.127   8.786
25803WAT      O77650   1.221   8.459   0.293
25803WAT     H177651   1.141   8.498   0.339
25803WAT     H277652   1.246   8.515   0.214
25804WAT      O77653   2.908   0.472   8.816
25804WAT     H177654   2.974   0.430   8.878
25804WAT     H277655   2.896   0.568   8.840
25805WAT      O77656   5.459   5.437   7.210
25805WAT     H177657   5.413   5.402   7.128
25805WAT     H277658   5.534   5.497   7.184
25806WAT      O77659   3.135   9.125   4.642
25806WAT     H177660   3.162   9.088   4.730
25806WAT     H277661   3.068   9.064   4.599
25807WAT      O77662   7.572   8.541   8.598
25807WAT     H177663   7.577   8.485   8.681
25807WAT     H277664   7.476   8.559   8.576
25808WAT      O77665   1.075   1.528   4.894
25808WAT     H177666   1.057   1.471   4.975
25808WAT     H277667   1.173   1.542   4.884
25809WAT      O77668   2.090   4.076   8.272
25809WAT     H177669   2.086   4.072   8.371
25809WAT     H277670   2.089   4.171   8.241
25810WAT      O77671   9.189   3.728   5.784
25810WAT     H177672   9.188   3.772   5.874
25810WAT     H277673   9.230   3.789   5.717
25811WAT      O77674   3.859   0.228   6.226
25811WAT     H177675   3.844   0.135   6.259
25811WAT     H277676   3.942   0.265   6.269
25812WAT      O77677   8.282   1.289   3.101
25812WAT     H177678   8.274   1.196   3.063
25812WAT     H277679   8.195   1.314   3.144
25813WAT      O77680   3.589   6.271   5.478
25813WAT     H177681   3.658   6.283   5.407
25813WAT     H277682   3.629   6.292   5.568
25814WAT      O77683   4.191   8.117   7.706
25814WAT     H177684   4.123   8.176   7.662
25814WAT     H277685   4.185   8.126   7.805
25815WAT      O77686   4.272   1.115   8.138
25815WAT     H177687   4.302   1.162   8.221
25815WAT     H277688   4.172   1.106   8.138
25816WAT      O77689   4.078   1.000   3.769
25816WAT     H177690   4.030   1.018   3.854
25816WAT     H277691   4.108   1.087   3.728
25817WAT      O77692   9.875   1.888   7.570
25817WAT     H177693   9.790   1.936   7.590
25817WAT     H277694   9.860   1.789   7.579
25818WAT      O77695   2.071   5.622   2.687
25818WAT     H177696   2.133   5.649   2.613
25818WAT     H277697   2.002   5.692   2.700
25819WAT      O77698   0.191   8.878   2.332
25819WAT     H177699   0.283   8.915   2.324
25819WAT     H277700   0.126   8.943   2.292
25820WAT      O77701   1.319   2.881   3.849
25820WAT     H177702   1.353   2.802   3.900
25820WAT     H277703   1.252   2.930   3.904
25821WAT      O77704   8.283   5.111   0.088
25821WAT     H177705   8.280   5.052   0.007
25821WAT     H277706   8.243   5.200   0.066
25822WAT      O77707   8.565   3.921   3.296
25822WAT     H177708   8.583   3.903   3.199
25822WAT     H277709   8.473   3.958   3.306
25823WAT      O77710   2.514   5.426   5.024
25823WAT     H177711   2.473   5.502   5.074
25823WAT     H277712   2.614   5.436   5.025
25824WAT      O77713   0.520   8.211   8.503
25824WAT     H177714   0.465   8.129   8.485
25824WAT     H277715   0.513   8.273   8.424
25825WAT      O77716   4.182   8.425   8.505
25825WAT     H177717   4.270   8.423   8.457
25825WAT     H277718   4.193   8.385   8.596
25826WAT      O77719   8.279   4.423   4.052
25826WAT     H177720   8.341   4.471   4.114
25826WAT     H277721   8.332   4.378   3.981
25827WAT      O77722   3.001   0.803   7.969
25827WAT     H177723   2.987   0.835   7.875
25827WAT     H277724   3.095   0.823   7.997
25828WAT      O77725   1.955   7.735   9.505
25828WAT     H177726   1.930   7.733   9.602
25828WAT     H277727   1.947   7.643   9.466
25829WAT      O77728   8.814   6.554   3.279
25829WAT     H177729   8.874   6.491   3.329
25829WAT     H277730   8.742   6.502   3.233
25830WAT      O77731   5.495   2.109   5.542
25830WAT     H177732   5.565   2.168   5.500
25830WAT     H277733   5.529   2.073   5.628
25831WAT      O77734   4.543   3.584   6.193
25831WAT     H177735   4.579   3.639   6.269
25831WAT     H277736   4.617   3.562   6.130
25832WAT      O77737   0.023   4.382   8.706
25832WAT     H177738  -0.032   4.338   8.777
25832WAT     H277739   0.000   4.343   8.617
25833WAT      O77740   2.144   9.693   4.105
25833WAT     H177741   2.105   9.714   4.195
25833WAT     H277742   2.079   9.639   4.053
25834WAT      O77743   2.732   4.929   8.416
25834WAT     H177744   2.724   4.839   8.372
25834WAT     H277745   2.768   4.995   8.351
25835WAT      O77746   5.995   2.707   6.152
25835WAT     H177747   6.039   2.793   6.124
25835WAT     H277748   5.973   2.653   6.071
25836WAT      O77749   3.937   5.544   0.601
25836WAT     H177750   3.848   5.507   0.627
25836WAT     H277751   3.981   5.483   0.535
25837WAT      O77752   3.640   8.055   8.622
25837WAT     H177753   3.729   8.090   8.653
25837WAT     H277754   3.614   8.102   8.538
25838WAT      O77755   3.877   4.578   8.914
25838WAT     H177756   3.807   4.565   8.843
25838WAT     H277757   3.966   4.549   8.879
25839WAT      O77758   2.843   4.236   2.398
25839WAT     H177759   2.833   4.240   2.299
25839WAT     H277760   2.883   4.148   2.424
25840WAT      O77761   6.018   1.987   7.371
25840WAT     H177762   6.089   1.917   7.364
25840WAT     H277763   5.951   1.975   7.298
25841WAT      O77764   8.069   6.181   5.740
25841WAT     H177765   8.128   6.202   5.818
25841WAT     H277766   8.017   6.263   5.714
25842WAT      O77767   0.729   4.508   9.884
25842WAT     H177768   0.642   4.532   9.926
25842WAT     H277769   0.781   4.449   9.945
25843WAT      O77770   4.107   2.611   2.744
25843WAT     H177771   4.037   2.632   2.676
25843WAT     H277772   4.149   2.523   2.724
25844WAT      O77773   9.511   6.632   9.208
25844WAT     H177774   9.448   6.555   9.193
25844WAT     H277775   9.597   6.614   9.161
25845WAT      O77776   2.083   4.889   3.249
25845WAT     H177777   2.041   4.978   3.232
25845WAT     H277778   2.177   4.890   3.214
25846WAT      O77779   4.894   3.820   8.534
25846WAT     H177780   4.988   3.787   8.541
25846WAT     H277781   4.879   3.895   8.598
25847WAT      O77782   1.245   9.138   5.645
25847WAT     H177783   1.171   9.205   5.632
25847WAT     H277784   1.268   9.097   5.557
25848WAT      O77785   8.988   0.636   1.546
25848WAT     H177786   8.994   0.562   1.480
25848WAT     H277787   9.073   0.689   1.545
25849WAT      O77788   0.388   5.365   9.600
25849WAT     H177789   0.450   5.380   9.523
25849WAT     H277790   0.294   5.387   9.572
25850WAT      O77791   3.153   6.091   2.901
25850WAT     H177792   3.210   6.049   2.972
25850WAT     H277793   3.133   6.023   2.830
25851WAT      O77794   5.318   2.880   7.189
25851WAT     H177795   5.377   2.883   7.269
25851WAT     H277796   5.286   2.787   7.174
25852WAT      O77797   0.035   1.991   7.038
25852WAT     H177798   0.016   1.996   7.136
25852WAT     H277799   0.106   1.923   7.021
25853WAT      O77800   3.029   0.952   8.581
25853WAT     H177801   3.028   1.052   8.588
25853WAT     H277802   2.968   0.922   8.509
25854WAT      O77803   7.410   4.576   1.192
25854WAT     H177804   7.324   4.530   1.217
25854WAT     H277805   7.424   4.570   1.094
25855WAT      O77806   7.729   4.693   4.168
25855WAT     H177807   7.739   4.754   4.247
25855WAT     H277808   7.691   4.743   4.091
25856WAT      O77809   8.536   8.268   7.678
25856WAT     H177810   8.615   8.207   7.676
25856WAT     H277811   8.454   8.214   7.698
25857WAT      O77812   6.364   0.725   0.723
25857WAT     H177813   6.329   0.786   0.651
25857WAT     H277814   6.390   0.779   0.803
25858WAT      O77815   7.999   9.016   3.914
25858WAT     H177816   8.047   8.956   3.850
25858WAT     H277817   7.915   8.972   3.944
25859WAT      O77818   4.546   5.769   6.203
25859WAT     H177819   4.503   5.684   6.232
25859WAT     H277820   4.509   5.845   6.257
25860WAT      O77821   2.652   7.135   1.681
25860WAT     H177822   2.568   7.124   1.627
25860WAT     H277823   2.704   7.049   1.680
25861WAT      O77824   5.849   8.878   2.001
25861WAT     H177825   5.815   8.930   1.923
25861WAT     H277826   5.775   8.863   2.066
25862WAT      O77827   7.672   4.313   3.909
25862WAT     H177828   7.620   4.250   3.967
25862WAT     H277829   7.737   4.364   3.965
25863WAT      O77830   3.420   4.092   9.888
25863WAT     H177831   3.480   4.058   9.961
25863WAT     H277832   3.427   4.191   9.882
25864WAT      O77833   5.150   3.280   4.596
25864WAT     H177834   5.190   3.368   4.571
25864WAT     H277835   5.071   3.261   4.537
25865WAT      O77836   3.879   4.967   1.028
25865WAT     H177837   3.899   4.896   1.096
25865WAT     H277838   3.926   4.945   0.942
25866WAT      O77839   6.745   7.384   5.109
25866WAT     H177840   6.729   7.288   5.087
25866WAT     H277841   6.657   7.428   5.130
25867WAT      O77842   9.560   0.505   4.775
25867WAT     H177843   9.541   0.478   4.680
25867WAT     H277844   9.649   0.551   4.779
25868WAT      O77845   2.758   6.605   0.798
25868WAT     H177846   2.805   6.677   0.748
25868WAT     H277847   2.684   6.568   0.742
25869WAT      O77848   6.353   2.846   9.391
25869WAT     H177849   6.343   2.767   9.330
25869WAT     H277850   6.356   2.815   9.486
25870WAT      O77851   3.801   8.166   0.949
25870WAT     H177852   3.714   8.170   0.899
25870WAT     H277853   3.875   8.198   0.890
25871WAT      O77854   0.426   1.559   2.867
25871WAT     H177855   0.428   1.469   2.824
25871WAT     H277856   0.440   1.550   2.965
25872WAT      O77857   8.875   8.312   5.094
25872WAT     H177858   8.888   8.371   5.014
25872WAT     H277859   8.963   8.275   5.123
25873WAT      O77860   4.701   0.792   9.646
25873WAT     H177861   4.644   0.720   9.686
25873WAT     H277862   4.644   0.873   9.629
25874WAT      O77863   0.351   3.471   1.972
25874WAT     H177864   0.446   3.462   2.002
25874WAT     H277865   0.299   3.519   2.043
25875WAT      O77866   3.124   3.753   6.444
25875WAT     H177867   3.055   3.685   6.467
25875WAT     H277868   3.107   3.837   6.495
25876WAT      O77869   8.024   0.418   5.574
25876WAT     H177870   7.988   0.345   5.515
25876WAT     H277871   8.114   0.445   5.542
25877WAT      O77872   5.020   7.639   5.757
25877WAT     H177873   4.995   7.717   5.815
25877WAT     H277874   5.003   7.554   5.807
25878WAT      O77875   8.384   3.388   6.441
25878WAT     H177876   8.469   3.363   6.487
25878WAT     H277877   8.365   3.485   6.456
25879WAT      O77878   9.350   1.111   9.280
25879WAT     H177879   9.337   1.049   9.203
25879WAT     H277880   9.424   1.078   9.338
25880WAT      O77881   7.782   2.312   2.874
25880WAT     H177882   7.874   2.301   2.911
25880WAT     H277883   7.736   2.223   2.872
25881WAT      O77884   3.505   1.178   6.536
25881WAT     H177885   3.579   1.234   6.499
25881WAT     H277886   3.486   1.102   6.474
25882WAT      O77887   4.306   2.101   6.307
25882WAT     H177888   4.333   2.103   6.210
25882WAT     H277889   4.331   2.187   6.350
25883WAT      O77890   8.134   3.046   6.342
25883WAT     H177891   8.211   3.028   6.280
25883WAT     H277892   8.159   3.118   6.406
25884WAT      O77893   4.288   0.539   9.580
25884WAT     H177894   4.289   0.446   9.617
25884WAT     H277895   4.201   0.555   9.532
25885WAT      O77896   5.751   5.680   5.308
25885WAT     H177897   5.741   5.659   5.211
25885WAT     H277898   5.796   5.603   5.354
25886WAT      O77899   7.464   7.701   9.130
25886WAT     H177900   7.500   7.616   9.168
25886WAT     H277901   7.372   7.685   9.093
25887WAT      O77902   7.068   8.364   5.900
25887WAT     H177903   7.138   8.346   5.970
25887WAT     H277904   6.985   8.397   5.944
25888WAT      O77905   6.455   4.804   9.106
25888WAT     H177906   6.513   4.885   9.098
25888WAT     H277907   6.506   4.731   9.151
25889WAT      O77908   1.094   5.346   4.733
25889WAT     H177909   1.080   5.253   4.699
25889WAT     H277910   1.153   5.396   4.670
25890WAT      O77911   9.560   6.344   8.889
25890WAT     H177912   9.534   6.310   8.980
25890WAT     H277913   9.616   6.276   8.842
25891WAT      O77914   9.675   9.595   8.508
25891WAT     H177915   9.755   9.631   8.459
25891WAT     H277916   9.700   9.575   8.603
25892WAT      O77917   8.402   9.637   0.779
25892WAT     H177918   8.452   9.705   0.833
25892WAT     H277919   8.460   9.557   0.764
25893WAT      O77920   1.713   8.195   2.348
25893WAT     H177921   1.733   8.119   2.410
25893WAT     H277922   1.701   8.160   2.255
25894WAT      O77923   7.359   4.575   6.585
25894WAT     H177924   7.448   4.587   6.541
25894WAT     H277925   7.292   4.544   6.518
25895WAT      O77926   5.904   8.563   1.427
25895WAT     H177927   5.939   8.656   1.438
25895WAT     H277928   5.956   8.517   1.355
25896WAT      O77929   3.382   8.405   9.629
25896WAT     H177930   3.321   8.333   9.663
25896WAT     H277931   3.338   8.494   9.641
25897WAT      O77932   9.197   5.687   7.496
25897WAT     H177933   9.294   5.712   7.488
25897WAT     H277934   9.140   5.766   7.474
25898WAT      O77935   1.064   3.511   1.026
25898WAT     H177936   1.131   3.465   1.083
25898WAT     H277937   1.109   3.543   0.942
25899WAT      O77938   0.078   1.996   5.966
25899WAT     H177939   0.149   1.926   5.962
25899WAT     H277940   0.001   1.968   5.908
25900WAT      O77941   3.077   9.147   0.877
25900WAT     H177942   3.125   9.169   0.792
25900WAT     H277943   3.113   9.204   0.950
25901WAT      O77944   1.286   1.259   4.482
25901WAT     H177945   1.209   1.196   4.483
25901WAT     H277946   1.260   1.344   4.436
25902WAT      O77947   5.612   8.549   7.989
25902WAT     H177948   5.546   8.602   7.937
25902WAT     H277949   5.588   8.452   7.985
25903WAT      O77950   2.327   8.607   9.728
25903WAT     H177951   2.382   8.547   9.669
25903WAT     H277952   2.362   8.700   9.722
25904WAT      O77953   0.273   3.183   4.804
25904WAT     H177954   0.214   3.229   4.871
25904WAT     H277955   0.225   3.177   4.717
25905WAT      O77956   3.526   4.461   8.882
25905WAT     H177957   3.506   4.380   8.826
25905WAT     H277958   3.576   4.528   8.827
25906WAT      O77959   2.649   5.988   2.215
25906WAT     H177960   2.738   5.995   2.170
25906WAT     H277961   2.577   5.995   2.147
25907WAT      O77962   2.647   5.029   2.855
25907WAT     H177963   2.601   5.103   2.806
25907WAT     H277964   2.744   5.050   2.864
25908WAT      O77965   4.235   2.295   1.511
25908WAT     H177966   4.305   2.364   1.497
25908WAT     H277967   4.153   2.338   1.548
25909WAT      O77968   8.757   1.936   6.797
25909WAT     H177969   8.757   1.953   6.698
25909WAT     H277970   8.839   1.883   6.821
25910WAT      O77971   2.431   8.100   9.089
25910WAT     H177972   2.390   8.164   9.024
25910WAT     H277973   2.427   8.008   9.051
25911WAT      O77974   8.518   1.911   5.012
25911WAT     H177975   8.444   1.889   5.074
25911WAT     H277976   8.605   1.885   5.054
25912WAT      O77977   4.719   0.968   3.297
25912WAT     H177978   4.701   0.870   3.294
25912WAT     H277979   4.775   0.990   3.377
25913WAT      O77980   2.911   4.513   1.463
25913WAT     H177981   2.885   4.446   1.394
25913WAT     H277982   2.917   4.603   1.421
25914WAT      O77983   5.740   8.695   2.836
25914WAT     H177984   5.838   8.697   2.857
25914WAT     H277985   5.699   8.784   2.856
25915WAT      O77986   8.565   2.493   0.675
25915WAT     H177987   8.545   2.473   0.771
25915WAT     H277988   8.481   2.514   0.627
25916WAT      O77989   4.510   5.071   2.351
25916WAT     H177990   4.431   5.086   2.291
25916WAT     H277991   4.495   4.987   2.403
25917WAT      O77992   3.252   9.187   7.125
25917WAT     H177993   3.261   9.285   7.108
25917WAT     H277994   3.340   9.150   7.154
25918WAT      O77995   1.196   4.587   8.617
25918WAT     H177996   1.291   4.614   8.600
25918WAT     H277997   1.190   4.488   8.625
25919WAT      O77998   0.877   4.936   7.449
25919WAT     H177999   0.805   4.888   7.399
25919WAT     H278000   0.953   4.874   7.465
25920WAT      O78001   9.081   7.950   5.005
25920WAT     H178002   9.121   8.033   5.043
25920WAT     H278003   9.081   7.878   5.074
25921WAT      O78004   5.081   5.059   4.316
25921WAT     H178005   5.126   4.974   4.291
25921WAT     H278006   4.990   5.040   4.353
25922WAT      O78007   2.051   2.659   8.254
25922WAT     H178008   1.960   2.660   8.212
25922WAT     H278009   2.058   2.734   8.320
25923WAT      O78010   7.407   3.676   1.597
25923WAT     H178011   7.498   3.717   1.597
25923WAT     H278012   7.407   3.597   1.535
25924WAT      O78013   6.106   0.625   3.858
25924WAT     H178014   6.043   0.702   3.852
25924WAT     H278015   6.198   0.654   3.831
25925WAT      O78016   0.741   0.190   2.065
25925WAT     H178017   0.764   0.136   1.985
25925WAT     H278018   0.659   0.245   2.046
25926WAT      O78019   7.611   4.307   1.319
25926WAT     H178020   7.596   4.377   1.388
25926WAT     H278021   7.523   4.272   1.286
25927WAT      O78022   7.938   8.355   2.350
25927WAT     H178023   7.979   8.267   2.374
25927WAT     H278024   7.839   8.349   2.357
25928WAT      O78025   9.572   2.350   3.930
25928WAT     H178026   9.556   2.399   4.016
25928WAT     H278027   9.662   2.375   3.894
25929WAT      O78028   1.234   0.468   7.654
25929WAT     H178029   1.181   0.456   7.570
25929WAT     H278030   1.179   0.441   7.733
25930WAT      O78031   4.661   7.666   9.316
25930WAT     H178032   4.584   7.680   9.379
25930WAT     H278033   4.677   7.751   9.265
25931WAT      O78034   0.592   9.556   8.151
25931WAT     H178035   0.616   9.651   8.131
25931WAT     H278036   0.675   9.505   8.172
25932WAT      O78037   8.891   3.892   6.336
25932WAT     H178038   8.902   3.834   6.417
25932WAT     H278039   8.941   3.977   6.350
25933WAT      O78040   1.082   3.541   9.432
25933WAT     H178041   1.110   3.617   9.373
25933WAT     H278042   1.164   3.492   9.462
25934WAT      O78043   9.832   6.208   9.684
25934WAT     H178044   9.754   6.204   9.622
25934WAT     H278045   9.915   6.184   9.634
25935WAT      O78046   8.667   4.487   7.045
25935WAT     H178047   8.735   4.552   7.078
25935WAT     H278048   8.712   4.416   6.992
25936WAT      O78049   4.929   8.734   1.220
25936WAT     H178050   4.874   8.779   1.290
25936WAT     H278051   5.012   8.787   1.203
25937WAT      O78052   5.260   6.917   9.056
25937WAT     H178053   5.160   6.922   9.058
25937WAT     H278054   5.295   6.914   9.149
25938WAT      O78055   5.755   4.101   0.687
25938WAT     H178056   5.682   4.130   0.625
25938WAT     H278057   5.811   4.180   0.712
25939WAT      O78058   7.772   6.038   6.334
25939WAT     H178059   7.685   6.028   6.382
25939WAT     H278060   7.788   6.135   6.314
25940WAT      O78061   7.134   2.885   6.462
25940WAT     H178062   7.200   2.906   6.390
25940WAT     H278063   7.165   2.926   6.548
25941WAT      O78064   4.083   7.672   2.081
25941WAT     H178065   4.125   7.589   2.044
25941WAT     H278066   4.149   7.748   2.076
25942WAT      O78067   4.375   8.441   8.782
25942WAT     H178068   4.326   8.427   8.867
25942WAT     H278069   4.427   8.527   8.787
25943WAT      O78070   9.748   9.783   2.160
25943WAT     H178071   9.766   9.749   2.068
25943WAT     H278072   9.652   9.767   2.184
25944WAT      O78073   0.160   0.941   7.756
25944WAT     H178074   0.113   0.939   7.667
25944WAT     H278075   0.167   0.849   7.792
25945WAT      O78076   7.831   5.902   0.029
25945WAT     H178077   7.761   5.849   0.077
25945WAT     H278078   7.883   5.841  -0.032
25946WAT      O78079   0.678   5.060   1.343
25946WAT     H178080   0.683   5.159   1.331
25946WAT     H278081   0.585   5.035   1.371
25947WAT      O78082   0.462   3.381   8.491
25947WAT     H178083   0.548   3.427   8.512
25947WAT     H278084   0.476   3.282   8.490
25948WAT      O78085   3.621   5.180   3.135
25948WAT     H178086   3.627   5.105   3.201
25948WAT     H278087   3.713   5.211   3.111
25949WAT      O78088   6.154   0.951   4.924
25949WAT     H178089   6.143   0.854   4.901
25949WAT     H278090   6.102   0.970   5.008
25950WAT      O78091   4.415   4.899   7.986
25950WAT     H178092   4.460   4.830   7.930
25950WAT     H278093   4.477   4.931   8.057
25951WAT      O78094   4.537   5.803   3.315
25951WAT     H178095   4.570   5.894   3.292
25951WAT     H278096   4.465   5.809   3.384
25952WAT      O78097   1.952   6.860   1.247
25952WAT     H178098   1.929   6.936   1.308
25952WAT     H278099   1.877   6.844   1.184
25953WAT      O78100   6.266   9.109   0.216
25953WAT     H178101   6.260   9.205   0.188
25953WAT     H278102   6.331   9.062   0.157
25954WAT      O78103   8.988   3.084   2.048
25954WAT     H178104   8.966   3.167   2.101
25954WAT     H278105   8.996   3.107   1.951
25955WAT      O78106   8.150   2.283   6.913
25955WAT     H178107   8.109   2.356   6.859
25955WAT     H278108   8.082   2.212   6.929
25956WAT      O78109   2.941   1.337   9.685
25956WAT     H178110   2.862   1.347   9.746
25956WAT     H278111   2.980   1.427   9.667
25957WAT      O78112   1.795   3.404   0.837
25957WAT     H178113   1.824   3.497   0.814
25957WAT     H278114   1.701   3.407   0.873
25958WAT      O78115   6.638   5.895   5.338
25958WAT     H178116   6.725   5.941   5.322
25958WAT     H278117   6.563   5.957   5.316
25959WAT      O78118   6.149   7.782   6.329
25959WAT     H178119   6.151   7.682   6.336
25959WAT     H278120   6.083   7.819   6.393
25960WAT      O78121   7.917   8.027   2.233
25960WAT     H178122   7.905   7.929   2.217
25960WAT     H278123   7.934   8.043   2.330
25961WAT      O78124   1.583   8.287   1.550
25961WAT     H178125   1.558   8.204   1.600
25961WAT     H278126   1.671   8.320   1.583
25962WAT      O78127   4.908   7.379   5.043
25962WAT     H178128   4.842   7.434   5.095
25962WAT     H278129   4.923   7.421   4.954
25963WAT      O78130   2.384   2.979   1.041
25963WAT     H178131   2.314   2.938   1.099
25963WAT     H278132   2.462   3.006   1.096
25964WAT      O78133   4.068   7.507   7.779
25964WAT     H178134   3.975   7.490   7.813
25964WAT     H278135   4.129   7.434   7.810
25965WAT      O78136   5.549   1.979   2.880
25965WAT     H178137   5.616   1.997   2.808
25965WAT     H278138   5.587   1.912   2.945
25966WAT      O78139   1.309   3.210   3.429
25966WAT     H178140   1.407   3.227   3.420
25966WAT     H278141   1.283   3.218   3.526
25967WAT      O78142   5.793   5.716   4.340
25967WAT     H178143   5.783   5.776   4.261
25967WAT     H278144   5.798   5.771   4.424
25968WAT      O78145   8.200   5.855   0.196
25968WAT     H178146   8.182   5.944   0.155
25968WAT     H278147   8.197   5.863   0.296
25969WAT      O78148   3.962   6.080   0.725
25969WAT     H178149   4.017   6.144   0.672
25969WAT     H278150   3.944   6.118   0.816
25970WAT      O78151   7.004   5.182   2.832
25970WAT     H178152   7.020   5.230   2.918
25970WAT     H278153   6.944   5.103   2.849
25971WAT      O78154   2.138   4.116   1.463
25971WAT     H178155   2.157   4.182   1.536
25971WAT     H278156   2.050   4.072   1.480
25972WAT      O78157   7.514   0.448   2.771
25972WAT     H178158   7.479   0.525   2.717
25972WAT     H278159   7.451   0.371   2.763
25973WAT      O78160   8.727   8.912   8.174
25973WAT     H178161   8.810   8.880   8.127
25973WAT     H278162   8.646   8.878   8.126
25974WAT      O78163   0.788   0.620   4.120
25974WAT     H178164   0.791   0.571   4.207
25974WAT     H278165   0.879   0.620   4.078
25975WAT      O78166   4.746   9.043   5.570
25975WAT     H178167   4.777   9.079   5.482
25975WAT     H278168   4.791   8.956   5.588
25976WAT      O78169   6.617   0.965   1.219
25976WAT     H178170   6.668   1.020   1.285
25976WAT     H278171   6.540   1.018   1.184
25977WAT      O78172   2.813   5.018   3.880
25977WAT     H178173   2.762   5.104   3.887
25977WAT     H278174   2.764   4.946   3.930
25978WAT      O78175   4.409   2.233   6.893
25978WAT     H178176   4.354   2.186   6.962
25978WAT     H278177   4.386   2.197   6.802
25979WAT      O78178   0.224   1.957   6.750
25979WAT     H178179   0.304   1.985   6.804
25979WAT     H278180   0.226   1.858   6.736
25980WAT      O78181   3.034   4.718   1.819
25980WAT     H178182   3.049   4.637   1.875
25980WAT     H278183   3.093   4.714   1.738
25981WAT      O78184   7.446   0.393   2.388
25981WAT     H178185   7.467   0.479   2.343
25981WAT     H278186   7.447   0.405   2.487
25982WAT      O78187   1.724   1.742   3.729
25982WAT     H178188   1.764   1.691   3.806
25982WAT     H278189   1.656   1.684   3.683
25983WAT      O78190   9.875   6.661   8.173
25983WAT     H178191   9.786   6.654   8.127
25983WAT     H278192   9.870   6.615   8.262
25984WAT      O78193   0.798   9.319   1.066
25984WAT     H178194   0.876   9.264   1.037
25984WAT     H278195   0.754   9.275   1.145
25985WAT      O78196   6.300   7.095   2.385
25985WAT     H178197   6.202   7.109   2.386
25985WAT     H278198   6.347   7.182   2.401
25986WAT      O78199   1.214   3.558   0.818
25986WAT     H178200   1.233   3.610   0.735
25986WAT     H278201   1.289   3.494   0.835
25987WAT      O78202   1.724   9.392   6.731
25987WAT     H178203   1.666   9.313   6.754
25987WAT     H278204   1.804   9.360   6.680
25988WAT      O78205   6.806   2.958   4.665
25988WAT     H178206   6.742   2.885   4.639
25988WAT     H278207   6.809   2.966   4.764
25989WAT      O78208   0.823   7.521   7.751
25989WAT     H178209   0.875   7.510   7.836
25989WAT     H278210   0.742   7.578   7.768
25990WAT      O78211   9.871   2.480   4.467
25990WAT     H178212   9.901   2.389   4.498
25990WAT     H278213   9.781   2.499   4.504
25991WAT      O78214   4.046   5.295   2.017
25991WAT     H178215   3.960   5.289   2.068
25991WAT     H278216   4.122   5.301   2.082
25992WAT      O78217   7.194   6.400   8.544
25992WAT     H178218   7.160   6.358   8.628
25992WAT     H278219   7.272   6.348   8.509
25993WAT      O78220   6.940   7.208   3.438
25993WAT     H178221   7.039   7.199   3.428
25993WAT     H278222   6.917   7.213   3.536
25994WAT      O78223   0.613   7.054   6.962
25994WAT     H178224   0.583   7.051   6.867
25994WAT     H278225   0.696   6.999   6.973
25995WAT      O78226   8.292   8.057   1.570
25995WAT     H178227   8.218   8.040   1.505
25995WAT     H278228   8.373   8.004   1.544
25996WAT      O78229   6.412   6.413   8.999
25996WAT     H178230   6.370   6.502   9.018
25996WAT     H278231   6.393   6.351   9.075
25997WAT      O78232   9.009   7.723   3.389
25997WAT     H178233   8.933   7.701   3.451
25997WAT     H278234   9.059   7.639   3.368
25998WAT      O78235   9.350   3.489   0.526
25998WAT     H178236   9.250   3.491   0.524
25998WAT     H278237   9.383   3.413   0.471
25999WAT      O78238   1.618   1.165   9.493
25999WAT     H178239   1.591   1.106   9.417
25999WAT     H278240   1.702   1.213   9.470
26000WAT      O78241   1.811   3.929   6.888
26000WAT     H178242   1.903   3.960   6.863
26000WAT     H278243   1.743   3.985   6.839
26001WAT      O78244   8.836   5.250   6.581
26001WAT     H178245   8.905   5.321   6.592
26001WAT     H278246   8.881   5.160   6.584
26002WAT      O78247   8.448   6.185   0.540
26002WAT     H178248   8.402   6.113   0.593
26002WAT     H278249   8.395   6.203   0.457
26003WAT      O78250   7.442   9.448   6.701
26003WAT     H178251   7.530   9.406   6.679
26003WAT     H278252   7.454   9.547   6.711
26004WAT      O78253   4.599   5.156   3.053
26004WAT     H178254   4.555   5.086   3.109
26004WAT     H278255   4.582   5.246   3.094
26005WAT      O78256   9.070   9.501   9.290
26005WAT     H178257   9.047   9.406   9.309
26005WAT     H278258   9.125   9.506   9.207
26006WAT      O78259   9.597   2.172   1.932
26006WAT     H178260   9.541   2.162   1.850
26006WAT     H278261   9.675   2.109   1.927
26007WAT      O78262   7.936   2.122   6.987
26007WAT     H178263   7.970   2.141   7.080
26007WAT     H278264   7.860   2.184   6.967
26008WAT      O78265   4.909   0.023   9.176
26008WAT     H178266   4.920  -0.054   9.113
26008WAT     H278267   4.843   0.000   9.247
26009WAT      O78268   4.414   1.268   4.447
26009WAT     H178269   4.392   1.260   4.350
26009WAT     H278270   4.350   1.331   4.490
26010WAT      O78271   1.932   2.907   5.787
26010WAT     H178272   2.031   2.892   5.794
26010WAT     H278273   1.913   2.972   5.713
26011WAT      O78274   3.549   8.256   4.191
26011WAT     H178275   3.629   8.267   4.133
26011WAT     H278276   3.522   8.345   4.228
26012WAT      O78277   2.133   3.406   5.725
26012WAT     H178278   2.219   3.447   5.697
26012WAT     H278279   2.057   3.463   5.693
26013WAT      O78280   1.278   3.668   8.274
26013WAT     H178281   1.190   3.708   8.246
26013WAT     H278282   1.284   3.574   8.240
26014WAT      O78283   7.424   6.442   5.326
26014WAT     H178284   7.467   6.355   5.351
26014WAT     H278285   7.407   6.495   5.409
26015WAT      O78286   8.031   4.417   7.307
26015WAT     H178287   7.951   4.467   7.338
26015WAT     H278288   8.035   4.328   7.353
26016WAT      O78289   0.826   0.784   4.735
26016WAT     H178290   0.855   0.736   4.651
26016WAT     H278291   0.843   0.725   4.814
26017WAT      O78292   1.625   3.537   5.591
26017WAT     H178293   1.567   3.581   5.660
26017WAT     H278294   1.621   3.438   5.603
26018WAT      O78295   7.932   8.816   9.212
26018WAT     H178296   7.894   8.908   9.196
26018WAT     H278297   7.956   8.774   9.125
26019WAT      O78298   9.153   8.105   0.415
26019WAT     H178299   9.162   8.061   0.505
26019WAT     H278300   9.130   8.202   0.429
26020WAT      O78301   1.906   2.224   8.438
26020WAT     H178302   1.905   2.307   8.493
26020WAT     H278303   2.000   2.192   8.425
26021WAT      O78304   7.965   5.771   8.544
26021WAT     H178305   7.898   5.763   8.471
26021WAT     H278306   7.999   5.865   8.549
26022WAT      O78307   1.787   4.056   5.981
26022WAT     H178308   1.740   4.049   5.893
26022WAT     H278309   1.827   3.968   6.004
26023WAT      O78310   0.735   1.516   9.507
26023WAT     H178311   0.707   1.491   9.415
26023WAT     H278312   0.671   1.479   9.573
26024WAT      O78313   9.187   0.274   1.554
26024WAT     H178314   9.280   0.250   1.584
26024WAT     H278315   9.189   0.359   1.502
26025WAT      O78316   5.737   3.019   2.305
26025WAT     H178317   5.722   2.939   2.248
26025WAT     H278318   5.650   3.050   2.344
26026WAT      O78319   6.592   5.156   0.361
26026WAT     H178320   6.672   5.144   0.302
26026WAT     H278321   6.553   5.247   0.347
26027WAT      O78322   8.509   8.617   6.096
26027WAT     H178323   8.577   8.546   6.113
26027WAT     H278324   8.418   8.581   6.114
26028WAT      O78325   5.478   0.690   9.056
26028WAT     H178326   5.495   0.755   8.981
26028WAT     H278327   5.463   0.740   9.141
26029WAT      O78328   1.986   5.127   3.231
26029WAT     H178329   1.890   5.148   3.214
26029WAT     H278330   2.043   5.179   3.168
26030WAT      O78331   4.275   2.103   7.542
26030WAT     H178332   4.243   2.154   7.622
26030WAT     H278333   4.291   2.167   7.466
26031WAT      O78334   4.695   7.553   3.300
26031WAT     H178335   4.650   7.624   3.246
26031WAT     H278336   4.626   7.501   3.351
26032WAT      O78337   8.847   6.099   3.655
26032WAT     H178338   8.766   6.049   3.626
26032WAT     H278339   8.893   6.136   3.575
26033WAT      O78340   8.509   7.490   0.523
26033WAT     H178341   8.468   7.489   0.432
26033WAT     H278342   8.479   7.410   0.574
26034WAT      O78343   8.770   8.123   8.504
26034WAT     H178344   8.721   8.204   8.471
26034WAT     H278345   8.704   8.055   8.535
26035WAT      O78346   4.785   6.808   0.462
26035WAT     H178347   4.700   6.860   0.477
26035WAT     H278348   4.771   6.713   0.488
26036WAT      O78349   2.721   8.883   4.363
26036WAT     H178350   2.695   8.789   4.341
26036WAT     H278351   2.684   8.945   4.294
26037WAT      O78352   6.740   8.908   8.876
26037WAT     H178353   6.641   8.922   8.870
26037WAT     H278354   6.762   8.862   8.961
26038WAT      O78355   3.397   6.891   2.343
26038WAT     H178356   3.428   6.878   2.249
26038WAT     H278357   3.450   6.965   2.385
26039WAT      O78358   9.661   7.780   4.711
26039WAT     H178359   9.693   7.833   4.790
26039WAT     H278360   9.584   7.827   4.668
26040WAT      O78361   5.332   7.631   0.508
26040WAT     H178362   5.308   7.707   0.448
26040WAT     H278363   5.335   7.546   0.454
26041WAT      O78364   4.918   7.725   6.917
26041WAT     H178365   4.818   7.716   6.908
26041WAT     H278366   4.952   7.784   6.844
26042WAT      O78367   0.870   9.356   9.210
26042WAT     H178368   0.918   9.430   9.164
26042WAT     H278369   0.874   9.370   9.309
26043WAT      O78370   8.264   8.556   6.522
26043WAT     H178371   8.254   8.580   6.619
26043WAT     H278372   8.305   8.465   6.515
26044WAT      O78373   1.061   0.700   4.090
26044WAT     H178374   1.114   0.655   4.017
26044WAT     H278375   1.105   0.786   4.115
26045WAT      O78376   9.098   8.313   4.775
26045WAT     H178377   9.080   8.227   4.823
26045WAT     H278378   9.197   8.328   4.772
26046WAT      O78379   9.032   3.349   6.015
26046WAT     H178380   9.040   3.344   6.115
26046WAT     H278381   8.970   3.424   5.991
26047WAT      O78382   2.414   7.255   5.226
26047WAT     H178383   2.342   7.221   5.165
26047WAT     H278384   2.503   7.242   5.183
26048WAT      O78385   4.280   1.991   0.942
26048WAT     H178386   4.354   2.057   0.928
26048WAT     H278387   4.277   1.965   1.038
26049WAT      O78388   3.536   2.369   3.784
26049WAT     H178389   3.530   2.315   3.868
26049WAT     H278390   3.479   2.328   3.713
26050WAT      O78391   1.447   6.197   5.186
26050WAT     H178392   1.397   6.164   5.267
26050WAT     H278393   1.544   6.176   5.196
26051WAT      O78394   9.282   2.663   2.489
26051WAT     H178395   9.341   2.601   2.437
26051WAT     H278396   9.193   2.671   2.443
26052WAT      O78397   2.141   8.712   7.090
26052WAT     H178398   2.142   8.749   7.183
26052WAT     H278399   2.235   8.691   7.061
26053WAT      O78400   2.039   2.389   2.044
26053WAT     H178401   2.092   2.386   2.129
26053WAT     H278402   2.076   2.459   1.984
26054WAT      O78403   9.352   8.440   7.777
26054WAT     H178404   9.336   8.493   7.860
26054WAT     H278405   9.360   8.343   7.799
26055WAT      O78406   1.156   6.869   9.784
26055WAT     H178407   1.085   6.916   9.837
26055WAT     H278408   1.194   6.794   9.838
26056WAT      O78409   9.742   0.189   5.528
26056WAT     H178410   9.654   0.227   5.499
26056WAT     H278411   9.815   0.230   5.474
26057WAT      O78412   2.890   9.768   6.173
26057WAT     H178413   2.968   9.824   6.143
26057WAT     H278414   2.812   9.827   6.193
26058WAT      O78415   1.649   3.848   3.342
26058WAT     H178416   1.569   3.826   3.397
26058WAT     H278417   1.662   3.948   3.342
26059WAT      O78418   4.623   4.947   6.107
26059WAT     H178419   4.687   4.875   6.134
26059WAT     H278420   4.609   5.009   6.184
26060WAT      O78421   7.405   0.465   3.818
26060WAT     H178422   7.430   0.389   3.757
26060WAT     H278423   7.439   0.446   3.910
26061WAT      O78424   5.465   0.201   9.794
26061WAT     H178425   5.468   0.168   9.700
26061WAT     H278426   5.370   0.203   9.825
26062WAT      O78427   3.229   0.006   6.401
26062WAT     H178428   3.202   0.092   6.446
26062WAT     H278429   3.272  -0.054   6.469
26063WAT      O78430   4.528   3.351   7.145
26063WAT     H178431   4.496   3.403   7.066
26063WAT     H278432   4.552   3.414   7.219
26064WAT      O78433   2.348   0.692   4.091
26064WAT     H178434   2.324   0.785   4.119
26064WAT     H278435   2.273   0.630   4.113
26065WAT      O78436   0.957   3.669   1.921
26065WAT     H178437   0.940   3.764   1.950
26065WAT     H278438   0.881   3.638   1.865
26066WAT      O78439   7.353   0.834   4.585
26066WAT     H178440   7.365   0.760   4.519
26066WAT     H278441   7.290   0.804   4.657
26067WAT      O78442   2.870   7.457   3.663
26067WAT     H178443   2.962   7.480   3.630
26067WAT     H278444   2.878   7.406   3.749
26068WAT      O78445   9.159   3.659   2.878
26068WAT     H178446   9.151   3.564   2.909
26068WAT     H278447   9.254   3.677   2.851
26069WAT      O78448   1.818   5.462   1.108
26069WAT     H178449   1.801   5.364   1.109
26069WAT     H278450   1.834   5.494   1.202
26070WAT      O78451   0.826   6.905   2.534
26070WAT     H178452   0.803   6.852   2.616
26070WAT     H278453   0.743   6.925   2.482
26071WAT      O78454   7.678   8.832   1.825
26071WAT     H178455   7.673   8.927   1.857
26071WAT     H278456   7.609   8.777   1.872
26072WAT      O78457   4.102   9.090   8.381
26072WAT     H178458   4.136   9.183   8.365
26072WAT     H278459   4.128   9.031   8.304
26073WAT      O78460   7.384   6.915   3.070
26073WAT     H178461   7.324   6.839   3.097
26073WAT     H278462   7.331   6.999   3.066
26074WAT      O78463   8.131   7.667   4.180
26074WAT     H178464   8.134   7.653   4.081
26074WAT     H278465   8.055   7.614   4.218
26075WAT      O78466   5.252   7.785   0.230
26075WAT     H178467   5.319   7.826   0.291
26075WAT     H278468   5.211   7.856   0.173
26076WAT      O78469   1.184   3.471   7.522
26076WAT     H178470   1.137   3.434   7.442
26076WAT     H278471   1.273   3.427   7.532
26077WAT      O78472   3.999   4.205   8.756
26077WAT     H178473   4.034   4.280   8.812
26077WAT     H278474   3.998   4.233   8.660
26078WAT      O78475   1.958   0.203   2.874
26078WAT     H178476   2.043   0.251   2.897
26078WAT     H278477   1.923   0.238   2.787
26079WAT      O78478   1.555   6.751   2.228
26079WAT     H178479   1.518   6.783   2.315
26079WAT     H278480   1.514   6.662   2.205
26080WAT      O78481   8.610   9.649   5.728
26080WAT     H178482   8.578   9.620   5.818
26080WAT     H278483   8.710   9.656   5.728
26081WAT      O78484   7.592   7.768   4.968
26081WAT     H178485   7.662   7.705   4.932
26081WAT     H278486   7.549   7.816   4.892
26082WAT      O78487   4.114   7.981   4.860
26082WAT     H178488   4.088   8.049   4.928
26082WAT     H278489   4.204   8.003   4.823
26083WAT      O78490   5.508   2.175   9.665
26083WAT     H178491   5.444   2.250   9.682
26083WAT     H278492   5.541   2.138   9.752
26084WAT      O78493   0.362   8.731   6.668
26084WAT     H178494   0.385   8.637   6.642
26084WAT     H278495   0.326   8.733   6.761
26085WAT      O78496   7.018   5.733   7.600
26085WAT     H178497   7.020   5.634   7.609
26085WAT     H278498   6.923   5.765   7.600
26086WAT      O78499   3.275   2.342   9.266
26086WAT     H178500   3.182   2.371   9.244
26086WAT     H278501   3.277   2.243   9.280
26087WAT      O78502   0.552   1.938   0.564
26087WAT     H178503   0.554   2.014   0.629
26087WAT     H278504   0.637   1.885   0.572
26088WAT      O78505   4.184   3.477   7.420
26088WAT     H178506   4.155   3.558   7.369
26088WAT     H278507   4.193   3.400   7.357
26089WAT      O78508   5.518   6.856   6.780
26089WAT     H178509   5.444   6.798   6.815
26089WAT     H278510   5.588   6.798   6.737
26090WAT      O78511   0.869   5.969   0.915
26090WAT     H178512   0.785   6.021   0.900
26090WAT     H278513   0.856   5.875   0.884
26091WAT      O78514   7.828   7.854   4.457
26091WAT     H178515   7.899   7.898   4.512
26091WAT     H278516   7.841   7.876   4.361
26092WAT      O78517   0.719   0.479   4.683
26092WAT     H178518   0.746   0.446   4.774
26092WAT     H278519   0.625   0.453   4.664
26093WAT      O78520   0.295   7.796   7.148
26093WAT     H178521   0.254   7.813   7.238
26093WAT     H278522   0.392   7.818   7.151
26094WAT      O78523   9.770   8.365   8.794
26094WAT     H178524   9.859   8.382   8.835
26094WAT     H278525   9.745   8.269   8.806
26095WAT      O78526   6.380   3.449   9.399
26095WAT     H178527   6.394   3.484   9.307
26095WAT     H278528   6.287   3.471   9.430
26096WAT      O78529   4.292   1.710   1.896
26096WAT     H178530   4.212   1.653   1.912
26096WAT     H278531   4.369   1.675   1.949
26097WAT      O78532   2.979   6.960   2.723
26097WAT     H178533   2.952   7.053   2.696
26097WAT     H278534   2.973   6.950   2.822
26098WAT      O78535   1.701   7.591   5.744
26098WAT     H178536   1.654   7.679   5.742
26098WAT     H278537   1.800   7.607   5.740
26099WAT      O78538   9.138   7.781   2.132
26099WAT     H178539   9.069   7.854   2.123
26099WAT     H278540   9.213   7.814   2.190
26100WAT      O78541   1.798   3.514   1.432
26100WAT     H178542   1.816   3.420   1.461
26100WAT     H278543   1.853   3.536   1.352
26101WAT      O78544   8.487   7.019   2.662
26101WAT     H178545   8.526   6.932   2.630
26101WAT     H278546   8.535   7.095   2.619
26102WAT      O78547   4.775   6.938   2.417
26102WAT     H178548   4.762   6.860   2.478
26102WAT     H278549   4.687   6.971   2.385
26103WAT      O78550   4.867   6.087   3.091
26103WAT     H178551   4.959   6.125   3.096
26103WAT     H278552   4.800   6.161   3.098
26104WAT      O78553   6.657   4.359   7.674
26104WAT     H178554   6.701   4.400   7.594
26104WAT     H278555   6.587   4.422   7.708
26105WAT      O78556   8.812   5.167   6.120
26105WAT     H178557   8.869   5.230   6.068
26105WAT     H278558   8.754   5.115   6.056
26106WAT      O78559   7.434   9.709   3.347
26106WAT     H178560   7.437   9.730   3.249
26106WAT     H278561   7.516   9.658   3.373
26107WAT      O78562   1.397   8.207   0.595
26107WAT     H178563   1.435   8.114   0.591
26107WAT     H278564   1.390   8.244   0.502
26108WAT      O78565   6.049   1.784   4.846
26108WAT     H178566   6.028   1.700   4.795
26108WAT     H278567   6.030   1.770   4.943
26109WAT      O78568   1.587   4.206   6.092
26109WAT     H178569   1.626   4.126   6.048
26109WAT     H278570   1.634   4.288   6.060
26110WAT      O78571   1.354   1.436   4.918
26110WAT     H178572   1.315   1.344   4.927
26110WAT     H278573   1.444   1.438   4.962
26111WAT      O78574   3.805   9.471   3.741
26111WAT     H178575   3.710   9.468   3.712
26111WAT     H278576   3.865   9.474   3.660
26112WAT      O78577   5.783   2.385   5.644
26112WAT     H178578   5.874   2.428   5.643
26112WAT     H278579   5.777   2.324   5.723
26113WAT      O78580   7.836   7.472   8.137
26113WAT     H178581   7.831   7.395   8.201
26113WAT     H278582   7.908   7.455   8.070
26114WAT      O78583   3.874   4.548   5.189
26114WAT     H178584   3.895   4.518   5.282
26114WAT     H278585   3.926   4.631   5.169
26115WAT      O78586   2.628   8.975   3.768
26115WAT     H178587   2.544   8.980   3.714
26115WAT     H278588   2.650   9.065   3.805
26116WAT      O78589   3.026   9.795   2.692
26116WAT     H178590   3.120   9.781   2.724
26116WAT     H278591   2.977   9.852   2.757
26117WAT      O78592   0.148   3.586   7.276
26117WAT     H178593   0.155   3.650   7.353
26117WAT     H278594   0.233   3.533   7.269
26118WAT      O78595   1.867   3.181   8.825
26118WAT     H178596   1.841   3.188   8.922
26118WAT     H278597   1.851   3.088   8.793
26119WAT      O78598   4.250   8.299   3.960
26119WAT     H178599   4.161   8.317   3.918
26119WAT     H278600   4.251   8.336   4.053
26120WAT      O78601   3.829   4.304   6.537
26120WAT     H178602   3.924   4.275   6.525
26120WAT     H278603   3.784   4.307   6.448
26121WAT      O78604   9.731   6.280   3.358
26121WAT     H178605   9.713   6.216   3.283
26121WAT     H278606   9.825   6.313   3.352
26122WAT      O78607   2.857   1.304   6.606
26122WAT     H178608   2.818   1.395   6.613
26122WAT     H278609   2.791   1.236   6.639
26123WAT      O78610   8.319   5.060   6.458
26123WAT     H178611   8.308   4.962   6.478
26123WAT     H278612   8.411   5.089   6.484
26124WAT      O78613   7.237   3.905   8.231
26124WAT     H178614   7.296   3.836   8.273
26124WAT     H278615   7.253   3.907   8.132
26125WAT      O78616   3.513   8.388   8.818
26125WAT     H178617   3.473   8.476   8.842
26125WAT     H278618   3.455   8.314   8.852
26126WAT      O78619   3.755   2.311   6.194
26126WAT     H178620   3.798   2.370   6.262
26126WAT     H278621   3.697   2.367   6.134
26127WAT      O78622   0.023   1.054   0.575
26127WAT     H178623  -0.058   1.032   0.520
26127WAT     H278624  -0.007   1.084   0.666
26128WAT      O78625   7.447   0.365   4.555
26128WAT     H178626   7.538   0.327   4.537
26128WAT     H278627   7.436   0.380   4.653
26129WAT      O78628   1.938   9.278   5.568
26129WAT     H178629   2.025   9.230   5.558
26129WAT     H278630   1.944   9.345   5.642
26130WAT      O78631   8.743   2.743   3.132
26130WAT     H178632   8.675   2.816   3.135
26130WAT     H278633   8.800   2.747   3.214
26131WAT      O78634   5.020   2.952   3.325
26131WAT     H178635   4.933   2.904   3.336
26131WAT     H278636   5.012   3.045   3.361
26132WAT      O78637   6.916   3.781   1.253
26132WAT     H178638   6.994   3.780   1.190
26132WAT     H278639   6.931   3.850   1.324
26133WAT      O78640   8.995   0.493   6.687
26133WAT     H178641   8.916   0.532   6.639
26133WAT     H278642   9.051   0.567   6.723
26134WAT      O78643   4.864   0.327   7.955
26134WAT     H178644   4.775   0.358   7.988
26134WAT     H278645   4.852   0.281   7.866
26135WAT      O78646   8.017   2.140   7.252
26135WAT     H178647   8.102   2.117   7.300
26135WAT     H278648   7.979   2.224   7.290
26136WAT      O78649   9.846   0.267   5.814
26136WAT     H178650   9.787   0.251   5.735
26136WAT     H278651   9.886   0.180   5.843
26137WAT      O78652   8.163   6.634   1.160
26137WAT     H178653   8.132   6.712   1.216
26137WAT     H278654   8.173   6.554   1.218
26138WAT      O78655   0.079   6.936   1.148
26138WAT     H178656  -0.005   6.937   1.201
26138WAT     H278657   0.114   6.842   1.141
26139WAT      O78658   9.112   5.614   2.677
26139WAT     H178659   9.157   5.602   2.588
26139WAT     H278660   9.015   5.632   2.662
26140WAT      O78661   3.496   7.384   6.994
26140WAT     H178662   3.515   7.421   6.903
26140WAT     H278663   3.550   7.433   7.063
26141WAT      O78664   3.180   7.494   0.076
26141WAT     H178665   3.157   7.443   0.159
26141WAT     H278666   3.112   7.566   0.062
26142WAT      O78667   9.161   4.686   3.702
26142WAT     H178668   9.225   4.722   3.770
26142WAT     H278669   9.154   4.750   3.625
26143WAT      O78670   8.558   7.633   6.682
26143WAT     H178671   8.614   7.565   6.730
26143WAT     H278672   8.481   7.586   6.638
26144WAT      O78673   0.562   0.814   4.009
26144WAT     H178674   0.568   0.898   4.062
26144WAT     H278675   0.629   0.748   4.043
26145WAT      O78676   5.606   2.685   9.031
26145WAT     H178677   5.702   2.675   9.059
26145WAT     H278678   5.548   2.632   9.092
26146WAT      O78679   0.043   1.209   6.195
26146WAT     H178680  -0.014   1.277   6.242
26146WAT     H278681   0.124   1.254   6.157
26147WAT      O78682   5.391   1.555   2.348
26147WAT     H178683   5.388   1.473   2.292
26147WAT     H278684   5.475   1.605   2.329
26148WAT      O78685   4.904   2.951   0.634
26148WAT     H178686   4.978   3.003   0.590
26148WAT     H278687   4.880   2.873   0.576
26149WAT      O78688   5.614   0.428   4.239
26149WAT     H178689   5.699   0.375   4.238
26149WAT     H278690   5.560   0.401   4.319
26150WAT      O78691   4.689   3.706   6.401
26150WAT     H178692   4.637   3.792   6.399
26150WAT     H278693   4.787   3.726   6.404
26151WAT      O78694   4.045   0.880   6.163
26151WAT     H178695   4.134   0.848   6.195
26151WAT     H278696   4.010   0.949   6.226
26152WAT      O78697   6.054   5.594   5.115
26152WAT     H178698   6.002   5.666   5.070
26152WAT     H278699   6.147   5.592   5.077
26153WAT      O78700   9.251   4.686   7.215
26153WAT     H178701   9.334   4.710   7.166
26153WAT     H278702   9.247   4.737   7.301
26154WAT      O78703   3.401   8.102   3.849
26154WAT     H178704   3.400   8.107   3.749
26154WAT     H278705   3.313   8.135   3.885
26155WAT      O78706   4.960   5.315   5.656
26155WAT     H178707   4.921   5.291   5.745
26155WAT     H278708   5.059   5.302   5.659
26156WAT      O78709   1.411   2.287   1.481
26156WAT     H178710   1.319   2.248   1.482
26156WAT     H278711   1.452   2.275   1.391
26157WAT      O78712   6.413   1.540   4.185
26157WAT     H178713   6.495   1.554   4.128
26157WAT     H278714   6.384   1.445   4.178
26158WAT      O78715   2.192   5.907   1.789
26158WAT     H178716   2.205   5.853   1.705
26158WAT     H278717   2.198   6.004   1.767
26159WAT      O78718   9.018   4.396   8.266
26159WAT     H178719   8.973   4.329   8.325
26159WAT     H278720   9.018   4.362   8.172
26160WAT      O78721   6.071   5.575   1.042
26160WAT     H178722   6.113   5.602   0.956
26160WAT     H278723   6.126   5.607   1.118
26161WAT      O78724   4.566   8.604   1.393
26161WAT     H178725   4.607   8.629   1.305
26161WAT     H278726   4.511   8.521   1.383
26162WAT      O78727   6.566   0.480   5.250
26162WAT     H178728   6.545   0.416   5.176
26162WAT     H278729   6.566   0.573   5.215
26163WAT      O78730   2.159   5.956   8.061
26163WAT     H178731   2.118   5.916   7.979
26163WAT     H278732   2.157   5.888   8.135
26164WAT      O78733   3.240   2.755   3.203
26164WAT     H178734   3.326   2.729   3.158
26164WAT     H278735   3.210   2.843   3.167
26165WAT      O78736   2.512   6.140   5.583
26165WAT     H178737   2.526   6.177   5.491
26165WAT     H278738   2.514   6.214   5.649
26166WAT      O78739   0.818   5.257   1.654
26166WAT     H178740   0.876   5.232   1.576
26166WAT     H278741   0.862   5.332   1.705
26167WAT      O78742   6.201   3.083   6.896
26167WAT     H178743   6.222   3.016   6.825
26167WAT     H278744   6.257   3.066   6.977
26168WAT      O78745   7.450   7.533   9.741
26168WAT     H178746   7.452   7.452   9.682
26168WAT     H278747   7.483   7.508   9.832
26169WAT      O78748   4.157   7.270   3.928
26169WAT     H178749   4.211   7.228   3.855
26169WAT     H278750   4.157   7.210   4.008
26170WAT      O78751   7.192   0.870   6.114
26170WAT     H178752   7.206   0.919   6.028
26170WAT     H278753   7.196   0.936   6.190
26171WAT      O78754   2.604   1.982   7.580
26171WAT     H178755   2.685   2.029   7.547
26171WAT     H278756   2.616   1.956   7.676
26172WAT      O78757   1.038   5.251   9.222
26172WAT     H178758   1.077   5.164   9.250
26172WAT     H278759   0.958   5.235   9.165
26173WAT      O78760   7.557   6.278   3.201
26173WAT     H178761   7.499   6.355   3.177
26173WAT     H278762   7.603   6.243   3.119
26174WAT      O78763   7.174   3.038   1.856
26174WAT     H178764   7.138   2.996   1.773
26174WAT     H278765   7.271   3.018   1.864
26175WAT      O78766   0.185   3.912   2.102
26175WAT     H178767   0.123   3.962   2.163
26175WAT     H278768   0.279   3.926   2.132
26176WAT      O78769   2.845   6.100   3.622
26176WAT     H178770   2.782   6.047   3.565
26176WAT     H278771   2.875   6.043   3.699
26177WAT      O78772   8.562   6.211   7.274
26177WAT     H178773   8.480   6.208   7.331
26177WAT     H278774   8.550   6.149   7.196
26178WAT      O78775   3.966   2.357   4.390
26178WAT     H178776   3.952   2.278   4.329
26178WAT     H278777   4.005   2.325   4.476
26179WAT      O78778   7.875   6.043   7.707
26179WAT     H178779   7.878   6.135   7.669
26179WAT     H278780   7.968   6.009   7.721
26180WAT      O78781   4.514   2.931   8.161
26180WAT     H178782   4.500   3.014   8.107
26180WAT     H278783   4.610   2.927   8.191
26181WAT      O78784   4.725   5.216   4.312
26181WAT     H178785   4.723   5.145   4.383
26181WAT     H278786   4.659   5.192   4.240
26182WAT      O78787   1.282   1.024   1.109
26182WAT     H178788   1.326   0.950   1.161
26182WAT     H278789   1.343   1.054   1.036
26183WAT      O78790   8.356   5.756   3.763
26183WAT     H178791   8.427   5.762   3.694
26183WAT     H278792   8.266   5.771   3.721
26184WAT      O78793   2.339   7.959   7.083
26184WAT     H178794   2.373   7.972   7.177
26184WAT     H278795   2.409   7.988   7.018
26185WAT      O78796   4.800   4.132   1.143
26185WAT     H178797   4.771   4.039   1.165
26185WAT     H278798   4.773   4.194   1.217
26186WAT      O78799   1.214   0.183   1.170
26186WAT     H178800   1.199   0.175   1.072
26186WAT     H278801   1.282   0.116   1.199
26187WAT      O78802   7.248   0.893   5.035
26187WAT     H178803   7.329   0.835   5.035
26187WAT     H278804   7.272   0.983   5.073
26188WAT      O78805   8.342   3.743   8.682
26188WAT     H178806   8.343   3.756   8.781
26188WAT     H278807   8.378   3.652   8.660
26189WAT      O78808   4.078   2.592   7.820
26189WAT     H178809   4.088   2.557   7.726
26189WAT     H278810   3.983   2.582   7.848
26190WAT      O78811   7.672   0.580   7.160
26190WAT     H178812   7.647   0.535   7.246
26190WAT     H278813   7.690   0.677   7.176
26191WAT      O78814   0.374   0.885   1.822
26191WAT     H178815   0.336   0.946   1.892
26191WAT     H278816   0.301   0.828   1.785
26192WAT      O78817   2.930   1.238   7.359
26192WAT     H178818   2.932   1.334   7.387
26192WAT     H278819   2.888   1.231   7.268
26193WAT      O78820   8.639   6.795   3.986
26193WAT     H178821   8.695   6.875   4.006
26193WAT     H278822   8.659   6.723   4.052
26194WAT      O78823   2.729   9.083   1.249
26194WAT     H178824   2.707   9.132   1.165
26194WAT     H278825   2.784   9.002   1.227
26195WAT      O78826   8.431   3.970   5.969
26195WAT     H178827   8.462   3.921   5.888
26195WAT     H278828   8.331   3.966   5.974
26196WAT      O78829   9.347   9.814   2.742
26196WAT     H178830   9.263   9.868   2.740
26196WAT     H278831   9.417   9.859   2.687
26197WAT      O78832   8.171   2.001   8.367
26197WAT     H178833   8.158   2.080   8.306
26197WAT     H278834   8.201   2.033   8.457
26198WAT      O78835   3.701   6.970   3.722
26198WAT     H178836   3.798   6.967   3.745
26198WAT     H278837   3.680   7.057   3.677
26199WAT      O78838   1.182   6.301   3.567
26199WAT     H178839   1.247   6.307   3.642
26199WAT     H278840   1.192   6.380   3.507
26200WAT      O78841   0.796   1.580   3.233
26200WAT     H178842   0.770   1.619   3.145
26200WAT     H278843   0.779   1.482   3.233
26201WAT      O78844   2.256   1.860   0.938
26201WAT     H178845   2.351   1.830   0.949
26201WAT     H278846   2.255   1.956   0.910
26202WAT      O78847   4.505   7.700   6.706
26202WAT     H178848   4.465   7.783   6.668
26202WAT     H278849   4.507   7.705   6.806
26203WAT      O78850   4.394   6.950   7.381
26203WAT     H178851   4.422   6.854   7.379
26203WAT     H278852   4.324   6.967   7.312
26204WAT      O78853   0.797   6.870   6.872
26204WAT     H178854   0.854   6.800   6.915
26204WAT     H278855   0.791   6.852   6.774
26205WAT      O78856   8.820   9.281   8.368
26205WAT     H178857   8.865   9.347   8.429
26205WAT     H278858   8.886   9.249   8.300
26206WAT      O78859   3.736   1.778   4.450
26206WAT     H178860   3.729   1.820   4.360
26206WAT     H278861   3.734   1.679   4.441
26207WAT      O78862   1.210   4.984   5.607
26207WAT     H178863   1.218   4.896   5.655
26207WAT     H278864   1.289   5.041   5.630
26208WAT      O78865   6.760   7.899   2.303
26208WAT     H178866   6.856   7.913   2.324
26208WAT     H278867   6.741   7.928   2.210
26209WAT      O78868   5.089   6.700   4.936
26209WAT     H178869   5.187   6.716   4.950
26209WAT     H278870   5.066   6.607   4.964
26210WAT      O78871   6.445   7.362   9.312
26210WAT     H178872   6.478   7.437   9.368
26210WAT     H278873   6.448   7.277   9.364
26211WAT      O78874   2.189   8.471   2.626
26211WAT     H178875   2.244   8.472   2.542
26211WAT     H278876   2.238   8.421   2.697
26212WAT      O78877   0.870   0.505   2.452
26212WAT     H178878   0.943   0.524   2.386
26212WAT     H278879   0.903   0.440   2.521
26213WAT      O78880   4.433   0.545   9.332
26213WAT     H178881   4.412   0.580   9.424
26213WAT     H278882   4.366   0.474   9.308
26214WAT      O78883   8.480   3.294   8.826
26214WAT     H178884   8.466   3.345   8.911
26214WAT     H278885   8.574   3.257   8.825
26215WAT      O78886   2.498   6.462   4.977
26215WAT     H178887   2.552   6.397   5.030
26215WAT     H278888   2.520   6.451   4.880
26216WAT      O78889   0.992   3.121   9.680
26216WAT     H178890   0.994   3.025   9.708
26216WAT     H278891   1.020   3.178   9.757
26217WAT      O78892   2.933   6.893   6.780
26217WAT     H178893   2.966   6.876   6.873
26217WAT     H278894   2.857   6.831   6.759
26218WAT      O78895   8.198   9.795   3.646
26218WAT     H178896   8.292   9.771   3.667
26218WAT     H278897   8.195   9.886   3.605
26219WAT      O78898   2.891   3.650   8.399
26219WAT     H178899   2.977   3.630   8.446
26219WAT     H278900   2.844   3.725   8.446
26220WAT      O78901   4.896   2.223   1.142
26220WAT     H178902   4.891   2.181   1.052
26220WAT     H278903   4.989   2.213   1.179
26221WAT      O78904   4.077   9.059   1.209
26221WAT     H178905   4.047   9.151   1.233
26221WAT     H278906   4.003   9.010   1.164
26222WAT      O78907   8.573   1.969   1.853
26222WAT     H178908   8.642   1.930   1.793
26222WAT     H278909   8.497   2.004   1.799
26223WAT      O78910   5.838   9.178   8.940
26223WAT     H178911   5.905   9.175   8.866
26223WAT     H278912   5.748   9.150   8.905
26224WAT      O78913   5.785   6.187   5.140
26224WAT     H178914   5.821   6.104   5.098
26224WAT     H278915   5.700   6.165   5.188
26225WAT      O78916   2.001   0.060   5.827
26225WAT     H178917   1.997   0.138   5.890
26225WAT     H278918   2.025   0.092   5.736
26226WAT      O78919   3.700   2.108   4.343
26226WAT     H178920   3.652   2.196   4.336
26226WAT     H278921   3.639   2.034   4.317
26227WAT      O78922   3.426   6.914   2.044
26227WAT     H178923   3.333   6.904   2.008
26227WAT     H278924   3.456   7.008   2.032
26228WAT      O78925   8.104   7.246   6.143
26228WAT     H178926   8.117   7.325   6.203
26228WAT     H278927   8.139   7.164   6.189
26229WAT      O78928   6.007   4.737   1.943
26229WAT     H178929   5.968   4.819   1.984
26229WAT     H278930   5.934   4.673   1.920
26230WAT      O78931   9.456   3.337   2.522
26230WAT     H178932   9.524   3.410   2.531
26230WAT     H278933   9.364   3.377   2.524
26231WAT      O78934   0.497   2.934   3.420
26231WAT     H178935   0.445   2.975   3.495
26231WAT     H278936   0.552   2.858   3.454
26232WAT      O78937   3.614   2.615   8.206
26232WAT     H178938   3.581   2.699   8.249
26232WAT     H278939   3.714   2.619   8.197
26233WAT      O78940   2.650   0.403   4.647
26233WAT     H178941   2.667   0.501   4.636
26233WAT     H278942   2.599   0.386   4.731
26234WAT      O78943   0.284   6.971   1.849
26234WAT     H178944   0.224   6.891   1.843
26234WAT     H278945   0.255   7.040   1.783
26235WAT      O78946   4.183   9.756   7.881
26235WAT     H178947   4.176   9.792   7.788
26235WAT     H278948   4.119   9.680   7.892
26236WAT      O78949   7.679   5.691   2.538
26236WAT     H178950   7.752   5.760   2.547
26236WAT     H278951   7.718   5.600   2.550
26237WAT      O78952   0.157   1.069   3.861
26237WAT     H178953   0.125   1.028   3.947
26237WAT     H278954   0.198   1.158   3.880
26238WAT      O78955   1.414   3.638   5.756
26238WAT     H178956   1.372   3.718   5.714
26238WAT     H278957   1.344   3.581   5.797
26239WAT      O78958   6.790   5.288   6.760
26239WAT     H178959   6.813   5.331   6.847
26239WAT     H278960   6.703   5.241   6.767
26240WAT      O78961   6.007   0.653   5.537
26240WAT     H178962   6.048   0.594   5.467
26240WAT     H278963   6.046   0.745   5.530
26241WAT      O78964   5.775   2.223   4.279
26241WAT     H178965   5.788   2.132   4.317
26241WAT     H278966   5.680   2.252   4.295
26242WAT      O78967   0.505   1.505   9.660
26242WAT     H178968   0.459   1.594   9.649
26242WAT     H278969   0.438   1.432   9.650
26243WAT      O78970   6.338   5.179   3.444
26243WAT     H178971   6.362   5.275   3.431
26243WAT     H278972   6.359   5.152   3.538
26244WAT      O78973   4.003   1.754   3.637
26244WAT     H178974   4.082   1.806   3.604
26244WAT     H278975   4.000   1.756   3.737
26245WAT      O78976   7.326   1.408   8.372
26245WAT     H178977   7.264   1.486   8.366
26245WAT     H278978   7.274   1.325   8.391
26246WAT      O78979   6.820   2.217   3.030
26246WAT     H178980   6.748   2.223   3.100
26246WAT     H278981   6.908   2.237   3.071
26247WAT      O78982   3.987   8.865   2.828
26247WAT     H178983   3.988   8.943   2.766
26247WAT     H278984   4.044   8.884   2.907
26248WAT      O78985   7.335   0.587   5.754
26248WAT     H178986   7.307   0.624   5.842
26248WAT     H278987   7.427   0.546   5.763
26249WAT      O78988   0.224   6.497   0.174
26249WAT     H178989   0.193   6.538   0.260
26249WAT     H278990   0.172   6.537   0.098
26250WAT      O78991   4.666   4.667   2.062
26250WAT     H178992   4.754   4.629   2.091
26250WAT     H278993   4.680   4.758   2.023
26251WAT      O78994   9.255   5.899   0.617
26251WAT     H178995   9.168   5.889   0.570
26251WAT     H278996   9.270   5.996   0.639
26252WAT      O78997   6.933   1.614   4.765
26252WAT     H178998   6.838   1.596   4.792
26252WAT     H278999   6.988   1.631   4.847
26253WAT      O79000   2.857   3.158   8.174
26253WAT     H179001   2.910   3.147   8.090
26253WAT     H279002   2.858   3.072   8.225
26254WAT      O79003   5.769   3.514   1.368
26254WAT     H179004   5.698   3.523   1.298
26254WAT     H279005   5.793   3.417   1.378
26255WAT      O79006   7.576   7.005   6.627
26255WAT     H179007   7.608   7.091   6.666
26255WAT     H279008   7.583   7.009   6.528
26256WAT      O79009   8.707   5.381   1.792
26256WAT     H179010   8.805   5.364   1.782
26256WAT     H279011   8.686   5.475   1.765
26257WAT      O79012   5.431   1.247   3.279
26257WAT     H179013   5.421   1.338   3.318
26257WAT     H279014   5.484   1.189   3.341
26258WAT      O79015   4.771   1.450   5.447
26258WAT     H179016   4.727   1.505   5.518
26258WAT     H279017   4.720   1.458   5.362
26259WAT      O79018   8.214   1.976   7.655
26259WAT     H179019   8.169   2.031   7.725
26259WAT     H279020   8.309   1.959   7.682
26260WAT      O79021   3.364   0.586   6.318
26260WAT     H179022   3.332   0.664   6.264
26260WAT     H279023   3.396   0.514   6.257
26261WAT      O79024   2.525   7.371   7.365
26261WAT     H179025   2.543   7.469   7.361
26261WAT     H279026   2.611   7.321   7.351
26262WAT      O79027   0.578   2.873   6.301
26262WAT     H179028   0.521   2.881   6.220
26262WAT     H279029   0.672   2.899   6.278
26263WAT      O79030   0.345   4.139   8.625
26263WAT     H179031   0.279   4.093   8.684
26263WAT     H279032   0.373   4.077   8.551
26264WAT      O79033   1.897   7.935   9.343
26264WAT     H179034   1.988   7.976   9.348
26264WAT     H279035   1.896   7.849   9.394
26265WAT      O79036   1.194   9.710   2.104
26265WAT     H179037   1.097   9.707   2.128
26265WAT     H279038   1.211   9.655   2.023
26266WAT      O79039   7.592   6.487   6.309
26266WAT     H179040   7.502   6.442   6.309
26266WAT     H279041   7.594   6.556   6.237
26267WAT      O79042   2.906   5.078   8.020
26267WAT     H179043   2.981   5.113   8.076
26267WAT     H279044   2.836   5.037   8.078
26268WAT      O79045   1.655   2.408   9.285
26268WAT     H179046   1.694   2.403   9.377
26268WAT     H279047   1.597   2.490   9.279
26269WAT      O79048   6.855   7.707   5.088
26269WAT     H179049   6.912   7.640   5.135
26269WAT     H279050   6.908   7.791   5.072
26270WAT      O79051   8.526   6.354   2.694
26270WAT     H179052   8.576   6.314   2.618
26270WAT     H279053   8.590   6.401   2.756
26271WAT      O79054   5.792   7.572   2.664
26271WAT     H179055   5.840   7.486   2.684
26271WAT     H279056   5.799   7.633   2.743
26272WAT      O79057   7.516   0.182   6.578
26272WAT     H179058   7.483   0.257   6.520
26272WAT     H279059   7.510   0.096   6.528
26273WAT      O79060   6.968   6.855   3.334
26273WAT     H179061   6.897   6.925   3.340
26273WAT     H279062   6.928   6.765   3.355
26274WAT      O79063   4.421   8.312   6.700
26274WAT     H179064   4.425   8.235   6.764
26274WAT     H279065   4.500   8.372   6.715
26275WAT      O79066   3.300   0.701   7.777
26275WAT     H179067   3.321   0.763   7.701
26275WAT     H279068   3.312   0.750   7.864
26276WAT      O79069   8.664   0.510   9.847
26276WAT     H179070   8.749   0.494   9.896
26276WAT     H279071   8.670   0.595   9.795
26277WAT      O79072   4.408   7.229   3.392
26277WAT     H179073   4.495   7.185   3.414
26277WAT     H279074   4.389   7.221   3.294
26278WAT      O79075   0.908   8.696   5.773
26278WAT     H179076   0.980   8.729   5.712
26278WAT     H279077   0.847   8.635   5.723
26279WAT      O79078   5.604   3.330   3.198
26279WAT     H179079   5.612   3.403   3.265
26279WAT     H279080   5.674   3.261   3.216
26280WAT      O79081   6.648   8.715   6.579
26280WAT     H179082   6.648   8.769   6.495
26280WAT     H279083   6.636   8.776   6.658
26281WAT      O79084   4.226   4.014   4.589
26281WAT     H179085   4.139   4.059   4.568
26281WAT     H279086   4.298   4.083   4.597
26282WAT      O79087   8.681   5.106   3.842
26282WAT     H179088   8.628   5.151   3.915
26282WAT     H279089   8.731   5.175   3.790
26283WAT      O79090   9.572   3.352   8.636
26283WAT     H179091   9.487   3.317   8.599
26283WAT     H279092   9.648   3.296   8.604
26284WAT      O79093   5.910   7.474   5.560
26284WAT     H179094   5.862   7.546   5.610
26284WAT     H279095   6.007   7.475   5.583
26285WAT      O79096   0.442   5.951   6.605
26285WAT     H179097   0.445   5.946   6.705
26285WAT     H279098   0.504   6.022   6.573
26286WAT      O79099   1.650   5.891   3.463
26286WAT     H179100   1.619   5.808   3.417
26286WAT     H279101   1.622   5.888   3.559
26287WAT      O79102   0.899   0.056   8.017
26287WAT     H179103   0.882   0.142   7.969
26287WAT     H279104   0.842  -0.016   7.978
26288WAT      O79105   8.041   9.784   5.995
26288WAT     H179106   7.951   9.748   6.022
26288WAT     H279107   8.107   9.709   5.992
26289WAT      O79108   9.502   1.072   1.369
26289WAT     H179109   9.427   1.138   1.381
26289WAT     H279110   9.470   0.994   1.317
26290WAT      O79111   5.952   6.013   4.418
26290WAT     H179112   5.878   6.065   4.375
26290WAT     H279113   6.032   6.072   4.428
26291WAT      O79114   4.135   1.259   3.511
26291WAT     H179115   4.106   1.262   3.416
26291WAT     H279116   4.078   1.321   3.565
26292WAT      O79117   3.631   0.056   3.738
26292WAT     H179118   3.590   0.006   3.815
26292WAT     H279119   3.626  -0.000   3.656
26293WAT      O79120   9.568   7.408   3.247
26293WAT     H179121   9.629   7.378   3.320
26293WAT     H279122   9.621   7.429   3.164
26294WAT      O79123   6.359   8.550   7.146
26294WAT     H179124   6.298   8.516   7.075
26294WAT     H279125   6.413   8.474   7.183
26295WAT      O79126   6.439   2.854   0.850
26295WAT     H179127   6.430   2.771   0.795
26295WAT     H279128   6.440   2.934   0.789
26296WAT      O79129   4.272   9.297   7.686
26296WAT     H179130   4.179   9.275   7.716
26296WAT     H279131   4.313   9.362   7.750
26297WAT      O79132   9.612   3.207   6.022
26297WAT     H179133   9.711   3.211   6.007
26297WAT     H279134   9.575   3.299   6.028
26298WAT      O79135   5.993   5.430   6.839
26298WAT     H179136   6.065   5.480   6.888
26298WAT     H279137   6.034   5.354   6.788
26299WAT      O79138   2.765   4.643   2.417
26299WAT     H179139   2.734   4.738   2.420
26299WAT     H279140   2.793   4.620   2.324
26300WAT      O79141   3.385   3.447   7.038
26300WAT     H179142   3.388   3.348   7.021
26300WAT     H279143   3.351   3.463   7.131
26301WAT      O79144   5.930   2.472   6.322
26301WAT     H179145   5.953   2.553   6.268
26301WAT     H279146   5.965   2.390   6.277
26302WAT      O79147   7.198   2.362   6.334
26302WAT     H179148   7.162   2.357   6.241
26302WAT     H279149   7.275   2.425   6.337
26303WAT      O79150   4.814   4.744   8.065
26303WAT     H179151   4.772   4.657   8.090
26303WAT     H279152   4.832   4.745   7.966
26304WAT      O79153   2.840   8.883   5.342
26304WAT     H179154   2.921   8.849   5.389
26304WAT     H279155   2.770   8.812   5.339
26305WAT      O79156   8.185   6.002   3.483
26305WAT     H179157   8.172   5.955   3.570
26305WAT     H279158   8.117   5.970   3.417
26306WAT      O79159   2.516   3.265   1.442
26306WAT     H179160   2.479   3.283   1.533
26306WAT     H279161   2.536   3.352   1.397
26307WAT      O79162   8.075   7.372   9.049
26307WAT     H179163   8.164   7.389   9.008
26307WAT     H279164   8.004   7.384   8.979
26308WAT      O79165   1.474   5.297   5.077
26308WAT     H179166   1.397   5.329   5.133
26308WAT     H279167   1.519   5.376   5.036
26309WAT      O79168   0.376   3.874   3.881
26309WAT     H179169   0.363   3.870   3.980
26309WAT     H279170   0.471   3.851   3.859
26310WAT      O79171   5.517   4.257   4.395
26310WAT     H179172   5.521   4.264   4.296
26310WAT     H279173   5.602   4.215   4.429
26311WAT      O79174   9.178   4.531   7.545
26311WAT     H179175   9.166   4.550   7.643
26311WAT     H279176   9.204   4.435   7.533
26312WAT      O79177   9.261   6.667   3.009
26312WAT     H179178   9.191   6.704   3.070
26312WAT     H279179   9.274   6.569   3.028
26313WAT      O79180   7.474   7.923   0.840
26313WAT     H179181   7.401   7.903   0.775
26313WAT     H279182   7.516   8.010   0.816
26314WAT      O79183   0.460   0.314   2.561
26314WAT     H179184   0.367   0.314   2.525
26314WAT     H279185   0.523   0.350   2.492
26315WAT      O79186   3.620   2.038   0.207
26315WAT     H179187   3.629   2.135   0.230
26315WAT     H279188   3.526   2.009   0.220
26316WAT      O79189   2.766   4.630   1.068
26316WAT     H179190   2.812   4.563   1.126
26316WAT     H279191   2.668   4.632   1.090
26317WAT      O79192   3.784   9.432   1.339
26317WAT     H179193   3.773   9.498   1.413
26317WAT     H279194   3.859   9.461   1.280
26318WAT      O79195   9.173   7.773   7.719
26318WAT     H179196   9.270   7.750   7.721
26318WAT     H279197   9.157   7.859   7.767
26319WAT      O79198   1.809   7.358   4.718
26319WAT     H179199   1.826   7.378   4.814
26319WAT     H279200   1.828   7.438   4.663
26320WAT      O79201   2.018   1.763   4.791
26320WAT     H179202   2.067   1.681   4.760
26320WAT     H279203   2.073   1.844   4.772
26321WAT      O79204   0.162   7.384   2.897
26321WAT     H179205   0.251   7.428   2.884
26321WAT     H279206   0.135   7.392   2.993
26322WAT      O79207   7.402   0.875   3.397
26322WAT     H179208   7.433   0.788   3.358
26322WAT     H279209   7.302   0.874   3.405
26323WAT      O79210   7.179   5.982   5.184
26323WAT     H179211   7.113   5.999   5.257
26323WAT     H279212   7.264   6.031   5.203
26324WAT      O79213   5.565   6.902   8.404
26324WAT     H179214   5.634   6.955   8.454
26324WAT     H279215   5.478   6.952   8.404
26325WAT      O79216   8.010   0.366   7.791
26325WAT     H179217   8.088   0.363   7.852
26325WAT     H279218   8.007   0.282   7.736
26326WAT      O79219   4.460   7.300   9.804
26326WAT     H179220   4.389   7.291   9.733
26326WAT     H279221   4.448   7.387   9.852
26327WAT      O79222   5.164   7.230   3.908
26327WAT     H179223   5.090   7.235   3.974
26327WAT     H279224   5.203   7.321   3.895
26328WAT      O79225   4.744   9.831   7.746
26328WAT     H179226   4.783   9.813   7.837
26328WAT     H279227   4.799   9.785   7.676
26329WAT      O79228   5.876   7.710   0.268
26329WAT     H179229   5.783   7.712   0.303
26329WAT     H279230   5.914   7.618   0.276
26330WAT      O79231   3.352   4.820   3.151
26330WAT     H179232   3.361   4.790   3.056
26330WAT     H279233   3.324   4.743   3.208
26331WAT      O79234   3.940   2.682   2.948
26331WAT     H179235   3.891   2.766   2.923
26331WAT     H279236   4.002   2.657   2.874
26332WAT      O79237   2.203   1.780   6.055
26332WAT     H179238   2.206   1.695   6.002
26332WAT     H279239   2.184   1.857   5.993
26333WAT      O79240   8.581   4.784   1.280
26333WAT     H179241   8.680   4.783   1.268
26333WAT     H279242   8.558   4.829   1.366
26334WAT      O79243   5.000   9.473   7.474
26334WAT     H179244   5.073   9.442   7.413
26334WAT     H279245   5.019   9.441   7.567
26335WAT      O79246   8.356   5.617   9.769
26335WAT     H179247   8.292   5.691   9.750
26335WAT     H279248   8.429   5.616   9.701
26336WAT      O79249   8.762   5.849   1.329
26336WAT     H179250   8.755   5.779   1.258
26336WAT     H279251   8.673   5.859   1.374
26337WAT      O79252   3.859   5.288   3.073
26337WAT     H179253   3.859   5.386   3.095
26337WAT     H279254   3.917   5.273   2.993
26338WAT      O79255   4.792   1.535   0.022
26338WAT     H179256   4.806   1.445  -0.018
26338WAT     H279257   4.733   1.527   0.103
26339WAT      O79258   4.298   1.412   8.322
26339WAT     H179259   4.234   1.455   8.257
26339WAT     H279260   4.357   1.482   8.362
26340WAT      O79261   5.818   7.474   7.657
26340WAT     H179262   5.903   7.425   7.639
26340WAT     H279263   5.742   7.409   7.661
26341WAT      O79264   6.051   5.050   3.688
26341WAT     H179265   6.039   5.072   3.591
26341WAT     H279266   5.994   5.110   3.743
26342WAT      O79267   0.058   6.370   3.058
26342WAT     H179268   0.066   6.362   3.157
26342WAT     H279269   0.124   6.437   3.025
26343WAT      O79270   9.268   9.051   4.681
26343WAT     H179271   9.175   9.067   4.648
26343WAT     H279272   9.282   8.954   4.698
26344WAT      O79273   0.780   3.016   2.733
26344WAT     H179274   0.854   2.956   2.705
26344WAT     H279275   0.758   3.000   2.830
26345WAT      O79276   8.741   0.331   2.011
26345WAT     H179277   8.786   0.410   1.970
26345WAT     H279278   8.810   0.266   2.042
26346WAT      O79279   6.286   1.449   6.253
26346WAT     H179280   6.326   1.527   6.206
26346WAT     H279281   6.337   1.431   6.337
26347WAT      O79282   2.287   4.652   5.047
26347WAT     H179283   2.329   4.715   4.981
26347WAT     H279284   2.189   4.650   5.032
26348WAT      O79285   1.559   3.866   6.418
26348WAT     H179286   1.553   3.963   6.393
26348WAT     H279287   1.655   3.841   6.430
26349WAT      O79288   3.256   4.273   4.247
26349WAT     H179289   3.234   4.351   4.306
26349WAT     H279290   3.182   4.207   4.248
26350WAT      O79291   5.298   3.777   2.924
26350WAT     H179292   5.348   3.861   2.905
26350WAT     H279293   5.301   3.757   3.022
26351WAT      O79294   4.916   0.237   4.831
26351WAT     H179295   4.871   0.201   4.750
26351WAT     H279296   4.977   0.167   4.869
26352WAT      O79297   9.782   8.109   8.803
26352WAT     H179298   9.867   8.124   8.752
26352WAT     H279299   9.784   8.017   8.843
26353WAT      O79300   1.391   4.697   6.016
26353WAT     H179301   1.429   4.668   5.929
26353WAT     H279302   1.405   4.625   6.084
26354WAT      O79303   4.119   0.077   8.194
26354WAT     H179304   4.048   0.040   8.254
26354WAT     H279305   4.208   0.041   8.221
26355WAT      O79306   2.519   2.464   2.066
26355WAT     H179307   2.606   2.498   2.031
26355WAT     H279308   2.485   2.392   2.006
26356WAT      O79309   7.267   5.931   6.781
26356WAT     H179310   7.216   5.926   6.867
26356WAT     H279311   7.288   6.027   6.761
26357WAT      O79312   1.220   6.881   1.455
26357WAT     H179313   1.224   6.807   1.388
26357WAT     H279314   1.300   6.878   1.515
26358WAT      O79315   9.103   1.669   5.270
26358WAT     H179316   9.043   1.655   5.192
26358WAT     H279317   9.106   1.585   5.325
26359WAT      O79318   7.774   5.542   3.719
26359WAT     H179319   7.767   5.604   3.798
26359WAT     H279320   7.684   5.504   3.698
26360WAT      O79321   5.013   1.399   8.651
26360WAT     H179322   5.106   1.420   8.683
26360WAT     H279323   4.997   1.444   8.563
26361WAT      O79324   7.516   5.115   3.515
26361WAT     H179325   7.432   5.110   3.460
26361WAT     H279326   7.545   5.022   3.539
26362WAT      O79327   7.044   7.554   2.406
26362WAT     H179328   7.011   7.535   2.314
26362WAT     H279329   7.017   7.480   2.467
26363WAT      O79330   7.383   1.266   7.249
26363WAT     H179331   7.356   1.362   7.251
26363WAT     H279332   7.301   1.208   7.248
26364WAT      O79333   3.450   9.379   1.833
26364WAT     H179334   3.398   9.422   1.908
26364WAT     H279335   3.547   9.382   1.854
26365WAT      O79336   0.542   7.973   4.868
26365WAT     H179337   0.489   8.058   4.865
26365WAT     H279338   0.565   7.951   4.963
26366WAT      O79339   1.738   6.822   9.797
26366WAT     H179340   1.802   6.878   9.849
26366WAT     H279341   1.764   6.825   9.700
26367WAT      O79342   7.913   4.174   8.625
26367WAT     H179343   7.879   4.267   8.638
26367WAT     H279344   8.004   4.166   8.667
26368WAT      O79345   9.758   0.905   3.126
26368WAT     H179346   9.753   0.890   3.225
26368WAT     H279347   9.756   0.817   3.079
26369WAT      O79348   9.724   4.890   8.533
26369WAT     H179349   9.690   4.919   8.622
26369WAT     H279350   9.796   4.953   8.502
26370WAT      O79351   0.534   7.339   4.840
26370WAT     H179352   0.615   7.285   4.818
26370WAT     H279353   0.463   7.278   4.876
26371WAT      O79354   6.326   6.069   0.783
26371WAT     H179355   6.399   6.016   0.828
26371WAT     H279356   6.361   6.159   0.759
26372WAT      O79357   7.362   3.522   0.910
26372WAT     H179358   7.412   3.605   0.937
26372WAT     H279359   7.264   3.540   0.912
26373WAT      O79360   3.914   7.336   5.041
26373WAT     H179361   3.884   7.382   4.958
26373WAT     H279362   4.014   7.342   5.048
26374WAT      O79363   3.293   7.837   9.572
26374WAT     H179364   3.211   7.888   9.595
26374WAT     H279365   3.268   7.753   9.523
26375WAT      O79366   8.175   4.542   3.134
26375WAT     H179367   8.101   4.602   3.164
26375WAT     H279368   8.136   4.456   3.102
26376WAT      O79369   2.601   4.418   0.549
26376WAT     H179370   2.668   4.423   0.623
26376WAT     H279371   2.624   4.344   0.486
26377WAT      O79372   5.830   8.360   8.330
26377WAT     H179373   5.839   8.342   8.232
26377WAT     H279374   5.853   8.277   8.381
26378WAT      O79375   4.001   0.652   5.432
26378WAT     H179376   4.074   0.687   5.374
26378WAT     H279377   3.997   0.704   5.517
26379WAT      O79378   0.380   3.429   7.245
26379WAT     H179379   0.444   3.417   7.321
26379WAT     H279380   0.426   3.481   7.172
26380WAT      O79381   3.842   6.255   5.989
26380WAT     H179382   3.867   6.159   5.999
26380WAT     H279383   3.922   6.307   5.958
26381WAT      O79384   5.018   6.641   8.980
26381WAT     H179385   5.062   6.728   9.004
26381WAT     H279386   4.937   6.628   9.037
26382WAT      O79387   2.935   7.845   6.649
26382WAT     H179388   2.974   7.757   6.678
26382WAT     H279389   2.994   7.886   6.579
26383WAT      O79390   6.970   6.382   4.958
26383WAT     H179391   7.064   6.416   4.964
26383WAT     H279392   6.958   6.333   4.871
26384WAT      O79393   3.201   7.119   2.184
26384WAT     H179394   3.181   7.026   2.151
26384WAT     H279395   3.300   7.132   2.186
26385WAT      O79396   3.400   7.604   4.575
26385WAT     H179397   3.375   7.575   4.482
26385WAT     H279398   3.367   7.697   4.591
26386WAT      O79399   2.696   6.051   9.889
26386WAT     H179400   2.599   6.038   9.913
26386WAT     H279401   2.704   6.125   9.823
26387WAT      O79402   6.526   2.225   2.748
26387WAT     H179403   6.445   2.188   2.704
26387WAT     H279404   6.576   2.283   2.683
26388WAT      O79405   0.691   8.544   5.686
26388WAT     H179406   0.641   8.626   5.714
26388WAT     H279407   0.651   8.508   5.602
26389WAT      O79408   6.325   0.921   8.047
26389WAT     H179409   6.313   1.004   8.101
26389WAT     H279410   6.293   0.842   8.099
26390WAT      O79411   7.454   5.816   9.100
26390WAT     H179412   7.507   5.849   9.178
26390WAT     H279413   7.370   5.870   9.091
26391WAT      O79414   2.527   9.332   4.098
26391WAT     H179415   2.437   9.289   4.109
26391WAT     H279416   2.550   9.384   4.181
26392WAT      O79417   1.269   7.212   2.894
26392WAT     H179418   1.187   7.258   2.859
26392WAT     H279419   1.268   7.213   2.994
26393WAT      O79420   4.191   1.162   0.324
26393WAT     H179421   4.185   1.229   0.399
26393WAT     H279422   4.261   1.094   0.346
26394WAT      O79423   3.888   7.029   5.678
26394WAT     H179424   3.975   7.073   5.697
26394WAT     H279425   3.815   7.097   5.680
26395WAT      O79426   0.360   6.376   5.681
26395WAT     H179427   0.298   6.403   5.608
26395WAT     H279428   0.326   6.293   5.725
26396WAT      O79429   9.829   1.781   3.236
26396WAT     H179430   9.755   1.778   3.303
26396WAT     H279431   9.871   1.872   3.236
26397WAT      O79432   3.739   5.943   9.542
26397WAT     H179433   3.645   5.977   9.547
26397WAT     H279434   3.800   6.010   9.584
26398WAT      O79435   5.570   3.054   8.384
26398WAT     H179436   5.573   2.964   8.339
26398WAT     H279437   5.656   3.070   8.432
26399WAT      O79438   4.968   5.853   1.927
26399WAT     H179439   4.926   5.813   2.009
26399WAT     H279440   5.039   5.918   1.955
26400WAT      O79441   5.806   3.559   2.070
26400WAT     H179442   5.753   3.602   2.143
26400WAT     H279443   5.873   3.624   2.036
26401WAT      O79444   2.075   3.516   3.932
26401WAT     H179445   2.046   3.609   3.909
26401WAT     H279446   2.131   3.518   4.015
26402WAT      O79447   0.988   9.429   9.478
26402WAT     H179448   0.918   9.364   9.508
26402WAT     H279449   1.029   9.473   9.558
26403WAT      O79450   8.978   1.119   1.918
26403WAT     H179451   8.978   1.184   1.994
26403WAT     H279452   8.960   1.168   1.833
26404WAT      O79453   0.413   5.589   9.208
26404WAT     H179454   0.394   5.493   9.232
26404WAT     H279455   0.412   5.599   9.108
26405WAT      O79456   3.306   2.758   6.844
26405WAT     H179457   3.343   2.718   6.760
26405WAT     H279458   3.381   2.792   6.901
26406WAT      O79459   1.802   0.805   9.314
26406WAT     H179460   1.870   0.748   9.360
26406WAT     H279461   1.713   0.760   9.316
26407WAT      O79462   3.420   9.289   9.505
26407WAT     H179463   3.403   9.236   9.422
26407WAT     H279464   3.334   9.322   9.542
26408WAT      O79465   2.539   3.988   7.951
26408WAT     H179466   2.484   3.994   8.035
26408WAT     H279467   2.583   3.898   7.947
26409WAT      O79468   8.589   1.787   0.193
26409WAT     H179469   8.608   1.696   0.232
26409WAT     H279470   8.664   1.813   0.132
26410WAT      O79471   0.578   2.132   2.568
26410WAT     H179472   0.621   2.056   2.520
26410WAT     H279473   0.632   2.156   2.649
26411WAT      O79474   3.958   5.681   8.923
26411WAT     H179475   3.971   5.732   8.838
26411WAT     H279476   4.042   5.634   8.947
26412WAT      O79477   0.902   4.702   7.790
26412WAT     H179478   1.000   4.722   7.781
26412WAT     H279479   0.870   4.733   7.880
26413WAT      O79480   9.316   6.163   4.477
26413WAT     H179481   9.258   6.175   4.396
26413WAT     H279482   9.410   6.188   4.455
26414WAT      O79483   4.292   3.705   3.469
26414WAT     H179484   4.325   3.675   3.558
26414WAT     H279485   4.195   3.682   3.459
26415WAT      O79486   0.196   5.715   1.204
26415WAT     H179487   0.256   5.658   1.259
26415WAT     H279488   0.219   5.812   1.219
26416WAT      O79489   9.284   4.951   4.902
26416WAT     H179490   9.200   4.927   4.951
26416WAT     H279491   9.299   5.050   4.908
26417WAT      O79492   4.324   1.717   3.607
26417WAT     H179493   4.423   1.716   3.590
26417WAT     H279494   4.285   1.800   3.568
26418WAT      O79495   3.835   0.674   8.178
26418WAT     H179496   3.882   0.748   8.228
26418WAT     H279497   3.763   0.636   8.236
26419WAT      O79498   3.363   3.555   1.745
26419WAT     H179499   3.317   3.493   1.808
26419WAT     H279500   3.407   3.629   1.796
26420WAT      O79501   9.389   7.244   9.680
26420WAT     H179502   9.366   7.336   9.648
26420WAT     H279503   9.338   7.224   9.764
26421WAT      O79504   8.437   4.403   8.301
26421WAT     H179505   8.465   4.386   8.396
26421WAT     H279506   8.392   4.492   8.296
26422WAT      O79507   0.055   1.571   3.119
26422WAT     H179508   0.018   1.479   3.124
26422WAT     H279509  -0.006   1.635   3.167
26423WAT      O79510   0.259   8.934   2.590
26423WAT     H179511   0.218   8.892   2.509
26423WAT     H279512   0.200   9.006   2.625
26424WAT      O79513   4.284   0.236   1.516
26424WAT     H179514   4.292   0.138   1.497
26424WAT     H279515   4.229   0.279   1.444
26425WAT      O79516   8.224   5.237   4.152
26425WAT     H179517   8.275   5.151   4.151
26425WAT     H279518   8.180   5.249   4.241
26426WAT      O79519   5.195   0.254   8.349
26426WAT     H179520   5.272   0.318   8.349
26426WAT     H279521   5.138   0.271   8.269
26427WAT      O79522   6.293   5.468   5.860
26427WAT     H179523   6.291   5.460   5.960
26427WAT     H279524   6.279   5.378   5.819
26428WAT      O79525   0.076   2.800   2.725
26428WAT     H179526  -0.023   2.784   2.725
26428WAT     H279527   0.112   2.783   2.633
26429WAT      O79528   6.113   5.401   3.304
26429WAT     H179529   6.168   5.385   3.222
26429WAT     H279530   6.026   5.351   3.295
26430WAT      O79531   5.623   4.846   0.695
26430WAT     H179532   5.717   4.873   0.674
26430WAT     H279533   5.586   4.793   0.618
26431WAT      O79534   3.613   3.315   0.634
26431WAT     H179535   3.609   3.368   0.719
26431WAT     H279536   3.676   3.358   0.571
26432WAT      O79537   5.655   5.993   5.344
26432WAT     H179538   5.652   5.895   5.363
26432WAT     H279539   5.749   6.027   5.356
26433WAT      O79540   5.747   8.881   1.582
26433WAT     H179541   5.743   8.956   1.648
26433WAT     H279542   5.748   8.919   1.489
26434WAT      O79543   7.037   7.482   6.272
26434WAT     H179544   7.056   7.566   6.322
26434WAT     H279545   7.099   7.475   6.194
26435WAT      O79546   8.214   1.217   1.232
26435WAT     H179547   8.305   1.244   1.202
26435WAT     H279548   8.160   1.187   1.153
26436WAT      O79549   2.655   3.919   1.201
26436WAT     H179550   2.568   3.948   1.160
26436WAT     H279551   2.696   3.996   1.250
26437WAT      O79552   9.738   8.076   5.119
26437WAT     H179553   9.755   8.043   5.212
26437WAT     H279554   9.741   8.176   5.118
26438WAT      O79555   3.643   2.493   6.007
26438WAT     H179556   3.717   2.516   5.944
26438WAT     H279557   3.592   2.576   6.031
26439WAT      O79558   3.103   2.002   1.529
26439WAT     H179559   3.151   2.056   1.460
26439WAT     H279560   3.137   2.025   1.620
26440WAT      O79561   1.683   6.739   3.626
26440WAT     H179562   1.739   6.808   3.672
26440WAT     H279563   1.654   6.670   3.692
26441WAT      O79564   2.672   9.449   8.711
26441WAT     H179565   2.602   9.410   8.651
26441WAT     H279566   2.640   9.536   8.748
26442WAT      O79567   2.735   5.012   2.087
26442WAT     H179568   2.807   4.996   2.019
26442WAT     H279569   2.679   5.090   2.058
26443WAT      O79570   7.147   6.649   7.927
26443WAT     H179571   7.118   6.554   7.919
26443WAT     H279572   7.239   6.653   7.966
26444WAT      O79573   4.364   0.921   2.089
26444WAT     H179574   4.320   0.851   2.145
26444WAT     H279575   4.463   0.917   2.103
26445WAT      O79576   3.540   7.497   2.820
26445WAT     H179577   3.582   7.487   2.730
26445WAT     H279578   3.446   7.463   2.817
26446WAT      O79579   6.839   7.310   7.154
26446WAT     H179580   6.768   7.241   7.166
26446WAT     H279581   6.884   7.298   7.066
26447WAT      O79582   5.505   7.053   0.750
26447WAT     H179583   5.492   7.138   0.699
26447WAT     H279584   5.581   7.002   0.712
26448WAT      O79585   5.835   8.674   0.387
26448WAT     H179586   5.764   8.607   0.407
26448WAT     H279587   5.803   8.737   0.317
26449WAT      O79588   3.889   4.736   0.526
26449WAT     H179589   3.838   4.821   0.508
26449WAT     H279590   3.889   4.718   0.624
26450WAT      O79591   0.034   4.271   6.374
26450WAT     H179592  -0.033   4.198   6.381
26450WAT     H279593  -0.011   4.359   6.390
26451WAT      O79594   2.838   3.225   0.730
26451WAT     H179595   2.801   3.309   0.690
26451WAT     H279596   2.812   3.219   0.827
26452WAT      O79597   9.458   3.356   3.544
26452WAT     H179598   9.480   3.262   3.519
26452WAT     H279599   9.526   3.390   3.610
26453WAT      O79600   0.133   3.333   3.199
26453WAT     H179601   0.162   3.281   3.280
26453WAT     H279602   0.035   3.318   3.185
26454WAT      O79603   5.177   0.019   3.766
26454WAT     H179604   5.239   0.091   3.796
26454WAT     H279605   5.213  -0.025   3.684
26455WAT      O79606   4.814   2.128   6.689
26455WAT     H179607   4.833   2.092   6.780
26455WAT     H279608   4.897   2.127   6.634
26456WAT      O79609   7.131   1.709   0.943
26456WAT     H179610   7.197   1.648   0.987
26456WAT     H279611   7.179   1.769   0.879
26457WAT      O79612   7.930   0.356   2.996
26457WAT     H179613   7.894   0.384   2.907
26457WAT     H279614   8.029   0.369   2.997
26458WAT      O79615   8.432   5.918   7.503
26458WAT     H179616   8.379   6.003   7.511
26458WAT     H279617   8.476   5.898   7.590
26459WAT      O79618   5.934   8.594   4.493
26459WAT     H179619   5.903   8.673   4.547
26459WAT     H279620   6.033   8.601   4.479
26460WAT      O79621   2.253   3.513   0.426
26460WAT     H179622   2.207   3.434   0.465
26460WAT     H279623   2.217   3.532   0.334
26461WAT      O79624   6.447   6.986   8.223
26461WAT     H179625   6.436   6.896   8.265
26461WAT     H279626   6.538   6.993   8.182
26462WAT      O79627   8.587   0.574   3.377
26462WAT     H179628   8.623   0.482   3.360
26462WAT     H279629   8.621   0.607   3.465
26463WAT      O79630   5.857   1.957   9.220
26463WAT     H179631   5.908   2.027   9.170
26463WAT     H279632   5.909   1.872   9.221
26464WAT      O79633   7.424   1.711   5.039
26464WAT     H179634   7.394   1.632   4.985
26464WAT     H279635   7.510   1.747   5.001
26465WAT      O79636   2.420   3.047   9.584
26465WAT     H179637   2.411   3.145   9.564
26465WAT     H279638   2.470   3.002   9.510
26466WAT      O79639   0.972   3.687   3.857
26466WAT     H179640   0.886   3.680   3.807
26466WAT     H279641   0.957   3.667   3.954
26467WAT      O79642   7.266   7.544   6.682
26467WAT     H179643   7.233   7.465   6.630
26467WAT     H279644   7.211   7.556   6.764
26468WAT      O79645   4.981   5.336   9.203
26468WAT     H179646   4.926   5.377   9.275
26468WAT     H279647   5.018   5.408   9.144
26469WAT      O79648   6.005   2.466   0.740
26469WAT     H179649   6.047   2.394   0.684
26469WAT     H279650   5.985   2.545   0.683
26470WAT      O79651   1.324   0.351   5.356
26470WAT     H179652   1.275   0.282   5.409
26470WAT     H279653   1.263   0.388   5.286
26471WAT      O79654   8.023   7.633   4.491
26471WAT     H179655   7.931   7.672   4.487
26471WAT     H279656   8.019   7.536   4.467
26472WAT      O79657   4.349   8.360   8.024
26472WAT     H179658   4.442   8.329   8.006
26472WAT     H279659   4.287   8.282   8.019
26473WAT      O79660   8.730   0.850   2.136
26473WAT     H179661   8.716   0.756   2.166
26473WAT     H279662   8.826   0.876   2.153
26474WAT      O79663   3.444   2.199   0.592
26474WAT     H179664   3.424   2.232   0.684
26474WAT     H279665   3.377   2.130   0.566
26475WAT      O79666   6.830   0.775   1.991
26475WAT     H179667   6.789   0.716   1.921
26475WAT     H279668   6.769   0.782   2.069
26476WAT      O79669   9.454   8.645   4.899
26476WAT     H179670   9.480   8.599   4.984
26476WAT     H279671   9.536   8.664   4.845
26477WAT      O79672   9.645   1.130   0.974
26477WAT     H179673   9.582   1.201   1.006
26477WAT     H279674   9.594   1.056   0.931
26478WAT      O79675   0.502   2.534   3.221
26478WAT     H179676   0.526   2.517   3.316
26478WAT     H279677   0.402   2.533   3.211
26479WAT      O79678   8.965   8.558   8.507
26479WAT     H179679   8.990   8.464   8.485
26479WAT     H279680   8.954   8.567   8.606
26480WAT      O79681   0.993   9.104   7.449
26480WAT     H179682   0.902   9.132   7.480
26480WAT     H279683   0.995   9.004   7.440
26481WAT      O79684   4.650   0.338   3.177
26481WAT     H179685   4.732   0.360   3.230
26481WAT     H279686   4.674   0.275   3.103
26482WAT      O79687   2.865   0.815   6.200
26482WAT     H179688   2.767   0.803   6.219
26482WAT     H279689   2.916   0.745   6.251
26483WAT      O79690   4.436   2.464   1.409
26483WAT     H179691   4.518   2.469   1.466
26483WAT     H279692   4.462   2.455   1.313
26484WAT      O79693   2.563   7.156   3.479
26484WAT     H179694   2.471   7.128   3.503
26484WAT     H279695   2.584   7.127   3.386
26485WAT      O79696   5.548   8.313   7.078
26485WAT     H179697   5.509   8.222   7.086
26485WAT     H279698   5.591   8.340   7.164
26486WAT      O79699   9.248   7.646   6.588
26486WAT     H179700   9.331   7.629   6.535
26486WAT     H279701   9.174   7.674   6.526
26487WAT      O79702   2.755   4.511   4.280
26487WAT     H179703   2.744   4.476   4.373
26487WAT     H279704   2.852   4.517   4.258
26488WAT      O79705   2.871   6.441   8.162
26488WAT     H179706   2.775   6.468   8.156
26488WAT     H279707   2.926   6.521   8.186
26489WAT      O79708   0.279   1.508   9.856
26489WAT     H179709   0.265   1.566   9.936
26489WAT     H279710   0.373   1.474   9.855
26490WAT      O79711   7.945   0.812   5.474
26490WAT     H179712   7.931   0.910   5.479
26490WAT     H279713   8.019   0.785   5.536
26491WAT      O79714   5.484   9.305   8.587
26491WAT     H179715   5.429   9.349   8.658
26491WAT     H279716   5.462   9.346   8.498
26492WAT      O79717   3.957   8.192   1.632
26492WAT     H179718   3.969   8.242   1.546
26492WAT     H279719   3.991   8.247   1.708
26493WAT      O79720   4.998   6.958   4.118
26493WAT     H179721   5.094   6.986   4.117
26493WAT     H279722   4.990   6.865   4.154
26494WAT      O79723   3.099   1.857   7.379
26494WAT     H179724   3.157   1.791   7.332
26494WAT     H279725   3.146   1.945   7.384
26495WAT      O79726   4.657   3.734   7.343
26495WAT     H179727   4.747   3.766   7.314
26495WAT     H279728   4.652   3.634   7.334
26496WAT      O79729   9.780   7.104   8.478
26496WAT     H179730   9.786   7.017   8.430
26496WAT     H279731   9.761   7.089   8.575
26497WAT      O79732   8.841   0.597   1.991
26497WAT     H179733   8.841   0.631   1.897
26497WAT     H279734   8.931   0.612   2.033
26498WAT      O79735   1.787   3.907   2.098
26498WAT     H179736   1.874   3.857   2.101
26498WAT     H279737   1.711   3.843   2.108
26499WAT      O79738   9.561   7.148   0.040
26499WAT     H179739   9.627   7.111  -0.026
26499WAT     H279740   9.469   7.119   0.014
26500WAT      O79741   0.944   2.070   5.988
26500WAT     H179742   0.969   2.161   5.955
26500WAT     H279743   0.987   2.000   5.930
26501WAT      O79744   2.293   2.394   4.217
26501WAT     H179745   2.293   2.490   4.244
26501WAT     H279746   2.239   2.383   4.133
26502WAT      O79747   3.516   4.277   2.608
26502WAT     H179748   3.444   4.311   2.669
26502WAT     H279749   3.593   4.340   2.610
26503WAT      O79750   6.731   5.627   4.106
26503WAT     H179751   6.682   5.656   4.024
26503WAT     H279752   6.736   5.527   4.108
26504WAT      O79753   9.400   2.904   2.902
26504WAT     H179754   9.360   2.973   2.962
26504WAT     H279755   9.482   2.940   2.859
26505WAT      O79756   6.542   9.765   2.114
26505WAT     H179757   6.449   9.798   2.131
26505WAT     H279758   6.541   9.698   2.041
26506WAT      O79759   1.902   2.787   9.007
26506WAT     H179760   1.974   2.735   8.961
26506WAT     H279761   1.837   2.821   8.940
26507WAT      O79762   6.997   1.603   5.559
26507WAT     H179763   7.048   1.675   5.511
26507WAT     H279764   7.061   1.533   5.591
26508WAT      O79765   6.502   8.972   4.948
26508WAT     H179766   6.574   9.017   4.896
26508WAT     H279767   6.530   8.962   5.044
26509WAT      O79768   1.784   8.427   9.270
26509WAT     H179769   1.809   8.394   9.179
26509WAT     H279770   1.862   8.474   9.310
26510WAT      O79771   0.567   8.304   0.141
26510WAT     H179772   0.559   8.212   0.179
26510WAT     H279773   0.659   8.339   0.159
26511WAT      O79774   2.188   4.338   0.186
26511WAT     H179775   2.105   4.282   0.190
26511WAT     H279776   2.197   4.391   0.270
26512WAT      O79777   0.370   4.395   6.709
26512WAT     H179778   0.274   4.371   6.726
26512WAT     H279779   0.382   4.493   6.721
26513WAT      O79780   3.570   7.804   0.378
26513WAT     H179781   3.512   7.851   0.444
26513WAT     H279782   3.616   7.727   0.422
26514WAT      O79783   2.296   1.179   1.158
26514WAT     H179784   2.386   1.220   1.150
26514WAT     H279785   2.299   1.085   1.123
26515WAT      O79786   5.895   2.034   3.717
26515WAT     H179787   5.935   1.943   3.712
26515WAT     H279788   5.892   2.064   3.812
26516WAT      O79789   5.357   8.915   1.753
26516WAT     H179790   5.417   8.843   1.718
26516WAT     H279791   5.405   9.003   1.748
26517WAT      O79792   8.452   0.618   4.539
26517WAT     H179793   8.432   0.698   4.597
26517WAT     H279794   8.395   0.622   4.457
26518WAT      O79795   7.541   8.311   5.355
26518WAT     H179796   7.602   8.385   5.327
26518WAT     H279797   7.537   8.307   5.455
26519WAT      O79798   7.342   9.016   3.859
26519WAT     H179799   7.269   9.023   3.792
26519WAT     H279800   7.367   9.107   3.891
26520WAT      O79801   3.068   5.835   3.930
26520WAT     H179802   2.972   5.864   3.932
26520WAT     H279803   3.126   5.913   3.908
26521WAT      O79804   7.986   4.582   7.720
26521WAT     H179805   8.015   4.626   7.635
26521WAT     H279806   8.066   4.548   7.770
26522WAT      O79807   5.701   8.308   7.592
26522WAT     H179808   5.793   8.323   7.629
26522WAT     H279809   5.680   8.211   7.591
26523WAT      O79810   2.850   7.305   1.582
26523WAT     H179811   2.781   7.234   1.598
26523WAT     H279812   2.928   7.289   1.642
26524WAT      O79813   0.938   7.406   2.025
26524WAT     H179814   0.995   7.377   1.949
26524WAT     H279815   0.927   7.330   2.089
26525WAT      O79816   5.977   8.588   8.371
26525WAT     H179817   5.919   8.511   8.347
26525WAT     H279818   5.921   8.662   8.407
26526WAT      O79819   1.958   3.747   2.609
26526WAT     H179820   1.984   3.741   2.705
26526WAT     H279821   1.987   3.664   2.562
26527WAT      O79822   0.400   9.333   2.976
26527WAT     H179823   0.400   9.243   3.019
26527WAT     H279824   0.488   9.378   2.991
26528WAT      O79825   3.045   8.615   1.002
26528WAT     H179826   2.971   8.593   1.065
26528WAT     H279827   3.098   8.692   1.038
26529WAT      O79828   6.756   1.422   0.330
26529WAT     H179829   6.847   1.382   0.318
26529WAT     H279830   6.765   1.521   0.345
26530WAT      O79831   0.957   2.247   5.318
26530WAT     H179832   0.890   2.209   5.254
26530WAT     H279833   0.995   2.174   5.374
26531WAT      O79834   4.105   4.673   7.882
26531WAT     H179835   4.166   4.726   7.942
26531WAT     H279836   4.069   4.732   7.810
26532WAT      O79837   0.475   7.993   3.339
26532WAT     H179838   0.505   8.046   3.418
26532WAT     H279839   0.534   7.913   3.329
26533WAT      O79840   1.493   2.589   3.863
26533WAT     H179841   1.515   2.642   3.781
26533WAT     H279842   1.440   2.509   3.837
26534WAT      O79843   8.223   0.503   8.298
26534WAT     H179844   8.199   0.407   8.280
26534WAT     H279845   8.142   0.553   8.328
26535WAT      O79846   8.745   9.546   3.789
26535WAT     H179847   8.815   9.517   3.854
26535WAT     H279848   8.785   9.554   3.698
26536WAT      O79849   6.346   7.358   6.976
26536WAT     H179850   6.335   7.335   7.072
26536WAT     H279851   6.434   7.323   6.943
26537WAT      O79852   9.319   2.606   3.381
26537WAT     H179853   9.312   2.534   3.451
26537WAT     H279854   9.250   2.591   3.311
26538WAT      O79855   6.928   0.337   7.791
26538WAT     H179856   6.855   0.404   7.783
26538WAT     H279857   7.003   0.361   7.730
26539WAT      O79858   7.210   3.037   8.041
26539WAT     H179859   7.254   3.040   7.951
26539WAT     H279860   7.181   2.943   8.061
26540WAT      O79861   0.969   8.065   1.014
26540WAT     H179862   0.912   8.098   1.089
26540WAT     H279863   0.916   8.065   0.929
26541WAT      O79864   6.506   4.819   5.151
26541WAT     H179865   6.494   4.821   5.251
26541WAT     H279866   6.601   4.795   5.130
26542WAT      O79867   5.148   4.394   3.289
26542WAT     H179868   5.178   4.360   3.378
26542WAT     H279869   5.207   4.357   3.218
26543WAT      O79870   0.650   2.019   1.536
26543WAT     H179871   0.657   2.110   1.579
26543WAT     H279872   0.730   1.964   1.561
26544WAT      O79873   6.661   3.706   2.092
26544WAT     H179874   6.666   3.671   1.998
26544WAT     H279875   6.599   3.650   2.146
26545WAT      O79876   0.974   2.273   4.309
26545WAT     H179877   0.958   2.330   4.228
26545WAT     H279878   1.061   2.225   4.300
26546WAT      O79879   0.741   7.302   2.390
26546WAT     H179880   0.812   7.343   2.447
26546WAT     H279881   0.657   7.293   2.443
26547WAT      O79882   4.578   9.019   7.145
26547WAT     H179883   4.527   9.105   7.146
26547WAT     H279884   4.648   9.021   7.217
26548WAT      O79885   1.156   7.119   3.884
26548WAT     H179886   1.078   7.182   3.882
26548WAT     H279887   1.194   7.117   3.976
26549WAT      O79888   5.108   6.310   1.607
26549WAT     H179889   5.046   6.383   1.579
26549WAT     H279890   5.083   6.279   1.699
26550WAT      O79891   8.188   6.299   8.219
26550WAT     H179892   8.264   6.236   8.233
26550WAT     H279893   8.204   6.352   8.136
26551WAT      O79894   9.591   5.174   9.694
26551WAT     H179895   9.658   5.100   9.684
26551WAT     H279896   9.544   5.165   9.782
26552WAT      O79897   0.145   2.398   5.690
26552WAT     H179898   0.122   2.473   5.628
26552WAT     H279899   0.072   2.387   5.757
26553WAT      O79900   2.675   3.001   8.506
26553WAT     H179901   2.598   3.057   8.475
26553WAT     H279902   2.735   3.056   8.565
26554WAT      O79903   7.137   4.221   9.274
26554WAT     H179904   7.094   4.309   9.254
26554WAT     H279905   7.164   4.219   9.370
26555WAT      O79906   9.159   6.245   0.458
26555WAT     H179907   9.059   6.252   0.451
26555WAT     H279908   9.184   6.222   0.553
26556WAT      O79909   2.153   3.165   5.171
26556WAT     H179910   2.064   3.132   5.206
26556WAT     H279911   2.169   3.127   5.080
26557WAT      O79912   2.638   2.608   7.065
26557WAT     H179913   2.724   2.606   7.013
26557WAT     H279914   2.657   2.639   7.158
26558WAT      O79915   8.088   5.587   5.881
26558WAT     H179916   8.087   5.614   5.784
26558WAT     H279917   8.104   5.489   5.888
26559WAT      O79918   5.242   4.121   0.469
26559WAT     H179919   5.168   4.147   0.532
26559WAT     H279920   5.203   4.097   0.380
26560WAT      O79921   7.175   8.066   6.602
26560WAT     H179922   7.135   8.015   6.526
26560WAT     H279923   7.266   8.098   6.576
26561WAT      O79924   0.933   2.415   8.592
26561WAT     H179925   0.926   2.339   8.657
26561WAT     H279926   1.008   2.398   8.528
26562WAT      O79927   8.131   5.106   9.593
26562WAT     H179928   8.213   5.162   9.596
26562WAT     H279929   8.077   5.129   9.512
26563WAT      O79930   9.242   6.641   8.076
26563WAT     H179931   9.262   6.624   8.172
26563WAT     H279932   9.312   6.700   8.036
26564WAT      O79933   7.613   9.256   8.321
26564WAT     H179934   7.619   9.162   8.289
26564WAT     H279935   7.675   9.269   8.399
26565WAT      O79936   1.972   8.578   8.044
26565WAT     H179937   2.018   8.616   7.964
26565WAT     H279938   1.902   8.642   8.076
26566WAT      O79939   6.096   3.308   8.385
26566WAT     H179940   6.125   3.221   8.424
26566WAT     H279941   6.174   3.352   8.340
26567WAT      O79942   1.190   3.188   8.841
26567WAT     H179943   1.237   3.150   8.762
26567WAT     H279944   1.243   3.168   8.924
26568WAT      O79945   1.449   2.612   5.740
26568WAT     H179946   1.518   2.644   5.804
26568WAT     H279947   1.492   2.556   5.669
26569WAT      O79948   0.418   1.376   2.501
26569WAT     H179949   0.461   1.388   2.411
26569WAT     H279950   0.331   1.425   2.504
26570WAT      O79951   1.917   1.914   2.271
26570WAT     H179952   2.009   1.936   2.302
26570WAT     H279953   1.914   1.819   2.239
26571WAT      O79954   0.972   6.018   5.407
26571WAT     H179955   0.899   6.087   5.408
26571WAT     H279956   1.049   6.051   5.352
26572WAT      O79957   5.240   8.305   6.912
26572WAT     H179958   5.282   8.214   6.904
26572WAT     H279959   5.284   8.368   6.849
26573WAT      O79960   2.968   2.058   5.343
26573WAT     H179961   3.018   2.047   5.257
26573WAT     H279962   2.980   1.977   5.400
26574WAT      O79963   5.199   5.161   2.369
26574WAT     H179964   5.260   5.232   2.404
26574WAT     H279965   5.254   5.091   2.324
26575WAT      O79966   8.264   3.410   5.897
26575WAT     H179967   8.281   3.460   5.812
26575WAT     H279968   8.190   3.454   5.947
26576WAT      O79969   2.362   3.850   4.631
26576WAT     H179970   2.409   3.771   4.593
26576WAT     H279971   2.287   3.877   4.571
26577WAT      O79972   0.239   3.050   1.702
26577WAT     H179973   0.244   2.963   1.752
26577WAT     H279974   0.329   3.092   1.699
26578WAT      O79975   6.426   5.922   0.080
26578WAT     H179976   6.480   5.855   0.131
26578WAT     H279977   6.486   5.996   0.049
26579WAT      O79978   5.172   9.638   0.755
26579WAT     H179979   5.093   9.665   0.811
26579WAT     H279980   5.255   9.680   0.792
26580WAT      O79981   6.018   4.574   8.740
26580WAT     H179982   6.079   4.585   8.661
26580WAT     H279983   5.966   4.489   8.730
26581WAT      O79984   6.524   0.071   5.788
26581WAT     H179985   6.485  -0.021   5.785
26581WAT     H279986   6.537   0.099   5.883
26582WAT      O79987   4.411   1.227   1.924
26582WAT     H179988   4.360   1.271   1.850
26582WAT     H279989   4.504   1.262   1.925
26583WAT      O79990   7.357   2.771   1.962
26583WAT     H179991   7.413   2.713   1.902
26583WAT     H279992   7.405   2.785   2.049
26584WAT      O79993   6.799   0.154   5.350
26584WAT     H179994   6.893   0.120   5.356
26584WAT     H279995   6.741   0.103   5.414
26585WAT      O79996   3.553   8.736   1.000
26585WAT     H179997   3.631   8.680   1.027
26585WAT     H279998   3.472   8.706   1.050
26586WAT      O79999   1.141   7.060   7.709
26586WAT     H180000   1.058   7.094   7.665
26586WAT     H280001   1.123   7.044   7.806
26587WAT      O80002   1.186   9.633   4.336
26587WAT     H180003   1.141   9.676   4.258
26587WAT     H280004   1.226   9.704   4.394
26588WAT      O80005   4.853   2.980   7.791
26588WAT     H180006   4.771   3.035   7.803
26588WAT     H280007   4.900   3.008   7.707
26589WAT      O80008   7.188   2.518   7.735
26589WAT     H180009   7.269   2.494   7.681
26589WAT     H280010   7.134   2.436   7.752
26590WAT      O80011   3.527   8.133   6.407
26590WAT     H180012   3.476   8.091   6.331
26590WAT     H280013   3.574   8.062   6.458
26591WAT      O80014   0.814   4.847   8.020
26591WAT     H180015   0.838   4.909   7.945
26591WAT     H280016   0.863   4.875   8.102
26592WAT      O80017   6.989   2.446   4.177
26592WAT     H180018   7.010   2.390   4.097
26592WAT     H280019   6.908   2.502   4.158
26593WAT      O80020   6.325   1.054   4.050
26593WAT     H180021   6.385   0.991   4.000
26593WAT     H280022   6.256   1.001   4.100
26594WAT      O80023   1.924   8.207   6.711
26594WAT     H180024   1.984   8.214   6.790
26594WAT     H280025   1.829   8.220   6.740
26595WAT      O80026   5.391   2.197   2.000
26595WAT     H180027   5.354   2.276   1.951
26595WAT     H280028   5.356   2.197   2.094
26596WAT      O80029   4.829   5.850   2.223
26596WAT     H180030   4.741   5.895   2.213
26596WAT     H280031   4.893   5.911   2.270
26597WAT      O80032   2.918   1.400   3.109
26597WAT     H180033   2.917   1.429   3.205
26597WAT     H280034   2.827   1.414   3.069
26598WAT      O80035   2.368   8.006   7.368
26598WAT     H180036   2.323   8.091   7.340
26598WAT     H280037   2.424   8.022   7.449
26599WAT      O80038   9.738   7.824   3.149
26599WAT     H180039   9.642   7.796   3.137
26599WAT     H280040   9.770   7.793   3.239
26600WAT      O80041   9.100   8.368   0.413
26600WAT     H180042   9.146   8.436   0.469
26600WAT     H280043   9.008   8.401   0.389
26601WAT      O80044   6.581   1.691   7.607
26601WAT     H180045   6.508   1.650   7.553
26601WAT     H280046   6.602   1.632   7.685
26602WAT      O80047   5.287   9.513   2.359
26602WAT     H180048   5.356   9.501   2.288
26602WAT     H280049   5.226   9.434   2.359
26603WAT      O80050   4.562   3.825   0.470
26603WAT     H180051   4.635   3.847   0.535
26603WAT     H280052   4.581   3.737   0.427
26604WAT      O80053   2.846   6.158   5.619
26604WAT     H180054   2.860   6.249   5.659
26604WAT     H280055   2.930   6.104   5.628
26605WAT      O80056   8.433   5.537   5.931
26605WAT     H180057   8.409   5.609   5.866
26605WAT     H280058   8.409   5.565   6.023
26606WAT      O80059   0.197   1.569   1.834
26606WAT     H180060   0.207   1.647   1.772
26606WAT     H280061   0.286   1.524   1.846
26607WAT      O80062   3.081   7.609   2.838
26607WAT     H180063   3.107   7.686   2.898
26607WAT     H280064   3.163   7.557   2.815
26608WAT      O80065   6.401   1.535   7.487
26608WAT     H180066   6.323   1.521   7.549
26608WAT     H280067   6.444   1.448   7.467
26609WAT      O80068   7.844   6.537   0.095
26609WAT     H180069   7.823   6.451   0.048
26609WAT     H280070   7.843   6.523   0.194
26610WAT      O80071   0.597   3.541   8.885
26610WAT     H180072   0.677   3.521   8.942
26610WAT     H280073   0.567   3.635   8.901
26611WAT      O80074   4.594   2.098   7.441
26611WAT     H180075   4.567   2.049   7.524
26611WAT     H280076   4.549   2.056   7.361
26612WAT      O80077   3.277   2.692   2.187
26612WAT     H180078   3.289   2.770   2.249
26612WAT     H280079   3.235   2.616   2.236
26613WAT      O80080   9.724   9.196   8.445
26613WAT     H180081   9.777   9.280   8.436
26613WAT     H280082   9.658   9.206   8.519
26614WAT      O80083   7.743   6.854   7.635
26614WAT     H180084   7.776   6.811   7.551
26614WAT     H280085   7.749   6.953   7.626
26615WAT      O80086   1.958   6.413   1.480
26615WAT     H180087   1.962   6.319   1.514
26615WAT     H280088   1.928   6.413   1.385
26616WAT      O80089   6.826   3.329   8.957
26616WAT     H180090   6.864   3.273   9.031
26616WAT     H280091   6.891   3.401   8.933
26617WAT      O80092   4.577   8.900   2.153
26617WAT     H180093   4.646   8.830   2.174
26617WAT     H280094   4.623   8.987   2.137
26618WAT      O80095   2.844   1.142   3.351
26618WAT     H180096   2.914   1.153   3.421
26618WAT     H280097   2.817   1.231   3.316
26619WAT      O80098   3.724   6.055   0.606
26619WAT     H180099   3.816   6.048   0.645
26619WAT     H280100   3.658   6.067   0.680
26620WAT      O80101   4.733   8.481   3.213
26620WAT     H180102   4.744   8.401   3.154
26620WAT     H280103   4.637   8.487   3.241
26621WAT      O80104   4.680   6.778   7.921
26621WAT     H180105   4.665   6.863   7.972
26621WAT     H280106   4.777   6.756   7.921
26622WAT      O80107   4.384   9.246   7.148
26622WAT     H180108   4.286   9.228   7.137
26622WAT     H280109   4.409   9.328   7.096
26623WAT      O80110   4.038   0.055   3.647
26623WAT     H180111   3.985   0.063   3.732
26623WAT     H280112   4.065   0.145   3.615
26624WAT      O80113   0.105   8.349   8.972
26624WAT     H180114   0.172   8.423   8.971
26624WAT     H280115   0.152   8.261   8.963
26625WAT      O80116   9.653   3.419   5.134
26625WAT     H180117   9.708   3.339   5.110
26625WAT     H280118   9.643   3.424   5.233
26626WAT      O80119   0.693   1.444   0.031
26626WAT     H180120   0.676   1.347   0.048
26626WAT     H280121   0.665   1.467  -0.062
26627WAT      O80122   5.833   0.585   9.861
26627WAT     H180123   5.872   0.497   9.833
26627WAT     H280124   5.754   0.606   9.804
26628WAT      O80125   6.310   2.302   3.405
26628WAT     H180126   6.374   2.366   3.448
26628WAT     H280127   6.333   2.291   3.308
26629WAT      O80128   2.336   8.955   9.480
26629WAT     H180129   2.376   8.898   9.408
26629WAT     H280130   2.352   8.912   9.569
26630WAT      O80131   0.255   4.283   8.424
26630WAT     H180132   0.160   4.303   8.400
26630WAT     H280133   0.259   4.244   8.516
26631WAT      O80134   6.764   0.098   7.591
26631WAT     H180135   6.767  -0.001   7.580
26631WAT     H280136   6.851   0.137   7.563
26632WAT      O80137   2.580   8.094   5.858
26632WAT     H180138   2.494   8.101   5.909
26632WAT     H280139   2.632   8.178   5.869
26633WAT      O80140   6.643   6.791   4.657
26633WAT     H180141   6.630   6.888   4.641
26633WAT     H280142   6.683   6.777   4.748
26634WAT      O80143   0.821   1.934   1.963
26634WAT     H180144   0.803   2.019   1.913
26634WAT     H280145   0.914   1.902   1.942
26635WAT      O80146   7.881   1.741   0.360
26635WAT     H180147   7.840   1.684   0.431
26635WAT     H280148   7.837   1.722   0.273
26636WAT      O80149   4.339   5.122   8.165
26636WAT     H180150   4.253   5.111   8.115
26636WAT     H280151   4.342   5.054   8.239
26637WAT      O80152   0.328   6.161   7.107
26637WAT     H180153   0.286   6.095   7.169
26637WAT     H280154   0.310   6.254   7.140
26638WAT      O80155   5.016   1.798   8.272
26638WAT     H180156   5.090   1.860   8.246
26638WAT     H280157   4.966   1.770   8.190
26639WAT      O80158   5.710   1.822   7.949
26639WAT     H180159   5.802   1.785   7.936
26639WAT     H280160   5.643   1.757   7.914
26640WAT      O80161   2.013   5.580   6.703
26640WAT     H180162   2.006   5.586   6.802
26640WAT     H280163   1.922   5.586   6.662
26641WAT      O80164   4.532   1.732   4.443
26641WAT     H180165   4.543   1.732   4.343
26641WAT     H280166   4.435   1.729   4.465
26642WAT      O80167   7.797   6.042   3.296
26642WAT     H180168   7.796   6.141   3.286
26642WAT     H280169   7.791   6.018   3.393
26643WAT      O80170   8.863   8.634   0.196
26643WAT     H180171   8.840   8.537   0.185
26643WAT     H280172   8.922   8.663   0.120
26644WAT      O80173   4.439   7.334   6.408
26644WAT     H180174   4.527   7.315   6.451
26644WAT     H280175   4.394   7.410   6.456
26645WAT      O80176   9.695   7.895   4.090
26645WAT     H180177   9.700   7.830   4.014
26645WAT     H280178   9.639   7.973   4.063
26646WAT      O80179   5.205   4.356   3.578
26646WAT     H180180   5.155   4.442   3.590
26646WAT     H280181   5.144   4.279   3.592
26647WAT      O80182   6.589   2.836   9.099
26647WAT     H180183   6.503   2.879   9.073
26647WAT     H280184   6.646   2.823   9.018
26648WAT      O80185   1.794   6.579   3.421
26648WAT     H180186   1.727   6.508   3.438
26648WAT     H280187   1.780   6.655   3.485
26649WAT      O80188   0.007   9.059   2.228
26649WAT     H180189   0.011   9.073   2.130
26649WAT     H280190  -0.067   9.115   2.267
26650WAT      O80191   6.709   8.578   5.131
26650WAT     H180192   6.769   8.506   5.166
26650WAT     H280193   6.759   8.633   5.063
26651WAT      O80194   9.543   5.048   8.311
26651WAT     H180195   9.482   5.029   8.234
26651WAT     H280196   9.608   4.972   8.322
26652WAT      O80197   7.191   6.869   2.497
26652WAT     H180198   7.277   6.818   2.506
26652WAT     H280199   7.162   6.901   2.587
26653WAT      O80200   5.734   5.960   8.926
26653WAT     H180201   5.790   5.881   8.903
26653WAT     H280202   5.788   6.024   8.981
26654WAT      O80203   6.111   5.381   0.267
26654WAT     H180204   6.172   5.460   0.274
26654WAT     H280205   6.038   5.390   0.334
26655WAT      O80206   2.227   3.255   2.917
26655WAT     H180207   2.146   3.212   2.877
26655WAT     H280208   2.282   3.187   2.964
26656WAT      O80209   4.154   8.925   9.679
26656WAT     H180210   4.096   9.006   9.676
26656WAT     H280211   4.225   8.937   9.748
26657WAT      O80212   9.846   2.789   7.768
26657WAT     H180213   9.782   2.862   7.791
26657WAT     H280214   9.845   2.719   7.840
26658WAT      O80215   0.776   3.351   2.868
26658WAT     H180216   0.724   3.335   2.784
26658WAT     H280217   0.746   3.436   2.911
26659WAT      O80218   3.748   2.445   0.329
26659WAT     H180219   3.711   2.537   0.348
26659WAT     H280220   3.674   2.386   0.299
26660WAT      O80221   5.589   9.131   1.988
26660WAT     H180222   5.531   9.213   1.991
26660WAT     H280223   5.627   9.114   2.080
26661WAT      O80224   0.142   6.842   9.275
26661WAT     H180225   0.127   6.762   9.333
26661WAT     H280226   0.082   6.917   9.304
26662WAT      O80227   8.529   1.997   0.628
26662WAT     H180228   8.480   1.934   0.568
26662WAT     H280229   8.573   2.068   0.573
26663WAT      O80230   6.500   8.054   6.799
26663WAT     H180231   6.481   7.966   6.842
26663WAT     H280232   6.557   8.040   6.718
26664WAT      O80233   6.955   5.010   7.254
26664WAT     H180234   6.985   5.044   7.343
26664WAT     H280235   7.012   4.933   7.227
26665WAT      O80236   8.252   9.479   3.116
26665WAT     H180237   8.285   9.449   3.027
26665WAT     H280238   8.214   9.401   3.166
26666WAT      O80239   4.085   9.575   8.544
26666WAT     H180240   4.097   9.674   8.543
26666WAT     H280241   4.174   9.530   8.556
26667WAT      O80242   6.105   2.941   6.031
26667WAT     H180243   6.100   3.018   6.094
26667WAT     H280244   6.119   2.974   5.938
26668WAT      O80245   4.031   4.664   3.639
26668WAT     H180246   4.083   4.692   3.719
26668WAT     H280247   3.964   4.735   3.617
26669WAT      O80248   6.767   7.312   4.118
26669WAT     H180249   6.831   7.384   4.091
26669WAT     H280250   6.772   7.299   4.217
26670WAT      O80251   0.400   8.448   3.261
26670WAT     H180252   0.354   8.435   3.348
26670WAT     H280253   0.340   8.418   3.186
26671WAT      O80254   9.282   7.066   0.034
26671WAT     H180255   9.261   7.054   0.131
26671WAT     H280256   9.282   6.978  -0.011
26672WAT      O80257   1.131   2.961   4.168
26672WAT     H180258   1.155   3.055   4.145
26672WAT     H280259   1.214   2.911   4.193
26673WAT      O80260   6.971   7.796   9.451
26673WAT     H180261   7.042   7.781   9.520
26673WAT     H280262   6.882   7.769   9.489
26674WAT      O80263   1.029   6.005   9.230
26674WAT     H180264   1.086   5.943   9.177
26674WAT     H280265   1.086   6.077   9.270
26675WAT      O80266   1.377   2.978   4.548
26675WAT     H180267   1.416   3.036   4.620
26675WAT     H280268   1.365   2.885   4.583
26676WAT      O80269   8.226   4.980   7.015
26676WAT     H180270   8.289   5.016   6.947
26676WAT     H280271   8.140   4.954   6.971
26677WAT      O80272   8.978   7.560   0.362
26677WAT     H180273   8.977   7.490   0.434
26677WAT     H280274   8.973   7.651   0.404
26678WAT      O80275   3.868   3.292   5.552
26678WAT     H180276   3.785   3.270   5.603
26678WAT     H280277   3.945   3.299   5.616
26679WAT      O80278   7.005   8.657   9.008
26679WAT     H180279   6.943   8.647   9.086
26679WAT     H280280   7.099   8.667   9.041
26680WAT      O80281   4.516   4.394   5.474
26680WAT     H180282   4.567   4.389   5.560
26680WAT     H280283   4.559   4.461   5.413
26681WAT      O80284   1.782   7.653   8.733
26681WAT     H180285   1.723   7.733   8.721
26681WAT     H280286   1.726   7.570   8.735
26682WAT      O80287   2.128   1.789   1.155
26682WAT     H180288   2.163   1.864   1.211
26682WAT     H280289   2.172   1.792   1.065
26683WAT      O80290   2.758   3.403   1.970
26683WAT     H180291   2.787   3.491   1.932
26683WAT     H280292   2.661   3.408   1.993
26684WAT      O80293   8.331   0.482   5.198
26684WAT     H180294   8.311   0.509   5.104
26684WAT     H280295   8.260   0.420   5.231
26685WAT      O80296   7.583   7.674   2.671
26685WAT     H180297   7.633   7.755   2.641
26685WAT     H280298   7.631   7.632   2.749
26686WAT      O80299   9.017   3.965   2.765
26686WAT     H180300   8.957   3.886   2.757
26686WAT     H280301   9.079   3.953   2.843
26687WAT      O80302   5.886   8.725   5.707
26687WAT     H180303   5.808   8.723   5.769
26687WAT     H280304   5.916   8.819   5.693
26688WAT      O80305   6.000   3.681   3.833
26688WAT     H180306   6.031   3.776   3.830
26688WAT     H280307   6.048   3.628   3.763
26689WAT      O80308   9.431   6.836   0.753
26689WAT     H180309   9.426   6.928   0.715
26689WAT     H280310   9.432   6.769   0.679
26690WAT      O80311   6.064   7.447   9.610
26690WAT     H180312   5.979   7.494   9.587
26690WAT     H280313   6.141   7.490   9.563
26691WAT      O80314   2.833   1.689   4.857
26691WAT     H180315   2.809   1.780   4.889
26691WAT     H280316   2.785   1.620   4.912
26692WAT      O80317   0.668   1.770   4.479
26692WAT     H180318   0.669   1.704   4.554
26692WAT     H280319   0.687   1.722   4.393
26693WAT      O80320   0.335   2.011   6.131
26693WAT     H180321   0.423   2.022   6.084
26693WAT     H280322   0.272   2.082   6.099
26694WAT      O80323   4.505   1.535   3.362
26694WAT     H180324   4.573   1.469   3.332
26694WAT     H280325   4.475   1.512   3.454
26695WAT      O80326   3.907   6.473   6.886
26695WAT     H180327   3.823   6.509   6.927
26695WAT     H280328   3.959   6.424   6.956
26696WAT      O80329   4.829   3.897   8.266
26696WAT     H180330   4.852   3.840   8.345
26696WAT     H280331   4.904   3.961   8.247
26697WAT      O80332   9.162   3.555   5.601
26697WAT     H180333   9.174   3.456   5.610
26697WAT     H280334   9.192   3.600   5.686
26698WAT      O80335   2.094   5.510   2.396
26698WAT     H180336   2.099   5.489   2.299
26698WAT     H280337   2.161   5.581   2.419
26699WAT      O80338   9.148   0.967   6.177
26699WAT     H180339   9.151   0.883   6.122
26699WAT     H280340   9.104   1.040   6.125
26700WAT      O80341   9.139   4.797   6.424
26700WAT     H180342   9.075   4.743   6.370
26700WAT     H280343   9.176   4.741   6.498
26701WAT      O80344   1.964   3.068   3.923
26701WAT     H180345   1.917   3.021   3.848
26701WAT     H280346   1.999   3.001   3.988
26702WAT      O80347   8.739   8.336   4.468
26702WAT     H180348   8.714   8.290   4.554
26702WAT     H280349   8.817   8.289   4.427
26703WAT      O80350   0.219   5.905   6.128
26703WAT     H180351   0.185   5.850   6.052
26703WAT     H280352   0.178   5.996   6.124
26704WAT      O80353   8.255   8.802   2.959
26704WAT     H180354   8.191   8.856   2.903
26704WAT     H280355   8.307   8.741   2.899
26705WAT      O80356   6.692   5.536   1.087
26705WAT     H180357   6.646   5.461   1.038
26705WAT     H280358   6.790   5.529   1.074
26706WAT      O80359   7.878   6.582   5.848
26706WAT     H180360   7.829   6.534   5.921
26706WAT     H280361   7.972   6.597   5.875
26707WAT      O80362   4.184   7.979   2.728
26707WAT     H180363   4.154   8.070   2.698
26707WAT     H280364   4.104   7.927   2.759
26708WAT      O80365   2.495   8.252   3.193
26708WAT     H180366   2.542   8.202   3.265
26708WAT     H280367   2.490   8.196   3.111
26709WAT      O80368   9.560   6.891   4.480
26709WAT     H180369   9.516   6.834   4.411
26709WAT     H280370   9.580   6.836   4.561
26710WAT      O80371   5.337   8.520   2.394
26710WAT     H180372   5.379   8.582   2.460
26710WAT     H280373   5.307   8.572   2.314
26711WAT      O80374   0.052   2.040   4.419
26711WAT     H180375   0.075   2.101   4.495
26711WAT     H280376  -0.040   2.060   4.386
26712WAT      O80377   4.853   5.001   7.797
26712WAT     H180378   4.919   5.039   7.732
26712WAT     H280379   4.864   4.902   7.802
26713WAT      O80380   8.827   5.449   2.990
26713WAT     H180381   8.851   5.545   2.979
26713WAT     H280382   8.906   5.398   3.026
26714WAT      O80383   5.442   5.590   5.608
26714WAT     H180384   5.443   5.492   5.588
26714WAT     H280385   5.372   5.610   5.676
26715WAT      O80386   0.158   3.859   5.651
26715WAT     H180387   0.164   3.771   5.603
26715WAT     H280388   0.062   3.884   5.664
26716WAT      O80389   5.176   9.181   6.777
26716WAT     H180390   5.159   9.106   6.840
26716WAT     H280391   5.109   9.178   6.702
26717WAT      O80392   8.142   8.810   3.384
26717WAT     H180393   8.116   8.765   3.298
26717WAT     H280394   8.149   8.909   3.369
26718WAT      O80395   6.197   3.497   3.717
26718WAT     H180396   6.227   3.484   3.622
26718WAT     H280397   6.211   3.413   3.768
26719WAT      O80398   1.885   6.426   1.220
26719WAT     H180399   1.950   6.489   1.179
26719WAT     H280400   1.861   6.354   1.155
26720WAT      O80401   7.503   1.735   6.455
26720WAT     H180402   7.530   1.830   6.472
26720WAT     H280403   7.433   1.732   6.384
26721WAT      O80404   8.710   3.396   2.711
26721WAT     H180405   8.728   3.460   2.785
26721WAT     H280406   8.687   3.306   2.750
26722WAT      O80407   3.194   7.773   4.979
26722WAT     H180408   3.232   7.827   5.054
26722WAT     H280409   3.188   7.677   5.008
26723WAT      O80410   9.277   1.577   4.873
26723WAT     H180411   9.228   1.660   4.849
26723WAT     H280412   9.312   1.585   4.967
26724WAT      O80413   2.653   1.062   9.755
26724WAT     H180414   2.722   1.132   9.768
26724WAT     H280415   2.696   0.978   9.721
26725WAT      O80416   2.914   8.869   8.882
26725WAT     H180417   2.912   8.921   8.967
26725WAT     H280418   2.930   8.931   8.805
26726WAT      O80419   0.490   3.558   0.596
26726WAT     H180420   0.524   3.464   0.587
26726WAT     H280421   0.494   3.586   0.692
26727WAT      O80422   6.784   5.105   0.166
26727WAT     H180423   6.698   5.086   0.120
26727WAT     H280424   6.856   5.046   0.130
26728WAT      O80425   0.748   7.247   1.865
26728WAT     H180426   0.692   7.198   1.932
26728WAT     H280427   0.839   7.262   1.904
26729WAT      O80428   4.034   6.953   0.504
26729WAT     H180429   4.027   6.868   0.452
26729WAT     H280430   4.110   6.947   0.568
26730WAT      O80431   8.313   4.165   6.300
26730WAT     H180432   8.358   4.079   6.278
26730WAT     H280433   8.228   4.147   6.350
26731WAT      O80434   3.880   4.775   6.490
26731WAT     H180435   3.820   4.839   6.442
26731WAT     H280436   3.974   4.789   6.461
26732WAT      O80437   7.748   7.430   2.758
26732WAT     H180438   7.770   7.360   2.691
26732WAT     H280439   7.663   7.407   2.805
26733WAT      O80440   1.386   5.334   5.393
26733WAT     H180441   1.357   5.322   5.488
26733WAT     H280442   1.454   5.407   5.388
26734WAT      O80443   4.271   6.969   5.347
26734WAT     H180444   4.363   6.945   5.318
26734WAT     H280445   4.251   6.927   5.435
26735WAT      O80446   0.935   0.183   0.666
26735WAT     H180447   0.964   0.263   0.718
26735WAT     H280448   0.894   0.116   0.728
26736WAT      O80449   7.947   5.885   9.464
26736WAT     H180450   8.035   5.928   9.445
26736WAT     H280451   7.944   5.794   9.422
26737WAT      O80452   1.845   3.129   0.760
26737WAT     H180453   1.767   3.069   0.779
26737WAT     H280454   1.824   3.222   0.791
26738WAT      O80455   1.098   8.446   3.453
26738WAT     H180456   1.079   8.538   3.419
26738WAT     H280457   1.192   8.443   3.487
26739WAT      O80458   1.508   4.207   0.944
26739WAT     H180459   1.432   4.211   0.879
26739WAT     H280460   1.565   4.287   0.933
26740WAT      O80461   6.980   7.010   1.156
26740WAT     H180462   6.895   6.958   1.150
26740WAT     H280463   7.039   6.986   1.079
26741WAT      O80464   7.644   1.386   6.658
26741WAT     H180465   7.728   1.415   6.703
26741WAT     H280466   7.662   1.303   6.604
26742WAT      O80467   7.743   6.416   6.024
26742WAT     H180468   7.660   6.359   6.030
26742WAT     H280469   7.820   6.367   6.065
26743WAT      O80470   4.352   4.997   2.089
26743WAT     H180471   4.281   5.067   2.099
26743WAT     H280472   4.417   5.026   2.018
26744WAT      O80473   0.634   8.855   0.133
26744WAT     H180474   0.556   8.795   0.150
26744WAT     H280475   0.710   8.830   0.192
26745WAT      O80476   6.427   1.528   2.264
26745WAT     H180477   6.480   1.551   2.345
26745WAT     H280478   6.485   1.538   2.183
26746WAT      O80479   7.926   8.090   8.646
26746WAT     H180480   7.909   8.188   8.651
26746WAT     H280481   7.841   8.042   8.623
26747WAT      O80482   4.040   0.339   3.623
26747WAT     H180483   3.973   0.362   3.695
26747WAT     H280484   4.122   0.395   3.636
26748WAT      O80485   3.142   3.975   3.432
26748WAT     H180486   3.217   3.998   3.369
26748WAT     H280487   3.080   4.053   3.440
26749WAT      O80488   6.686   4.817   1.405
26749WAT     H180489   6.745   4.858   1.475
26749WAT     H280490   6.595   4.857   1.411
26750WAT      O80491   2.585   4.683   5.341
26750WAT     H180492   2.510   4.670   5.406
26750WAT     H280493   2.558   4.747   5.270
26751WAT      O80494   7.646   2.832   9.557
26751WAT     H180495   7.607   2.803   9.645
26751WAT     H280496   7.575   2.829   9.487
26752WAT      O80497   2.731   0.313   1.934
26752WAT     H180498   2.713   0.407   1.965
26752WAT     H280499   2.741   0.312   1.834
26753WAT      O80500   4.212   8.122   5.366
26753WAT     H180501   4.121   8.120   5.407
26753WAT     H280502   4.277   8.162   5.431
26754WAT      O80503   2.063   0.618   8.955
26754WAT     H180504   1.987   0.558   8.930
26754WAT     H280505   2.031   0.713   8.960
26755WAT      O80506   0.291   9.617   8.712
26755WAT     H180507   0.382   9.581   8.691
26755WAT     H280508   0.278   9.618   8.811
26756WAT      O80509   5.593   8.082   3.804
26756WAT     H180510   5.555   7.990   3.818
26756WAT     H280511   5.693   8.078   3.808
26757WAT      O80512   9.249   4.283   4.275
26757WAT     H180513   9.326   4.260   4.216
26757WAT     H280514   9.165   4.287   4.220
26758WAT      O80515   0.014   5.349   9.348
26758WAT     H180516   0.026   5.385   9.256
26758WAT     H280517  -0.071   5.384   9.387
26759WAT      O80518   6.768   1.681   4.248
26759WAT     H180519   6.778   1.606   4.315
26759WAT     H280520   6.736   1.763   4.295
26760WAT      O80521   0.798   2.321   3.945
26760WAT     H180522   0.703   2.352   3.952
26760WAT     H280523   0.856   2.376   4.004
26761WAT      O80524   9.696   1.335   8.701
26761WAT     H180525   9.642   1.405   8.748
26761WAT     H280526   9.789   1.369   8.686
26762WAT      O80527   9.057   2.062   5.908
26762WAT     H180528   9.091   2.146   5.865
26762WAT     H280529   9.037   2.080   6.004
26763WAT      O80530   5.859   6.179   7.228
26763WAT     H180531   5.957   6.171   7.210
26763WAT     H280532   5.820   6.088   7.242
26764WAT      O80533   7.935   2.663   6.025
26764WAT     H180534   7.878   2.638   6.103
26764WAT     H280535   8.029   2.634   6.042
26765WAT      O80536   5.871   1.808   5.924
26765WAT     H180537   5.779   1.805   5.964
26765WAT     H280538   5.918   1.890   5.956
26766WAT      O80539   1.813   3.054   5.362
26766WAT     H180540   1.777   2.967   5.327
26766WAT     H280541   1.884   3.035   5.430
26767WAT      O80542   8.419   8.412   7.879
26767WAT     H180543   8.426   8.385   7.783
26767WAT     H280544   8.511   8.427   7.916
26768WAT      O80545   2.214   7.406   9.145
26768WAT     H180546   2.245   7.313   9.123
26768WAT     H280547   2.290   7.470   9.134
26769WAT      O80548   9.062   1.864   8.556
26769WAT     H180549   9.047   1.807   8.476
26769WAT     H280550   9.043   1.812   8.639
26770WAT      O80551   1.470   6.593   8.293
26770WAT     H180552   1.379   6.612   8.255
26770WAT     H280553   1.507   6.510   8.251
26771WAT      O80554   4.235   1.529   1.366
26771WAT     H180555   4.266   1.498   1.276
26771WAT     H280556   4.138   1.508   1.377
26772WAT      O80557   9.661   3.995   3.833
26772WAT     H180558   9.644   4.092   3.818
26772WAT     H280559   9.740   3.984   3.893
26773WAT      O80560   2.866   0.046   6.515
26773WAT     H180561   2.898   0.109   6.586
26773WAT     H280562   2.850   0.097   6.430
26774WAT      O80563   6.397   7.807   4.061
26774WAT     H180564   6.478   7.764   4.021
26774WAT     H280565   6.321   7.742   4.060
26775WAT      O80566   1.872   4.758   4.025
26775WAT     H180567   1.804   4.693   3.992
26775WAT     H280568   1.831   4.816   4.096
26776WAT      O80569   5.745   6.906   4.340
26776WAT     H180570   5.788   6.995   4.354
26776WAT     H280571   5.711   6.872   4.428
26777WAT      O80572   9.266   0.406   0.624
26777WAT     H180573   9.264   0.494   0.671
26777WAT     H280574   9.347   0.354   0.653
26778WAT      O80575   5.353   2.202   5.335
26778WAT     H180576   5.285   2.148   5.286
26778WAT     H280577   5.374   2.158   5.422
26779WAT      O80578   6.187   1.199   7.515
26779WAT     H180579   6.256   1.216   7.585
26779WAT     H280580   6.172   1.283   7.462
26780WAT      O80581   1.905   1.737   9.052
26780WAT     H180582   1.831   1.694   9.000
26780WAT     H280583   1.986   1.679   9.048
26781WAT      O80584   9.835   4.256   9.594
26781WAT     H180585   9.916   4.238   9.539
26781WAT     H280586   9.753   4.247   9.538
26782WAT      O80587   9.291   4.821   6.836
26782WAT     H180588   9.265   4.903   6.887
26782WAT     H280589   9.356   4.767   6.890
26783WAT      O80590   0.925   5.284   3.971
26783WAT     H180591   0.946   5.203   4.026
26783WAT     H280592   1.000   5.302   3.907
26784WAT      O80593   5.015   8.808   5.828
26784WAT     H180594   5.056   8.718   5.847
26784WAT     H280595   5.037   8.871   5.903
26785WAT      O80596   8.077   5.192   1.704
26785WAT     H180597   8.002   5.158   1.647
26785WAT     H280598   8.161   5.142   1.682
26786WAT      O80599   9.634   6.434   2.240
26786WAT     H180600   9.660   6.347   2.281
26786WAT     H280601   9.572   6.417   2.163
26787WAT      O80602   0.337   5.604   4.832
26787WAT     H180603   0.394   5.574   4.755
26787WAT     H280604   0.274   5.675   4.801
26788WAT      O80605   3.212   5.264   3.969
26788WAT     H180606   3.153   5.265   3.888
26788WAT     H280607   3.199   5.178   4.018
26789WAT      O80608   3.510   4.725   4.120
26789WAT     H180609   3.518   4.680   4.031
26789WAT     H280610   3.597   4.770   4.143
26790WAT      O80611   1.463   4.586   5.790
26790WAT     H180612   1.500   4.497   5.763
26790WAT     H280613   1.508   4.659   5.739
26791WAT      O80614   1.312   2.786   0.221
26791WAT     H180615   1.226   2.758   0.262
26791WAT     H280616   1.299   2.801   0.123
26792WAT      O80617   7.186   6.777   3.172
26792WAT     H180618   7.163   6.725   3.089
26792WAT     H280619   7.104   6.787   3.229
26793WAT      O80620   5.988   1.790   8.650
26793WAT     H180621   5.979   1.703   8.600
26793WAT     H280622   6.081   1.824   8.641
26794WAT      O80623   1.969   2.583   9.596
26794WAT     H180624   1.889   2.619   9.548
26794WAT     H280625   1.997   2.497   9.554
26795WAT      O80626   6.176   8.376   4.131
26795WAT     H180627   6.090   8.395   4.084
26795WAT     H280628   6.170   8.288   4.178
26796WAT      O80629   9.046   3.205   2.975
26796WAT     H180630   8.954   3.166   2.968
26796WAT     H280631   9.102   3.146   3.033
26797WAT      O80632   4.904   1.156   4.043
26797WAT     H180633   4.826   1.188   3.990
26797WAT     H280634   4.980   1.133   3.982
26798WAT      O80635   3.766   7.496   5.195
26798WAT     H180636   3.816   7.516   5.279
26798WAT     H280637   3.824   7.444   5.132
26799WAT      O80638   6.713   2.566   5.983
26799WAT     H180639   6.802   2.587   6.024
26799WAT     H280640   6.704   2.466   5.974
26800WAT      O80641   9.241   6.312   7.799
26800WAT     H180642   9.334   6.314   7.834
26800WAT     H280643   9.243   6.313   7.699
26801WAT      O80644   9.788   9.700   1.896
26801WAT     H180645   9.705   9.672   1.846
26801WAT     H280646   9.849   9.621   1.904
26802WAT      O80647   1.542   5.686   5.967
26802WAT     H180648   1.472   5.683   6.037
26802WAT     H280649   1.624   5.638   6.000
26803WAT      O80650   9.709   3.058   5.318
26803WAT     H180651   9.659   3.080   5.233
26803WAT     H280652   9.771   3.133   5.340
26804WAT      O80653   1.408   7.163   1.188
26804WAT     H180654   1.448   7.076   1.219
26804WAT     H280655   1.309   7.153   1.182
26805WAT      O80656   5.254   4.969   3.999
26805WAT     H180657   5.199   4.991   3.918
26805WAT     H280658   5.348   5.002   3.986
26806WAT      O80659   7.738   5.177   1.202
26806WAT     H180660   7.812   5.151   1.264
26806WAT     H280661   7.776   5.195   1.111
26807WAT      O80662   8.601   6.435   3.573
26807WAT     H180663   8.653   6.516   3.544
26807WAT     H280664   8.604   6.427   3.672
26808WAT      O80665   7.426   8.381   2.553
26808WAT     H180666   7.371   8.446   2.607
26808WAT     H280667   7.428   8.293   2.600
26809WAT      O80668   2.989   6.589   3.378
26809WAT     H180669   2.892   6.601   3.399
26809WAT     H280670   3.040   6.577   3.463
26810WAT      O80671   0.744   1.100   4.018
26810WAT     H180672   0.727   1.166   3.944
26810WAT     H280673   0.779   1.015   3.979
26811WAT      O80674   5.153   2.894   5.748
26811WAT     H180675   5.077   2.905   5.684
26811WAT     H280676   5.177   2.984   5.786
26812WAT      O80677   1.690   9.276   8.058
26812WAT     H180678   1.591   9.277   8.065
26812WAT     H280679   1.717   9.290   7.963
26813WAT      O80680   1.272   5.079   6.562
26813WAT     H180681   1.211   5.099   6.486
26813WAT     H280682   1.273   5.156   6.626
26814WAT      O80683   5.966   1.723   7.525
26814WAT     H180684   5.907   1.670   7.464
26814WAT     H280685   5.910   1.761   7.599
26815WAT      O80686   2.324   8.651   0.508
26815WAT     H180687   2.250   8.587   0.523
26815WAT     H280688   2.364   8.678   0.595
26816WAT      O80689   9.504   2.033   8.365
26816WAT     H180690   9.602   2.027   8.381
26816WAT     H280691   9.481   2.126   8.336
26817WAT      O80692   5.252   0.910   8.761
26817WAT     H180693   5.246   0.934   8.664
26817WAT     H280694   5.233   0.813   8.773
26818WAT      O80695   0.741   2.717   2.883
26818WAT     H180696   0.680   2.693   2.807
26818WAT     H280697   0.826   2.665   2.874
26819WAT      O80698   7.200   7.837   7.945
26819WAT     H180699   7.296   7.822   7.970
26819WAT     H280700   7.150   7.750   7.952
26820WAT      O80701   0.470   0.284   7.553
26820WAT     H180702   0.377   0.278   7.518
26820WAT     H280703   0.533   0.298   7.476
26821WAT      O80704   7.206   8.148   0.205
26821WAT     H180705   7.300   8.149   0.239
26821WAT     H280706   7.202   8.096   0.120
26822WAT      O80707   6.360   7.807   1.384
26822WAT     H180708   6.434   7.810   1.452
26822WAT     H280709   6.395   7.836   1.295
26823WAT      O80710   1.398   0.476   5.041
26823WAT     H180711   1.394   0.530   4.957
26823WAT     H280712   1.305   0.457   5.074
26824WAT      O80713   8.065   1.420   0.313
26824WAT     H180714   8.015   1.347   0.267
26824WAT     H280715   8.024   1.437   0.402
26825WAT      O80716   7.886   5.053   3.372
26825WAT     H180717   7.823   4.984   3.337
26825WAT     H280718   7.842   5.143   3.369
26826WAT      O80719   6.307   6.068   7.434
26826WAT     H180720   6.376   6.022   7.378
26826WAT     H280721   6.335   6.064   7.530
26827WAT      O80722   3.121   0.600   8.327
26827WAT     H180723   3.030   0.618   8.363
26827WAT     H280724   3.172   0.686   8.321
26828WAT      O80725   0.844   4.596   1.502
26828WAT     H180726   0.780   4.614   1.576
26828WAT     H280727   0.851   4.676   1.443
26829WAT      O80728   1.594   7.762   8.047
26829WAT     H180729   1.652   7.832   8.088
26829WAT     H280730   1.512   7.805   8.009
26830WAT      O80731   7.923   0.530   1.560
26830WAT     H180732   7.982   0.467   1.611
26830WAT     H280733   7.877   0.591   1.624
26831WAT      O80734   2.722   5.039   4.215
26831WAT     H180735   2.819   5.056   4.198
26831WAT     H280736   2.707   4.942   4.231
26832WAT      O80737   7.365   2.787   4.023
26832WAT     H180738   7.312   2.871   4.016
26832WAT     H280739   7.430   2.781   3.948
26833WAT      O80740   7.687   2.761   7.582
26833WAT     H180741   7.685   2.698   7.505
26833WAT     H280742   7.611   2.740   7.644
26834WAT      O80743   2.756   3.817   2.329
26834WAT     H180744   2.685   3.885   2.349
26834WAT     H280745   2.713   3.730   2.305
26835WAT      O80746   1.280   7.319   8.740
26835WAT     H180747   1.293   7.402   8.686
26835WAT     H280748   1.348   7.316   8.813
26836WAT      O80749   0.636   7.398   8.743
26836WAT     H180750   0.614   7.451   8.825
26836WAT     H280751   0.577   7.318   8.738
26837WAT      O80752   3.958   0.243   6.614
26837WAT     H180753   3.975   0.294   6.530
26837WAT     H280754   3.946   0.146   6.593
26838WAT      O80755   4.691   4.442   4.220
26838WAT     H180756   4.764   4.510   4.213
26838WAT     H280757   4.603   4.489   4.234
26839WAT      O80758   3.954   1.848   6.157
26839WAT     H180759   3.921   1.758   6.128
26839WAT     H280760   4.022   1.837   6.229
26840WAT      O80761   3.260   8.102   8.638
26840WAT     H180762   3.161   8.088   8.641
26840WAT     H280763   3.284   8.157   8.558
26841WAT      O80764   2.769   0.801   8.572
26841WAT     H180765   2.678   0.764   8.588
26841WAT     H280766   2.827   0.731   8.530
26842WAT      O80767   4.462   8.454   6.231
26842WAT     H180768   4.541   8.420   6.180
26842WAT     H280769   4.393   8.487   6.167
26843WAT      O80770   2.793   2.183   9.271
26843WAT     H180771   2.827   2.101   9.316
26843WAT     H280772   2.752   2.159   9.183
26844WAT      O80773   0.827   9.717   4.326
26844WAT     H180774   0.793   9.726   4.420
26844WAT     H280775   0.918   9.758   4.320
26845WAT      O80776   3.682   7.252   5.690
26845WAT     H180777   3.693   7.350   5.673
26845WAT     H280778   3.602   7.218   5.639
26846WAT      O80779   9.307   5.225   4.314
26846WAT     H180780   9.385   5.286   4.304
26846WAT     H280781   9.304   5.161   4.237
26847WAT      O80782   4.636   3.549   9.497
26847WAT     H180783   4.687   3.540   9.582
26847WAT     H280784   4.643   3.465   9.444
26848WAT      O80785   8.702   1.697   4.619
26848WAT     H180786   8.629   1.634   4.593
26848WAT     H280787   8.663   1.787   4.640
26849WAT      O80788   9.051   2.130   5.534
26849WAT     H180789   9.081   2.182   5.614
26849WAT     H280790   9.126   2.073   5.502
26850WAT      O80791   1.603   9.196   2.778
26850WAT     H180792   1.633   9.217   2.685
26850WAT     H280793   1.545   9.114   2.776
26851WAT      O80794   1.998   2.451   6.893
26851WAT     H180795   2.029   2.421   6.802
26851WAT     H280796   2.054   2.528   6.923
26852WAT      O80797   5.118   1.986   2.875
26852WAT     H180798   5.203   2.019   2.834
26852WAT     H280799   5.123   1.997   2.974
26853WAT      O80800   2.231   8.330   6.108
26853WAT     H180801   2.223   8.279   6.194
26853WAT     H280802   2.278   8.417   6.125
26854WAT      O80803   4.310   3.469   8.705
26854WAT     H180804   4.316   3.531   8.783
26854WAT     H280805   4.353   3.511   8.625
26855WAT      O80806   7.987   7.963   5.115
26855WAT     H180807   7.976   7.989   5.020
26855WAT     H280808   8.069   8.007   5.152
26856WAT      O80809   6.358   3.808   1.475
26856WAT     H180810   6.453   3.816   1.503
26856WAT     H280811   6.299   3.844   1.547
26857WAT      O80812   0.178   3.211   2.690
26857WAT     H180813   0.100   3.157   2.657
26857WAT     H280814   0.195   3.191   2.786
26858WAT      O80815   4.434   8.716   3.740
26858WAT     H180816   4.477   8.699   3.829
26858WAT     H280817   4.386   8.803   3.742
26859WAT      O80818   5.306   4.247   1.620
26859WAT     H180819   5.391   4.267   1.669
26859WAT     H280820   5.272   4.157   1.646
26860WAT      O80821   0.265   9.170   8.252
26860WAT     H180822   0.338   9.105   8.271
26860WAT     H280823   0.177   9.124   8.262
26861WAT      O80824   6.924   5.113   3.502
26861WAT     H180825   6.931   5.032   3.444
26861WAT     H280826   6.850   5.171   3.469
26862WAT      O80827   3.616   4.527   9.276
26862WAT     H180828   3.662   4.615   9.277
26862WAT     H280829   3.680   4.455   9.300
26863WAT      O80830   0.982   8.213   3.516
26863WAT     H180831   1.015   8.177   3.603
26863WAT     H280832   1.029   8.298   3.495
26864WAT      O80833   0.815   1.302   3.777
26864WAT     H180834   0.887   1.360   3.816
26864WAT     H280835   0.769   1.351   3.703
26865WAT      O80836   2.783   2.010   1.768
26865WAT     H180837   2.730   1.926   1.754
26865WAT     H280838   2.825   2.037   1.681
26866WAT      O80839   9.828   0.764   5.736
26866WAT     H180840   9.909   0.710   5.713
26866WAT     H280841   9.824   0.777   5.835
26867WAT      O80842   4.975   8.423   6.881
26867WAT     H180843   5.072   8.400   6.868
26867WAT     H280844   4.951   8.414   6.977
26868WAT      O80845   4.397   6.514   0.429
26868WAT     H180846   4.489   6.488   0.456
26868WAT     H280847   4.373   6.601   0.472
26869WAT      O80848   6.825   2.505   8.912
26869WAT     H180849   6.802   2.445   8.988
26869WAT     H280850   6.905   2.560   8.936
26870WAT      O80851   4.233   9.586   1.294
26870WAT     H180852   4.214   9.561   1.389
26870WAT     H280853   4.316   9.540   1.263
26871WAT      O80854   4.391   6.692   1.873
26871WAT     H180855   4.376   6.593   1.877
26871WAT     H280856   4.396   6.721   1.777
26872WAT      O80857   2.532   3.611   1.048
26872WAT     H180858   2.535   3.527   0.995
26872WAT     H280859   2.561   3.592   1.142
26873WAT      O80860   9.642   5.997   1.720
26873WAT     H180861   9.571   6.010   1.651
26873WAT     H280862   9.615   6.043   1.805
26874WAT      O80863   2.846   4.118   7.458
26874WAT     H180864   2.937   4.148   7.488
26874WAT     H280865   2.787   4.104   7.537
26875WAT      O80866   1.749   7.942   8.172
26875WAT     H180867   1.680   8.004   8.210
26875WAT     H280868   1.821   7.926   8.240
26876WAT      O80869   5.851   5.522   0.685
26876WAT     H180870   5.821   5.485   0.773
26876WAT     H280871   5.782   5.586   0.651
26877WAT      O80872   8.768   0.030   7.561
26877WAT     H180873   8.718   0.105   7.516
26877WAT     H280874   8.826  -0.016   7.493
26878WAT      O80875   1.179   1.766   3.800
26878WAT     H180876   1.264   1.759   3.852
26878WAT     H280877   1.186   1.710   3.717
26879WAT      O80878   1.375   1.064   2.649
26879WAT     H180879   1.350   0.968   2.665
26879WAT     H280880   1.293   1.121   2.654
26880WAT      O80881   1.790   2.029   2.057
26880WAT     H180882   1.708   1.971   2.054
26880WAT     H280883   1.851   1.997   2.129
26881WAT      O80884   4.865   0.017   3.163
26881WAT     H180885   4.937   0.007   3.095
26881WAT     H280886   4.827  -0.073   3.185
26882WAT      O80887   3.941   1.513   8.464
26882WAT     H180888   4.010   1.536   8.532
26882WAT     H280889   3.921   1.592   8.407
26883WAT      O80890   0.281   0.803   4.536
26883WAT     H180891   0.281   0.828   4.633
26883WAT     H280892   0.314   0.879   4.481
26884WAT      O80893   7.763   7.309   5.407
26884WAT     H180894   7.708   7.273   5.483
26884WAT     H280895   7.703   7.329   5.330
26885WAT      O80896   3.562   2.417   3.112
26885WAT     H180897   3.501   2.347   3.073
26885WAT     H280898   3.648   2.418   3.061
26886WAT      O80899   9.798   5.188   2.802
26886WAT     H180900   9.785   5.104   2.854
26886WAT     H280901   9.726   5.194   2.732
26887WAT      O80902   0.084   1.641   4.223
26887WAT     H180903   0.068   1.579   4.147
26887WAT     H280904  -0.004   1.667   4.264
26888WAT      O80905   7.144   5.880   1.099
26888WAT     H180906   7.213   5.911   1.034
26888WAT     H280907   7.186   5.818   1.165
26889WAT      O80908   5.702   8.446   0.174
26889WAT     H180909   5.682   8.451   0.076
26889WAT     H280910   5.745   8.358   0.194
26890WAT      O80911   8.130   7.363   4.324
26890WAT     H180912   8.185   7.369   4.240
26890WAT     H280913   8.191   7.360   4.403
26891WAT      O80914   9.701   4.422   3.434
26891WAT     H180915   9.609   4.407   3.468
26891WAT     H280916   9.760   4.346   3.459
26892WAT      O80917   8.938   5.941   3.021
26892WAT     H180918   8.942   5.891   3.107
26892WAT     H280919   9.003   5.901   2.956
26893WAT      O80920   5.223   0.574   0.268
26893WAT     H180921   5.170   0.641   0.215
26893WAT     H280922   5.178   0.485   0.264
26894WAT      O80923   5.833   0.019   0.166
26894WAT     H180924   5.857   0.104   0.213
26894WAT     H280925   5.916  -0.019   0.124
26895WAT      O80926   8.736   8.660   3.441
26895WAT     H180927   8.818   8.681   3.494
26895WAT     H280928   8.689   8.581   3.482
26896WAT      O80929   9.464   8.961   2.133
26896WAT     H180930   9.377   8.912   2.121
26896WAT     H280931   9.513   8.923   2.212
26897WAT      O80932   5.976   8.570   0.701
26897WAT     H180933   5.942   8.659   0.734
26897WAT     H280934   6.031   8.585   0.619
26898WAT      O80935   0.369   5.529   1.337
26898WAT     H180936   0.398   5.480   1.255
26898WAT     H280937   0.320   5.466   1.398
26899WAT      O80938   5.990   1.537   4.736
26899WAT     H180939   6.050   1.467   4.698
26899WAT     H280940   5.912   1.493   4.781
26900WAT      O80941   9.553   9.585   1.710
26900WAT     H180942   9.513   9.581   1.619
26900WAT     H280943   9.575   9.493   1.742
26901WAT      O80944   0.877   9.587   2.016
26901WAT     H180945   0.790   9.538   2.022
26901WAT     H280946   0.951   9.529   2.051
26902WAT      O80947   1.564   9.298   0.995
26902WAT     H180948   1.611   9.273   1.079
26902WAT     H280949   1.628   9.299   0.919
26903WAT      O80950   2.568   1.957   8.643
26903WAT     H180951   2.504   1.881   8.630
26903WAT     H280952   2.636   1.931   8.712
26904WAT      O80953   7.797   3.254   4.682
26904WAT     H180954   7.849   3.195   4.743
26904WAT     H280955   7.859   3.320   4.638
26905WAT      O80956   2.503   4.876   5.002
26905WAT     H180957   2.502   4.915   5.094
26905WAT     H280958   2.466   4.942   4.937
26906WAT      O80959   1.600   9.313   6.233
26906WAT     H180960   1.513   9.356   6.256
26906WAT     H280961   1.644   9.365   6.160
26907WAT      O80962   8.576   8.188   5.606
26907WAT     H180963   8.510   8.261   5.586
26907WAT     H280964   8.527   8.104   5.626
26908WAT      O80965   1.871   8.060   1.988
26908WAT     H180966   1.857   7.974   1.941
26908WAT     H280967   1.968   8.085   1.985
26909WAT      O80968   6.594   5.198   8.199
26909WAT     H180969   6.583   5.151   8.286
26909WAT     H280970   6.604   5.296   8.216
26910WAT      O80971   1.319   0.198   0.656
26910WAT     H180972   1.343   0.101   0.653
26910WAT     H280973   1.401   0.253   0.643
26911WAT      O80974   4.151   7.695   2.570
26911WAT     H180975   4.085   7.725   2.639
26911WAT     H280976   4.108   7.697   2.480
26912WAT      O80977   1.718   5.340   6.219
26912WAT     H180978   1.796   5.286   6.188
26912WAT     H280979   1.737   5.379   6.309
26913WAT      O80980   1.553   9.708   0.900
26913WAT     H180981   1.491   9.646   0.949
26913WAT     H280982   1.624   9.655   0.855
26914WAT      O80983   6.054   2.657   1.233
26914WAT     H180984   6.097   2.741   1.266
26914WAT     H280985   6.125   2.591   1.206
26915WAT      O80986   8.030   5.504   3.837
26915WAT     H180987   8.104   5.479   3.774
26915WAT     H280988   7.947   5.522   3.786
26916WAT      O80989   5.094   6.107   1.418
26916WAT     H180990   5.104   6.186   1.479
26916WAT     H280991   5.118   6.135   1.325
26917WAT      O80992   2.337   1.720   7.095
26917WAT     H180993   2.427   1.684   7.073
26917WAT     H280994   2.268   1.676   7.037
26918WAT      O80995   0.293   5.618   9.458
26918WAT     H180996   0.368   5.665   9.504
26918WAT     H280997   0.325   5.578   9.372
26919WAT      O80998   7.473   8.515   2.175
26919WAT     H180999   7.516   8.425   2.183
26919WAT     H281000   7.532   8.584   2.217
26920WAT      O81001   5.464   8.392   3.881
26920WAT     H181002   5.406   8.459   3.836
26920WAT     H281003   5.558   8.401   3.848
26921WAT      O81004   0.891   7.756   7.254
26921WAT     H181005   0.902   7.703   7.170
26921WAT     H281006   0.945   7.840   7.247
26922WAT      O81007   4.351   5.301   6.350
26922WAT     H181008   4.272   5.255   6.390
26922WAT     H281009   4.434   5.251   6.374
26923WAT      O81010   0.097   9.521   2.881
26923WAT     H181011   0.092   9.476   2.792
26923WAT     H281012   0.178   9.580   2.885
26924WAT      O81013   0.611   7.326   3.015
26924WAT     H181014   0.527   7.292   3.059
26924WAT     H281015   0.652   7.252   2.962
26925WAT      O81016   0.112   3.006   6.710
26925WAT     H181017   0.130   2.911   6.687
26925WAT     H281018   0.105   3.060   6.627
26926WAT      O81019   2.696   2.835   1.212
26926WAT     H181020   2.761   2.784   1.269
26926WAT     H281021   2.742   2.866   1.129
26927WAT      O81022   1.407   2.532   5.235
26927WAT     H181023   1.376   2.527   5.141
26927WAT     H281024   1.399   2.443   5.278
26928WAT      O81025   1.392   8.691   4.037
26928WAT     H181026   1.477   8.691   4.089
26928WAT     H281027   1.404   8.637   3.953
26929WAT      O81028   6.828   6.022   4.398
26929WAT     H181029   6.843   5.939   4.344
26929WAT     H281030   6.749   6.009   4.458
26930WAT      O81031   9.156   6.308   4.842
26930WAT     H181032   9.247   6.267   4.851
26930WAT     H281033   9.107   6.296   4.928
26931WAT      O81034   3.976   2.018   6.966
26931WAT     H181035   3.965   2.076   6.885
26931WAT     H281036   3.945   1.925   6.946
26932WAT      O81037   5.833   8.605   2.234
26932WAT     H181038   5.795   8.517   2.262
26932WAT     H281039   5.760   8.674   2.233
26933WAT      O81040   4.608   0.728   8.271
26933WAT     H181041   4.519   0.723   8.224
26933WAT     H281042   4.655   0.811   8.244
26934WAT      O81043   0.674   2.327   1.605
26934WAT     H181044   0.709   2.365   1.519
26934WAT     H281045   0.666   2.400   1.673
26935WAT      O81046   2.850   8.073   9.359
26935WAT     H181047   2.827   8.094   9.264
26935WAT     H281048   2.905   8.148   9.397
26936WAT      O81049   4.194   1.471   9.599
26936WAT     H181050   4.278   1.483   9.653
26936WAT     H281051   4.203   1.388   9.543
26937WAT      O81052   6.863   8.432   2.647
26937WAT     H181053   6.905   8.374   2.577
26937WAT     H281054   6.889   8.527   2.632
26938WAT      O81055   1.738   6.242   6.435
26938WAT     H181056   1.672   6.169   6.419
26938WAT     H281057   1.743   6.262   6.533
26939WAT      O81058   9.289   5.101   0.706
26939WAT     H181059   9.254   5.034   0.771
26939WAT     H281060   9.273   5.068   0.613
26940WAT      O81061   0.400   1.410   1.187
26940WAT     H181062   0.396   1.473   1.110
26940WAT     H281063   0.494   1.378   1.200
26941WAT      O81064   3.455   7.261   3.499
26941WAT     H181065   3.405   7.272   3.585
26941WAT     H281066   3.549   7.235   3.518
26942WAT      O81067   6.135   6.708   7.383
26942WAT     H181068   6.135   6.609   7.395
26942WAT     H281069   6.215   6.735   7.329
26943WAT      O81070   7.797   6.221   9.424
26943WAT     H181071   7.828   6.191   9.334
26943WAT     H281072   7.873   6.217   9.489
26944WAT      O81073   3.617   5.031   9.525
26944WAT     H181074   3.551   5.031   9.450
26944WAT     H281075   3.603   5.112   9.582
26945WAT      O81076   7.096   3.647   6.903
26945WAT     H181077   7.021   3.683   6.848
26945WAT     H281078   7.151   3.584   6.848
26946WAT      O81079   4.950   7.841   5.121
26946WAT     H181080   4.877   7.813   5.059
26946WAT     H281081   5.032   7.862   5.067
26947WAT      O81082   2.720   7.552   5.593
26947WAT     H181083   2.660   7.516   5.521
26947WAT     H281084   2.784   7.480   5.622
26948WAT      O81085   8.473   5.486   2.856
26948WAT     H181086   8.445   5.459   2.764
26948WAT     H281087   8.443   5.417   2.921
26949WAT      O81088   5.767   6.331   7.028
26949WAT     H181089   5.806   6.267   7.095
26949WAT     H281090   5.822   6.331   6.945
26950WAT      O81091   0.943   8.215   7.037
26950WAT     H181092   0.854   8.248   7.004
26950WAT     H281093   0.995   8.179   6.960
26951WAT      O81094   9.490   4.902   0.104
26951WAT     H181095   9.480   4.859   0.014
26951WAT     H281096   9.502   5.001   0.092
26952WAT      O81097   9.221   1.874   9.423
26952WAT     H181098   9.215   1.934   9.343
26952WAT     H281099   9.132   1.833   9.441
26953WAT      O81100   6.128   6.793   0.541
26953WAT     H181101   6.124   6.727   0.616
26953WAT     H281102   6.117   6.745   0.454
26954WAT      O81103   5.338   5.854   6.744
26954WAT     H181104   5.256   5.800   6.729
26954WAT     H281105   5.313   5.948   6.768
26955WAT      O81106   5.117   9.140   3.843
26955WAT     H181107   5.165   9.078   3.906
26955WAT     H281108   5.024   9.156   3.877
26956WAT      O81109   9.018   0.424   0.985
26956WAT     H181110   9.096   0.367   0.959
26956WAT     H281111   8.995   0.407   1.081
26957WAT      O81112   3.163   1.818   1.927
26957WAT     H181113   3.201   1.731   1.960
26957WAT     H281114   3.229   1.861   1.866
26958WAT      O81115   2.237   1.923   7.247
26958WAT     H181116   2.312   1.978   7.284
26958WAT     H281117   2.274   1.846   7.197
26959WAT      O81118   5.801   1.761   5.659
26959WAT     H181119   5.819   1.747   5.756
26959WAT     H281120   5.779   1.673   5.616
26960WAT      O81121   0.747   2.690   7.926
26960WAT     H181122   0.819   2.673   7.859
26960WAT     H281123   0.669   2.732   7.882
26961WAT      O81124   7.403   2.974   9.765
26961WAT     H181125   7.455   2.889   9.756
26961WAT     H281126   7.435   3.024   9.845
26962WAT      O81127   4.329   4.755   6.857
26962WAT     H181128   4.417   4.764   6.810
26962WAT     H281129   4.299   4.845   6.888
26963WAT      O81130   7.391   3.259   4.519
26963WAT     H181131   7.454   3.320   4.569
26963WAT     H281132   7.324   3.222   4.583
26964WAT      O81133   6.278   3.346   7.258
26964WAT     H181134   6.355   3.356   7.195
26964WAT     H281135   6.241   3.436   7.279
26965WAT      O81136   6.247   3.900   6.521
26965WAT     H181137   6.274   3.919   6.427
26965WAT     H281138   6.175   3.964   6.549
26966WAT      O81139   2.160   2.884   1.600
26966WAT     H181140   2.095   2.808   1.589
26966WAT     H281141   2.121   2.967   1.561
26967WAT      O81142   6.905   3.043   8.842
26967WAT     H181143   6.939   3.102   8.769
26967WAT     H281144   6.965   2.964   8.852
26968WAT      O81145   9.076   2.576   9.336
26968WAT     H181146   9.002   2.519   9.301
26968WAT     H281147   9.041   2.669   9.352
26969WAT      O81148   5.283   4.720   2.249
26969WAT     H181149   5.302   4.645   2.313
26969WAT     H281150   5.187   4.748   2.258
26970WAT      O81151   7.236   7.725   1.311
26970WAT     H181152   7.312   7.671   1.274
26970WAT     H281153   7.166   7.663   1.348
26971WAT      O81154   3.278   1.286   7.547
26971WAT     H181155   3.201   1.299   7.610
26971WAT     H281156   3.298   1.189   7.537
26972WAT      O81157   6.891   4.059   7.809
26972WAT     H181158   6.939   4.127   7.753
26972WAT     H281159   6.823   4.012   7.753
26973WAT      O81160   9.867   5.252   2.124
26973WAT     H181161   9.814   5.189   2.179
26973WAT     H281162   9.808   5.323   2.087
26974WAT      O81163   9.110   7.915   8.425
26974WAT     H181164   9.155   7.971   8.494
26974WAT     H281165   9.047   7.971   8.371
26975WAT      O81166   2.535   8.049   6.904
26975WAT     H181167   2.630   8.036   6.875
26975WAT     H281168   2.503   8.138   6.873
26976WAT      O81169   4.166   9.612   4.340
26976WAT     H181170   4.254   9.586   4.301
26976WAT     H281171   4.173   9.611   4.440
26977WAT      O81172   8.734   7.814   2.991
26977WAT     H181173   8.742   7.908   2.958
26977WAT     H281174   8.804   7.796   3.060
26978WAT      O81175   8.151   5.085   2.204
26978WAT     H181176   8.245   5.081   2.238
26978WAT     H281177   8.147   5.145   2.125
26979WAT      O81178   8.496   4.160   1.163
26979WAT     H181179   8.403   4.133   1.190
26979WAT     H281180   8.518   4.248   1.205
26980WAT      O81181   8.350   8.240   2.268
26980WAT     H181182   8.283   8.172   2.239
26980WAT     H281183   8.334   8.326   2.221
26981WAT      O81184   9.713   6.581   2.836
26981WAT     H181185   9.717   6.548   2.931
26981WAT     H281186   9.650   6.659   2.831
26982WAT      O81187   7.507   8.572   9.804
26982WAT     H181188   7.525   8.504   9.875
26982WAT     H281189   7.409   8.574   9.783
26983WAT      O81190   8.640   0.376   4.974
26983WAT     H181191   8.576   0.299   4.982
26983WAT     H281192   8.622   0.424   4.888
26984WAT      O81193   8.557   0.917   2.522
26984WAT     H181194   8.568   0.932   2.620
26984WAT     H281195   8.575   1.002   2.473
26985WAT      O81196   1.682   7.817   0.071
26985WAT     H181197   1.703   7.720   0.071
26985WAT     H281198   1.760   7.869   0.037
26986WAT      O81199   5.199   2.118   7.918
26986WAT     H181200   5.199   2.216   7.903
26986WAT     H281201   5.229   2.070   7.836
26987WAT      O81202   2.033   6.577   4.384
26987WAT     H181203   2.046   6.489   4.428
26987WAT     H281204   2.114   6.634   4.399
26988WAT      O81205   7.677   9.389   1.006
26988WAT     H181206   7.638   9.480   0.989
26988WAT     H281207   7.624   9.343   1.077
26989WAT      O81208   0.271   6.231   9.119
26989WAT     H181209   0.284   6.138   9.154
26989WAT     H281210   0.359   6.279   9.117
26990WAT      O81211   3.311   1.251   8.454
26990WAT     H181212   3.363   1.171   8.422
26990WAT     H281213   3.368   1.305   8.516
26991WAT      O81214   7.969   2.182   3.351
26991WAT     H181215   8.044   2.229   3.304
26991WAT     H281216   7.970   2.085   3.328
26992WAT      O81217   8.379   5.380   7.689
26992WAT     H181218   8.471   5.358   7.659
26992WAT     H281219   8.342   5.303   7.742
26993WAT      O81220   7.055   2.038   4.704
26993WAT     H181221   7.139   2.081   4.736
26993WAT     H281222   6.997   2.106   4.659
26994WAT      O81223   7.962   7.713   1.467
26994WAT     H181224   7.862   7.725   1.469
26994WAT     H281225   7.997   7.718   1.561
26995WAT      O81226   6.116   1.042   3.775
26995WAT     H181227   6.202   1.015   3.730
26995WAT     H281228   6.135   1.117   3.839
26996WAT      O81229   7.694   5.997   5.523
26996WAT     H181230   7.757   5.978   5.447
26996WAT     H281231   7.624   5.926   5.528
26997WAT      O81232   7.402   0.122   4.200
26997WAT     H181233   7.327   0.176   4.239
26997WAT     H281234   7.374   0.085   4.112
26998WAT      O81235   7.558   8.134   9.093
26998WAT     H181236   7.634   8.080   9.056
26998WAT     H281237   7.492   8.151   9.020
26999WAT      O81238   1.938   7.232   9.043
26999WAT     H181239   2.028   7.267   9.068
26999WAT     H281240   1.949   7.158   8.976
27000WAT      O81241   6.890   5.662   3.623
27000WAT     H181242   6.850   5.575   3.655
27000WAT     H281243   6.987   5.664   3.644
27001WAT      O81244   3.854   0.348   4.878
27001WAT     H181245   3.868   0.357   4.780
27001WAT     H281246   3.928   0.395   4.927
27002WAT      O81247   7.212   7.118   3.042
27002WAT     H181248   7.224   7.211   3.008
27002WAT     H281249   7.130   7.114   3.100
27003WAT      O81250   6.144   1.594   3.303
27003WAT     H181251   6.057   1.640   3.291
27003WAT     H281252   6.195   1.597   3.217
27004WAT      O81253   2.193   8.062   1.349
27004WAT     H181254   2.236   8.040   1.261
27004WAT     H281255   2.157   7.978   1.390
27005WAT      O81256   8.919   0.387   2.734
27005WAT     H181257   9.011   0.410   2.702
27005WAT     H281258   8.910   0.413   2.830
27006WAT      O81259   1.841   0.528   7.371
27006WAT     H181260   1.933   0.488   7.371
27006WAT     H281261   1.833   0.594   7.296
27007WAT      O81262   8.261   6.885   6.512
27007WAT     H181263   8.352   6.865   6.477
27007WAT     H281264   8.221   6.802   6.551
27008WAT      O81265   5.722   9.053   0.570
27008WAT     H181266   5.805   9.015   0.529
27008WAT     H281267   5.732   9.152   0.578
27009WAT      O81268   7.183   0.143   9.866
27009WAT     H181269   7.159   0.194   9.783
27009WAT     H281270   7.175   0.203   9.945
27010WAT      O81271   2.732   6.411   2.196
27010WAT     H181272   2.747   6.504   2.229
27010WAT     H281273   2.655   6.370   2.245
27011WAT      O81274   4.801   6.097   7.067
27011WAT     H181275   4.897   6.068   7.077
27011WAT     H281276   4.784   6.176   7.126
27012WAT      O81277   1.955   5.062   3.485
27012WAT     H181278   2.036   5.043   3.541
27012WAT     H281279   1.984   5.102   3.398
27013WAT      O81280   7.602   6.846   8.995
27013WAT     H181281   7.557   6.777   9.051
27013WAT     H281282   7.695   6.862   9.029
27014WAT      O81283   0.318   0.129   1.349
27014WAT     H181284   0.356   0.145   1.258
27014WAT     H281285   0.352   0.199   1.411
27015WAT      O81286   8.355   9.082   4.143
27015WAT     H181287   8.364   8.985   4.167
27015WAT     H281288   8.389   9.138   4.219
27016WAT      O81289   8.640   3.339   2.071
27016WAT     H181290   8.652   3.292   1.984
27016WAT     H281291   8.693   3.424   2.070
27017WAT      O81292   3.693   5.329   9.286
27017WAT     H181293   3.599   5.362   9.295
27017WAT     H281294   3.699   5.265   9.209
27018WAT      O81295   2.094   6.140   8.324
27018WAT     H181296   2.081   6.237   8.340
27018WAT     H281297   2.191   6.118   8.325
27019WAT      O81298   5.814   6.364   7.963
27019WAT     H181299   5.897   6.332   7.917
27019WAT     H281300   5.736   6.355   7.901
27020WAT      O81301   1.618   2.996   9.167
27020WAT     H181302   1.649   2.905   9.195
27020WAT     H281303   1.696   3.051   9.137
27021WAT      O81304   9.715   1.575   3.793
27021WAT     H181305   9.714   1.674   3.776
27021WAT     H281306   9.723   1.527   3.705
27022WAT      O81307   7.409   0.580   3.404
27022WAT     H181308   7.490   0.551   3.455
27022WAT     H281309   7.328   0.535   3.443
27023WAT      O81310   7.187   4.672   0.038
27023WAT     H181311   7.130   4.713  -0.033
27023WAT     H281312   7.191   4.732   0.117
27024WAT      O81313   0.553   5.086   7.640
27024WAT     H181314   0.595   4.995   7.630
27024WAT     H281315   0.486   5.099   7.567
27025WAT      O81316   3.619   7.254   0.060
27025WAT     H181317   3.697   7.198   0.031
27025WAT     H281318   3.570   7.208   0.133
27026WAT      O81319   6.352   6.514   1.817
27026WAT     H181320   6.442   6.549   1.843
27026WAT     H281321   6.350   6.499   1.718
27027WAT      O81322   8.852   1.501   4.006
27027WAT     H181323   8.780   1.551   3.958
27027WAT     H281324   8.940   1.520   3.964
27028WAT      O81325   1.506   7.009   2.514
27028WAT     H181326   1.493   7.050   2.604
27028WAT     H281327   1.567   7.066   2.459
27029WAT      O81328   2.033   6.113   1.003
27029WAT     H181329   2.014   6.057   1.084
27029WAT     H281330   2.088   6.192   1.028
27030WAT      O81331   2.694   3.874   7.630
27030WAT     H181332   2.655   3.966   7.631
27030WAT     H281333   2.643   3.815   7.692
27031WAT      O81334   0.101   5.985   8.208
27031WAT     H181335   0.172   6.054   8.200
27031WAT     H281336   0.047   6.003   8.291
27032WAT      O81337   4.489   8.720   8.083
27032WAT     H181338   4.411   8.782   8.079
27032WAT     H281339   4.483   8.654   8.008
27033WAT      O81340   7.470   1.569   0.811
27033WAT     H181341   7.503   1.597   0.721
27033WAT     H281342   7.513   1.625   0.882
27034WAT      O81343   7.603   4.407   4.900
27034WAT     H181344   7.611   4.352   4.817
27034WAT     H281345   7.609   4.504   4.877
27035WAT      O81346   4.752   8.938   9.044
27035WAT     H181347   4.784   8.874   9.114
27035WAT     H281348   4.662   8.973   9.070
27036WAT      O81349   0.047   6.269   8.041
27036WAT     H181350   0.132   6.306   8.078
27036WAT     H281351  -0.017   6.253   8.116
27037WAT      O81352   9.036   6.964   6.777
27037WAT     H181353   9.012   6.987   6.683
27037WAT     H281354   9.029   7.046   6.835
27038WAT      O81355   2.965   0.340   1.052
27038WAT     H181356   2.927   0.396   1.126
27038WAT     H281357   2.966   0.395   0.968
27039WAT      O81358   9.582   0.060   4.083
27039WAT     H181359   9.561  -0.004   4.156
27039WAT     H281360   9.681   0.063   4.068
27040WAT      O81361   0.405   7.477   2.865
27040WAT     H181362   0.442   7.564   2.834
27040WAT     H281363   0.477   7.427   2.914
27041WAT      O81364   9.629   7.733   2.364
27041WAT     H181365   9.614   7.825   2.327
27041WAT     H281366   9.709   7.734   2.423
27042WAT      O81367   5.219   0.581   4.846
27042WAT     H181368   5.263   0.491   4.840
27042WAT     H281369   5.163   0.586   4.929
27043WAT      O81370   0.946   3.224   3.587
27043WAT     H181371   0.899   3.241   3.500
27043WAT     H281372   0.880   3.189   3.654
27044WAT      O81373   6.854   0.498   6.343
27044WAT     H181374   6.821   0.498   6.248
27044WAT     H281375   6.809   0.571   6.394
27045WAT      O81376   7.226   9.534   3.731
27045WAT     H181377   7.322   9.525   3.759
27045WAT     H281378   7.217   9.616   3.674
27046WAT      O81379   6.610   1.922   4.301
27046WAT     H181380   6.563   1.983   4.238
27046WAT     H281381   6.689   1.969   4.341
27047WAT      O81382   8.314   0.039   9.657
27047WAT     H181383   8.351   0.004   9.743
27047WAT     H281384   8.385   0.090   9.609
27048WAT      O81385   8.510   8.385   0.016
27048WAT     H181386   8.598   8.428   0.033
27048WAT     H281387   8.459   8.377   0.102
27049WAT      O81388   0.787   4.407   2.110
27049WAT     H181389   0.852   4.435   2.040
27049WAT     H281390   0.742   4.487   2.149
27050WAT      O81391   5.272   2.164   4.737
27050WAT     H181392   5.256   2.245   4.794
27050WAT     H281393   5.281   2.084   4.796
27051WAT      O81394   0.062   4.165   1.820
27051WAT     H181395   0.001   4.147   1.743
27051WAT     H281396   0.151   4.124   1.803
27052WAT      O81397   1.310   5.967   6.375
27052WAT     H181398   1.270   5.949   6.285
27052WAT     H281399   1.267   5.909   6.443
27053WAT      O81400   6.995   3.541   3.800
27053WAT     H181401   7.006   3.513   3.704
27053WAT     H281402   6.994   3.460   3.859
27054WAT      O81403   4.823   2.280   7.224
27054WAT     H181404   4.747   2.288   7.160
27054WAT     H281405   4.817   2.193   7.273
27055WAT      O81406   0.554   9.082   9.369
27055WAT     H181407   0.456   9.063   9.364
27055WAT     H281408   0.606   9.007   9.329
27056WAT      O81409   5.741   4.629   4.023
27056WAT     H181410   5.789   4.580   4.096
27056WAT     H281411   5.723   4.723   4.052
27057WAT      O81412   9.330   1.341   8.063
27057WAT     H181413   9.234   1.318   8.080
27057WAT     H281414   9.341   1.369   7.967
27058WAT      O81415   8.234   4.200   5.556
27058WAT     H181416   8.204   4.246   5.472
27058WAT     H281417   8.183   4.114   5.566
27059WAT      O81418   5.134   1.042   0.425
27059WAT     H181419   5.043   1.025   0.462
27059WAT     H281420   5.197   1.065   0.499
27060WAT      O81421   9.838   8.231   3.908
27060WAT     H181422   9.769   8.208   3.976
27060WAT     H281423   9.804   8.305   3.850
27061WAT      O81424   6.977   1.200   9.104
27061WAT     H181425   7.062   1.223   9.153
27061WAT     H281426   6.901   1.201   9.169
27062WAT      O81427   7.435   1.096   0.885
27062WAT     H181428   7.518   1.097   0.940
27062WAT     H281429   7.389   1.185   0.893
27063WAT      O81430   7.253   3.178   5.204
27063WAT     H181431   7.163   3.170   5.161
27063WAT     H281432   7.279   3.274   5.208
27064WAT      O81433   4.612   1.292   0.819
27064WAT     H181434   4.682   1.347   0.775
27064WAT     H281435   4.642   1.267   0.911
27065WAT      O81436   9.419   3.624   9.161
27065WAT     H181437   9.475   3.605   9.241
27065WAT     H281438   9.339   3.678   9.187
27066WAT      O81439   8.944   1.172   2.387
27066WAT     H181440   8.950   1.073   2.373
27066WAT     H281441   8.861   1.207   2.343
27067WAT      O81442   2.665   4.105   0.816
27067WAT     H181443   2.689   4.171   0.888
27067WAT     H281444   2.589   4.048   0.848
27068WAT      O81445   8.711   0.571   5.171
27068WAT     H181446   8.679   0.499   5.109
27068WAT     H281447   8.727   0.532   5.262
27069WAT      O81448   1.567   5.990   4.415
27069WAT     H181449   1.618   6.044   4.481
27069WAT     H281450   1.592   6.017   4.322
27070WAT      O81451   0.504   9.304   5.880
27070WAT     H181452   0.510   9.313   5.781
27070WAT     H281453   0.529   9.211   5.907
27071WAT      O81454   8.832   5.010   4.744
27071WAT     H181455   8.869   4.923   4.774
27071WAT     H281456   8.904   5.079   4.744
27072WAT      O81457   9.022   7.189   8.388
27072WAT     H181458   9.083   7.226   8.458
27072WAT     H281459   9.058   7.101   8.357
27073WAT      O81460   2.812   2.764   6.300
27073WAT     H181461   2.852   2.675   6.323
27073WAT     H281462   2.875   2.815   6.242
27074WAT      O81463   6.437   5.135   5.677
27074WAT     H181464   6.413   5.144   5.774
27074WAT     H281465   6.512   5.069   5.667
27075WAT      O81466   6.568   0.400   0.471
27075WAT     H181467   6.543   0.343   0.549
27075WAT     H281468   6.645   0.358   0.423
27076WAT      O81469   0.837   3.724   6.248
27076WAT     H181470   0.834   3.792   6.322
27076WAT     H281471   0.903   3.653   6.271
27077WAT      O81472   7.879   3.019   9.114
27077WAT     H181473   7.949   3.040   9.182
27077WAT     H281474   7.906   2.938   9.062
27078WAT      O81475   2.281   9.748   9.620
27078WAT     H181476   2.291   9.650   9.638
27078WAT     H281477   2.189   9.766   9.586
27079WAT      O81478   2.108   1.510   8.099
27079WAT     H181479   2.082   1.558   8.015
27079WAT     H281480   2.042   1.531   8.171
27080WAT      O81481   3.631   0.224   9.433
27080WAT     H181482   3.611   0.274   9.349
27080WAT     H281483   3.622   0.125   9.416
27081WAT      O81484   9.356   7.274   6.650
27081WAT     H181485   9.426   7.290   6.580
27081WAT     H281486   9.272   7.320   6.624
27082WAT      O81487   4.000   2.087   1.009
27082WAT     H181488   3.967   2.017   1.073
27082WAT     H281489   4.079   2.051   0.959
27083WAT      O81490   0.628   0.333   9.771
27083WAT     H181491   0.725   0.350   9.788
27083WAT     H281492   0.572   0.387   9.834
27084WAT      O81493   5.783   6.025   3.243
27084WAT     H181494   5.835   5.944   3.218
27084WAT     H281495   5.736   6.010   3.330
27085WAT      O81496   8.817   0.229   8.190
27085WAT     H181497   8.736   0.222   8.247
27085WAT     H281498   8.847   0.137   8.164
27086WAT      O81499   5.952   4.803   0.318
27086WAT     H181500   5.897   4.885   0.302
27086WAT     H281501   6.049   4.825   0.307
27087WAT      O81502   2.593   7.164   8.199
27087WAT     H181503   2.550   7.087   8.151
27087WAT     H281504   2.636   7.131   8.283
27088WAT      O81505   8.862   1.052   9.231
27088WAT     H181506   8.888   0.987   9.302
27088WAT     H281507   8.878   1.145   9.265
27089WAT      O81508   3.644   9.424   9.472
27089WAT     H181509   3.609   9.473   9.392
27089WAT     H281510   3.573   9.363   9.508
27090WAT      O81511   5.881   6.991   7.089
27090WAT     H181512   5.946   6.987   7.166
27090WAT     H281513   5.796   7.033   7.120
27091WAT      O81514   8.607   1.650   9.789
27091WAT     H181515   8.555   1.664   9.705
27091WAT     H281516   8.568   1.574   9.840
27092WAT      O81517   0.760   3.334   6.408
27092WAT     H181518   0.734   3.430   6.421
27092WAT     H281519   0.818   3.326   6.326
27093WAT      O81520   3.942   4.922   8.882
27093WAT     H181521   4.025   4.868   8.897
27093WAT     H281522   3.897   4.940   8.970
27094WAT      O81523   0.326   0.208   8.162
27094WAT     H181524   0.422   0.215   8.135
27094WAT     H281525   0.305   0.281   8.227
27095WAT      O81526   7.253   7.337   9.862
27095WAT     H181527   7.289   7.414   9.808
27095WAT     H281528   7.195   7.280   9.804
27096WAT      O81529   8.787   1.718   8.742
27096WAT     H181530   8.869   1.716   8.800
27096WAT     H281531   8.729   1.795   8.770
27097WAT      O81532   6.791   0.719   8.561
27097WAT     H181533   6.878   0.739   8.607
27097WAT     H281534   6.777   0.620   8.557
27098WAT      O81535   5.226   6.425   3.686
27098WAT     H181536   5.197   6.413   3.781
27098WAT     H281537   5.148   6.410   3.626
27099WAT      O81538   1.645   9.022   8.648
27099WAT     H181539   1.637   9.103   8.705
27099WAT     H281540   1.701   8.953   8.694
27100WAT      O81541   5.422   3.230   6.882
27100WAT     H181542   5.508   3.184   6.861
27100WAT     H281543   5.368   3.173   6.944
27101WAT      O81544   1.968   9.415   8.498
27101WAT     H181545   2.004   9.505   8.522
27101WAT     H281546   1.868   9.419   8.496
27102WAT      O81547   2.042   2.842   7.454
27102WAT     H181548   2.019   2.746   7.471
27102WAT     H281549   2.114   2.870   7.517
27103WAT      O81550   2.459   3.067   2.934
27103WAT     H181551   2.441   2.978   2.977
27103WAT     H281552   2.513   3.052   2.851
27104WAT      O81553   3.439   6.673   5.975
27104WAT     H181554   3.524   6.714   6.009
27104WAT     H281555   3.426   6.584   6.017
27105WAT      O81556   2.436   9.514   0.175
27105WAT     H181557   2.503   9.568   0.225
27105WAT     H281558   2.348   9.562   0.176
27106WAT      O81559   8.653   0.105   3.628
27106WAT     H181560   8.739   0.134   3.671
27106WAT     H281561   8.672   0.066   3.539
27107WAT      O81562   2.921   6.667   8.430
27107WAT     H181563   2.978   6.600   8.384
27107WAT     H281564   2.955   6.759   8.411
27108WAT      O81565   3.210   0.367   0.036
27108WAT     H181566   3.164   0.455   0.025
27108WAT     H281567   3.182   0.326   0.123
27109WAT      O81568   5.290   4.311   9.074
27109WAT     H181569   5.222   4.247   9.110
27109WAT     H281570   5.381   4.272   9.086
27110WAT      O81571   2.892   4.444   2.583
27110WAT     H181572   2.865   4.533   2.544
27110WAT     H281573   2.897   4.376   2.511
27111WAT      O81574   4.277   7.403   5.798
27111WAT     H181575   4.227   7.485   5.774
27111WAT     H281576   4.280   7.394   5.898
27112WAT      O81577   6.581   5.972   1.465
27112WAT     H181578   6.668   6.018   1.480
27112WAT     H281579   6.591   5.901   1.396
27113WAT      O81580   3.391   9.811   3.223
27113WAT     H181581   3.491   9.807   3.224
27113WAT     H281582   3.360   9.852   3.137
27114WAT      O81583   2.391   3.220   9.267
27114WAT     H181584   2.370   3.244   9.362
27114WAT     H281585   2.449   3.292   9.226
27115WAT      O81586   6.529   1.675   9.712
27115WAT     H181587   6.577   1.602   9.760
27115WAT     H281588   6.534   1.659   9.614
27116WAT      O81589   4.940   0.870   0.874
27116WAT     H181590   4.998   0.951   0.883
27116WAT     H281591   4.995   0.788   0.888
27117WAT      O81592   8.892   8.716   2.722
27117WAT     H181593   8.924   8.745   2.632
27117WAT     H281594   8.869   8.796   2.777
27118WAT      O81595   5.276   1.470   4.101
27118WAT     H181596   5.301   1.564   4.077
27118WAT     H281597   5.189   1.446   4.057
27119WAT      O81598   1.209   3.277   1.997
27119WAT     H181599   1.130   3.218   1.984
27119WAT     H281600   1.283   3.226   2.039
27120WAT      O81601   0.941   1.211   9.766
27120WAT     H181602   0.979   1.215   9.859
27120WAT     H281603   0.865   1.146   9.764
27121WAT      O81604   6.904   3.745   2.188
27121WAT     H181605   6.834   3.724   2.120
27121WAT     H281606   6.894   3.684   2.266
27122WAT      O81607   8.542   1.476   9.221
27122WAT     H181608   8.471   1.503   9.287
27122WAT     H281609   8.537   1.377   9.206
27123WAT      O81610   6.635   2.280   9.360
27123WAT     H181611   6.578   2.199   9.372
27123WAT     H281612   6.639   2.331   9.446
27124WAT      O81613   8.295   8.260   0.497
27124WAT     H181614   8.229   8.284   0.568
27124WAT     H281615   8.282   8.164   0.471
27125WAT      O81616   8.783   3.377   9.033
27125WAT     H181617   8.758   3.335   9.120
27125WAT     H281618   8.875   3.349   9.008
27126WAT      O81619   0.187   8.799   4.096
27126WAT     H181620   0.173   8.747   4.012
27126WAT     H281621   0.275   8.847   4.093
27127WAT      O81622   0.133   3.213   4.389
27127WAT     H181623   0.041   3.184   4.365
27127WAT     H281624   0.177   3.256   4.311
27128WAT      O81625   0.928   3.332   4.188
27128WAT     H181626   0.939   3.283   4.275
27128WAT     H281627   0.877   3.416   4.205
27129WAT      O81628   2.261   6.536   6.963
27129WAT     H181629   2.353   6.570   6.947
27129WAT     H281630   2.264   6.458   7.025
27130WAT      O81631   6.433   2.011   0.112
27130WAT     H181632   6.361   2.077   0.136
27130WAT     H281633   6.402   1.954   0.036
27131WAT      O81634   6.069   6.753   9.833
27131WAT     H181635   6.086   6.851   9.822
27131WAT     H281636   6.062   6.731   9.931
27132WAT      O81637   3.697   3.857   3.912
27132WAT     H181638   3.629   3.841   3.983
27132WAT     H281639   3.651   3.871   3.824
27133WAT      O81640   0.119   2.684   1.370
27133WAT     H181641   0.117   2.722   1.278
27133WAT     H281642   0.044   2.723   1.423
27134WAT      O81643   4.357   0.002   0.792
27134WAT     H181644   4.296   0.040   0.862
27134WAT     H281645   4.447  -0.015   0.832
27135WAT      O81646   0.536   6.217   3.611
27135WAT     H181647   0.589   6.143   3.653
27135WAT     H281648   0.576   6.305   3.636
27136WAT      O81649   8.846   4.501   7.856
27136WAT     H181650   8.821   4.568   7.786
27136WAT     H281651   8.766   4.478   7.911
27137WAT      O81652   9.308   5.982   4.111
27137WAT     H181653   9.388   5.971   4.170
27137WAT     H281654   9.336   5.977   4.015
27138WAT      O81655   3.767   3.638   2.581
27138WAT     H181656   3.819   3.603   2.659
27138WAT     H281657   3.693   3.574   2.558
27139WAT      O81658   5.869   8.142   4.326
27139WAT     H181659   5.886   8.213   4.394
27139WAT     H281660   5.784   8.162   4.277
27140WAT      O81661   9.396   6.829   1.857
27140WAT     H181662   9.335   6.752   1.839
27140WAT     H281663   9.471   6.799   1.916
27141WAT      O81664   1.336   5.051   0.373
27141WAT     H181665   1.337   5.151   0.374
27141WAT     H281666   1.251   5.019   0.330
27142WAT      O81667   4.860   5.383   2.274
27142WAT     H181668   4.782   5.336   2.234
27142WAT     H281669   4.938   5.378   2.212
27143WAT      O81670   3.374   1.718   2.640
27143WAT     H181671   3.457   1.686   2.686
27143WAT     H281672   3.396   1.795   2.580
27144WAT      O81673   0.215   7.869   3.336
27144WAT     H181674   0.184   7.806   3.407
27144WAT     H281675   0.314   7.882   3.343
27145WAT      O81676   4.246   7.395   4.395
27145WAT     H181677   4.216   7.475   4.344
27145WAT     H281678   4.171   7.361   4.451
27146WAT      O81679   3.443   5.956   2.786
27146WAT     H181680   3.352   5.933   2.750
27146WAT     H281681   3.443   5.947   2.886
27147WAT      O81682   7.449   4.055   5.993
27147WAT     H181683   7.397   4.131   5.954
27147WAT     H281684   7.487   4.082   6.082
27148WAT      O81685   0.232   6.157   5.814
27148WAT     H181686   0.300   6.102   5.864
27148WAT     H281687   0.140   6.128   5.840
27149WAT      O81688   9.186   9.003   8.499
27149WAT     H181689   9.216   9.041   8.586
27149WAT     H281690   9.228   9.054   8.424
27150WAT      O81691   4.076   9.030   2.348
27150WAT     H181692   4.034   9.028   2.439
27150WAT     H281693   4.081   8.937   2.312
27151WAT      O81694   7.955   2.348   1.297
27151WAT     H181695   7.984   2.443   1.291
27151WAT     H281696   7.856   2.343   1.294
27152WAT      O81697   0.196   8.019   4.154
27152WAT     H181698   0.170   7.940   4.097
27152WAT     H281699   0.266   7.991   4.219
27153WAT      O81700   4.885   0.677   2.620
27153WAT     H181701   4.972   0.712   2.586
27153WAT     H281702   4.838   0.748   2.671
27154WAT      O81703   1.097   4.186   4.783
27154WAT     H181704   1.143   4.178   4.695
27154WAT     H281705   1.085   4.282   4.806
27155WAT      O81706   1.987   2.566   6.031
27155WAT     H181707   1.924   2.524   6.096
27155WAT     H281708   2.073   2.587   6.078
27156WAT      O81709   2.082   0.361   7.847
27156WAT     H181710   2.151   0.434   7.841
27156WAT     H281711   2.065   0.339   7.942
27157WAT      O81712   4.893   4.660   2.958
27157WAT     H181713   4.801   4.688   2.929
27157WAT     H281714   4.885   4.576   3.013
27158WAT      O81715   8.537   3.542   4.711
27158WAT     H181716   8.539   3.496   4.622
27158WAT     H281717   8.574   3.481   4.781
27159WAT      O81718   0.240   8.831   8.169
27159WAT     H181719   0.158   8.792   8.212
27159WAT     H281720   0.215   8.873   8.082
27160WAT      O81721   0.323   1.158   2.830
27160WAT     H181722   0.294   1.075   2.783
27160WAT     H281723   0.251   1.188   2.892
27161WAT      O81724   3.798   2.460   5.007
27161WAT     H181725   3.750   2.547   5.020
27161WAT     H281726   3.812   2.416   5.096
27162WAT      O81727   8.277   0.981   9.487
27162WAT     H181728   8.220   1.056   9.453
27162WAT     H281729   8.276   0.982   9.587
27163WAT      O81730   5.523   1.723   7.202
27163WAT     H181731   5.461   1.779   7.258
27163WAT     H281732   5.518   1.753   7.107
27164WAT      O81733   5.089   3.759   8.841
27164WAT     H181734   5.109   3.817   8.920
27164WAT     H281735   5.156   3.777   8.769
27165WAT      O81736   7.165   4.809   4.080
27165WAT     H181737   7.223   4.769   4.150
27165WAT     H281738   7.147   4.742   4.009
27166WAT      O81739   7.754   4.351   3.652
27166WAT     H181740   7.703   4.321   3.733
27166WAT     H281741   7.840   4.394   3.681
27167WAT      O81742   6.026   1.735   9.215
27167WAT     H181743   6.103   1.772   9.163
27167WAT     H281744   6.015   1.637   9.194
27168WAT      O81745   1.714   0.807   5.579
27168WAT     H181746   1.711   0.713   5.611
27168WAT     H281747   1.679   0.812   5.486
27169WAT      O81748   7.837   3.360   1.878
27169WAT     H181749   7.934   3.368   1.901
27169WAT     H281750   7.784   3.342   1.961
27170WAT      O81751   4.274   5.529   2.830
27170WAT     H181752   4.276   5.622   2.867
27170WAT     H281753   4.367   5.501   2.806
27171WAT      O81754   5.941   5.385   9.724
27171WAT     H181755   6.010   5.357   9.792
27171WAT     H281756   5.869   5.316   9.721
27172WAT      O81757   3.860   7.110   4.049
27172WAT     H181758   3.927   7.115   3.975
27172WAT     H281759   3.820   7.201   4.065
27173WAT      O81760   6.428   5.422   6.773
27173WAT     H181761   6.398   5.414   6.868
27173WAT     H281762   6.499   5.492   6.767
27174WAT      O81763   1.279   5.991   5.569
27174WAT     H181764   1.251   5.941   5.487
27174WAT     H281765   1.227   6.077   5.575
27175WAT      O81766   3.702   9.367   6.312
27175WAT     H181767   3.703   9.432   6.236
27175WAT     H281768   3.770   9.394   6.380
27176WAT      O81769   4.956   3.941   3.308
27176WAT     H181770   4.942   3.864   3.370
27176WAT     H281771   5.044   3.930   3.262
27177WAT      O81772   3.148   6.959   0.716
27177WAT     H181773   3.207   7.035   0.742
27177WAT     H281774   3.154   6.945   0.617
27178WAT      O81775   0.081   0.004   5.833
27178WAT     H181776   0.115  -0.003   5.927
27178WAT     H281777   0.155  -0.020   5.769
27179WAT      O81778   7.435   9.564   1.516
27179WAT     H181779   7.494   9.603   1.586
27179WAT     H281780   7.385   9.638   1.470
27180WAT      O81781   8.625   0.047   2.556
27180WAT     H181782   8.596   0.009   2.469
27180WAT     H281783   8.625   0.147   2.552
27181WAT      O81784   8.881   8.734   5.371
27181WAT     H181785   8.786   8.726   5.340
27181WAT     H281786   8.928   8.804   5.317
27182WAT      O81787   9.618   3.092   0.167
27182WAT     H181788   9.555   3.032   0.216
27182WAT     H281789   9.707   3.048   0.160
27183WAT      O81790   9.453   8.365   0.479
27183WAT     H181791   9.498   8.343   0.566
27183WAT     H281792   9.376   8.426   0.495
27184WAT      O81793   5.591   4.085   0.001
27184WAT     H181794   5.612   4.182   0.009
27184WAT     H281795   5.492   4.072   0.002
27185WAT      O81796   7.451   0.631   5.386
27185WAT     H181797   7.369   0.687   5.376
27185WAT     H281798   7.425   0.536   5.402
27186WAT      O81799   0.215   3.191   3.442
27186WAT     H181800   0.210   3.099   3.403
27186WAT     H281801   0.124   3.218   3.474
27187WAT      O81802   0.857   1.408   4.520
27187WAT     H181803   0.896   1.320   4.491
27187WAT     H281804   0.772   1.424   4.469
27188WAT      O81805   8.858   4.320   0.502
27188WAT     H181806   8.773   4.327   0.554
27188WAT     H281807   8.932   4.292   0.564
27189WAT      O81808   8.582   6.201   8.023
27189WAT     H181809   8.539   6.171   7.938
27189WAT     H281810   8.680   6.184   8.019
27190WAT      O81811   0.343   7.076   2.868
27190WAT     H181812   0.414   7.081   2.797
27190WAT     H281813   0.254   7.095   2.828
27191WAT      O81814   3.311   1.926   3.523
27191WAT     H181815   3.263   1.985   3.588
27191WAT     H281816   3.298   1.962   3.430
27192WAT      O81817   3.354   2.539   6.567
27192WAT     H181818   3.254   2.537   6.560
27192WAT     H281819   3.385   2.462   6.622
27193WAT      O81820   7.519   5.759   7.615
27193WAT     H181821   7.521   5.776   7.517
27193WAT     H281822   7.460   5.681   7.635
27194WAT      O81823   1.301   2.126   8.428
27194WAT     H181824   1.334   2.033   8.441
27194WAT     H281825   1.233   2.128   8.354
27195WAT      O81826   6.664   4.630   2.658
27195WAT     H181827   6.691   4.568   2.584
27195WAT     H281828   6.616   4.578   2.729
27196WAT      O81829   2.736   3.613   0.436
27196WAT     H181830   2.727   3.701   0.483
27196WAT     H281831   2.808   3.619   0.367
27197WAT      O81832   5.158   0.117   1.339
27197WAT     H181833   5.230   0.071   1.289
27197WAT     H281834   5.128   0.059   1.415
27198WAT      O81835   9.472   4.281   4.488
27198WAT     H181836   9.518   4.212   4.543
27198WAT     H281837   9.387   4.244   4.453
27199WAT      O81838   1.511   3.844   1.603
27199WAT     H181839   1.515   3.778   1.528
27199WAT     H281840   1.532   3.935   1.568
27200WAT      O81841   7.625   5.278   9.130
27200WAT     H181842   7.588   5.226   9.052
27200WAT     H281843   7.555   5.284   9.202
27201WAT      O81844   6.821   0.155   4.481
27201WAT     H181845   6.887   0.127   4.411
27201WAT     H281846   6.754   0.218   4.441
27202WAT      O81847   1.569   0.325   5.489
27202WAT     H181848   1.503   0.342   5.416
27202WAT     H281849   1.662   0.331   5.451
27203WAT      O81850   1.940   7.677   6.462
27203WAT     H181851   1.866   7.701   6.400
27203WAT     H281852   1.986   7.761   6.492
27204WAT      O81853   9.329   2.475   5.262
27204WAT     H181854   9.373   2.393   5.300
27204WAT     H281855   9.239   2.451   5.226
27205WAT      O81856   2.721   0.193   5.913
27205WAT     H181857   2.743   0.289   5.929
27205WAT     H281858   2.728   0.174   5.815
27206WAT      O81859   8.303   9.194   6.237
27206WAT     H181860   8.323   9.097   6.250
27206WAT     H281861   8.234   9.204   6.165
27207WAT      O81862   3.018   0.102   5.137
27207WAT     H181863   3.068   0.035   5.082
27207WAT     H281864   2.939   0.134   5.086
27208WAT      O81865   2.515   4.371   4.660
27208WAT     H181866   2.438   4.403   4.715
27208WAT     H281867   2.530   4.273   4.676
27209WAT      O81868   1.879   6.518   8.549
27209WAT     H181869   1.811   6.445   8.549
27209WAT     H281870   1.936   6.510   8.631
27210WAT      O81871   0.579   5.952   1.123
27210WAT     H181872   0.563   5.899   1.040
27210WAT     H281873   0.565   6.049   1.103
27211WAT      O81874   0.993   6.228   3.180
27211WAT     H181875   0.894   6.217   3.183
27211WAT     H281876   1.034   6.151   3.132
27212WAT      O81877   0.932   8.109   5.005
27212WAT     H181878   0.913   8.048   5.082
27212WAT     H281879   0.998   8.178   5.033
27213WAT      O81880   9.146   8.848   3.315
27213WAT     H181881   9.158   8.748   3.310
27213WAT     H281882   9.156   8.887   3.224
27214WAT      O81883   5.622   2.752   5.690
27214WAT     H181884   5.669   2.840   5.691
27214WAT     H281885   5.668   2.690   5.627
27215WAT      O81886   0.043   3.959   1.069
27215WAT     H181887   0.068   3.879   1.123
27215WAT     H281888  -0.053   3.981   1.085
27216WAT      O81889   3.963   7.027   9.584
27216WAT     H181890   3.959   6.951   9.520
27216WAT     H281891   3.902   7.100   9.553
27217WAT      O81892   8.494   7.264   4.335
27217WAT     H181893   8.420   7.301   4.391
27217WAT     H281894   8.457   7.205   4.264
27218WAT      O81895   9.795   8.610   3.552
27218WAT     H181896   9.701   8.643   3.543
27218WAT     H281897   9.857   8.688   3.559
27219WAT      O81898   9.852   8.275   2.128
27219WAT     H181899   9.834   8.288   2.226
27219WAT     H281900   9.916   8.199   2.115
27220WAT      O81901   7.762   5.630   1.050
27220WAT     H181902   7.722   5.585   1.129
27220WAT     H281903   7.822   5.565   1.001
27221WAT      O81904   8.256   8.746   4.714
27221WAT     H181905   8.290   8.712   4.801
27221WAT     H281906   8.192   8.821   4.729
27222WAT      O81907   9.019   5.990   9.747
27222WAT     H181908   8.959   5.976   9.668
27222WAT     H281909   8.975   5.955   9.829
27223WAT      O81910   2.662   6.638   1.854
27223WAT     H181911   2.659   6.545   1.891
27223WAT     H281912   2.628   6.638   1.760
27224WAT      O81913   4.772   5.808   6.045
27224WAT     H181914   4.763   5.902   6.012
27224WAT     H281915   4.699   5.787   6.110
27225WAT      O81916   3.396   5.314   3.729
27225WAT     H181917   3.362   5.363   3.809
27225WAT     H281918   3.371   5.217   3.736
27226WAT      O81919   2.934   2.482   7.236
27226WAT     H181920   2.888   2.569   7.253
27226WAT     H281921   2.867   2.416   7.202
27227WAT      O81922   7.780   7.186   7.166
27227WAT     H181923   7.758   7.269   7.218
27227WAT     H281924   7.835   7.125   7.222
27228WAT      O81925   9.517   2.722   6.364
27228WAT     H181926   9.492   2.628   6.341
27228WAT     H281927   9.436   2.771   6.396
27229WAT      O81928   4.982   8.330   1.893
27229WAT     H181929   5.026   8.419   1.899
27229WAT     H281930   5.010   8.285   1.808
27230WAT      O81931   1.214   5.695   2.428
27230WAT     H181932   1.236   5.610   2.381
27230WAT     H281933   1.123   5.726   2.402
27231WAT      O81934   4.536   8.964   1.205
27231WAT     H181935   4.515   8.944   1.110
27231WAT     H281936   4.451   8.979   1.256
27232WAT      O81937   1.328   6.927   2.295
27232WAT     H181938   1.399   6.980   2.343
27232WAT     H281939   1.247   6.983   2.284
27233WAT      O81940   7.055   6.434   3.127
27233WAT     H181941   6.979   6.414   3.189
27233WAT     H281942   7.082   6.351   3.079
27234WAT      O81943   2.859   3.215   2.418
27234WAT     H181944   2.876   3.229   2.320
27234WAT     H281945   2.762   3.198   2.433
27235WAT      O81946   7.585   6.568   2.936
27235WAT     H181947   7.497   6.523   2.921
27235WAT     H281948   7.612   6.618   2.853
27236WAT      O81949   3.847   7.209   5.908
27236WAT     H181950   3.821   7.248   5.820
27236WAT     H281951   3.768   7.210   5.970
27237WAT      O81952   4.260   6.802   2.422
27237WAT     H181953   4.229   6.821   2.328
27237WAT     H281954   4.334   6.735   2.420
27238WAT      O81955   7.409   1.756   9.822
27238WAT     H181956   7.393   1.664   9.786
27238WAT     H281957   7.434   1.817   9.746
27239WAT      O81958   5.565   6.057   7.924
27239WAT     H181959   5.574   5.978   7.862
27239WAT     H281960   5.654   6.080   7.961
27240WAT      O81961   3.023   6.778   0.193
27240WAT     H181962   3.057   6.749   0.283
27240WAT     H281963   2.924   6.785   0.196
27241WAT      O81964   6.467   8.160   6.258
27241WAT     H181965   6.375   8.120   6.261
27241WAT     H281966   6.476   8.216   6.176
27242WAT      O81967   9.592   5.415   7.404
27242WAT     H181968   9.611   5.343   7.337
27242WAT     H281969   9.558   5.375   7.489
27243WAT      O81970   8.472   1.647   8.415
27243WAT     H181971   8.449   1.551   8.434
27243WAT     H281972   8.412   1.683   8.344
27244WAT      O81973   7.369   7.861   2.604
27244WAT     H181974   7.403   7.778   2.647
27244WAT     H281975   7.340   7.840   2.510
27245WAT      O81976   6.781   2.958   9.894
27245WAT     H181977   6.864   3.001   9.859
27245WAT     H281978   6.706   2.970   9.829
27246WAT      O81979   3.896   0.105   0.292
27246WAT     H181980   3.844   0.187   0.269
27246WAT     H281981   3.834   0.034   0.325
27247WAT      O81982   0.737   7.228   8.353
27247WAT     H181983   0.799   7.256   8.426
27247WAT     H281984   0.742   7.293   8.278
27248WAT      O81985   4.743   1.736   5.881
27248WAT     H181986   4.757   1.640   5.904
27248WAT     H281987   4.678   1.777   5.945
27249WAT      O81988   3.730   8.256   5.480
27249WAT     H181989   3.632   8.242   5.473
27249WAT     H281990   3.750   8.321   5.553
27250WAT      O81991   9.444   5.228   9.465
27250WAT     H181992   9.475   5.149   9.413
27250WAT     H281993   9.494   5.233   9.552
27251WAT      O81994   7.201   8.201   9.500
27251WAT     H181995   7.106   8.215   9.525
27251WAT     H281996   7.248   8.289   9.498
27252WAT      O81997   4.983   6.835   6.245
27252WAT     H181998   4.970   6.873   6.154
27252WAT     H281999   4.992   6.909   6.312
27253WAT      O82000   1.769   2.161   7.570
27253WAT     H182001   1.815   2.240   7.530
27253WAT     H282002   1.749   2.094   7.499
27254WAT      O82003   7.327   5.761   2.937
27254WAT     H182004   7.246   5.802   2.894
27254WAT     H282005   7.389   5.729   2.867
27255WAT      O82006   7.426   9.735   4.733
27255WAT     H182007   7.498   9.666   4.727
27255WAT     H282008   7.451   9.816   4.681
27256WAT      O82009   8.117   5.444   4.568
27256WAT     H182010   8.156   5.528   4.530
27256WAT     H282011   8.167   5.418   4.651
27257WAT      O82012   2.142   3.937   2.533
27257WAT     H182013   2.097   3.945   2.444
27257WAT     H282014   2.082   3.890   2.596
27258WAT      O82015   4.612   5.062   7.679
27258WAT     H182016   4.626   5.018   7.590
27258WAT     H282017   4.697   5.059   7.731
27259WAT      O82018   9.455   3.275   5.547
27259WAT     H182019   9.473   3.208   5.620
27259WAT     H282020   9.379   3.242   5.491
27260WAT      O82021   5.735   3.360   9.329
27260WAT     H182022   5.756   3.290   9.261
27260WAT     H282023   5.644   3.344   9.367
27261WAT      O82024   7.121   5.871   7.028
27261WAT     H182025   7.045   5.861   6.964
27261WAT     H282026   7.114   5.801   7.099
27262WAT      O82027   9.873   3.122   6.921
27262WAT     H182028   9.782   3.093   6.891
27262WAT     H282029   9.942   3.076   6.865
27263WAT      O82030   5.257   1.943   6.255
27263WAT     H182031   5.297   1.990   6.176
27263WAT     H282032   5.260   1.845   6.241
27264WAT      O82033   7.169   1.145   3.422
27264WAT     H182034   7.125   1.056   3.409
27264WAT     H282035   7.230   1.141   3.500
27265WAT      O82036   5.016   0.472   9.817
27265WAT     H182037   4.972   0.510   9.736
27265WAT     H282038   4.947   0.425   9.873
27266WAT      O82039   6.369   5.471   8.368
27266WAT     H182040   6.325   5.383   8.354
27266WAT     H282041   6.300   5.539   8.395
27267WAT      O82042   8.012   5.052   5.102
27267WAT     H182043   8.038   4.989   5.175
27267WAT     H282044   7.972   5.135   5.141
27268WAT      O82045   2.510   2.056   0.004
27268WAT     H182046   2.581   2.096   0.061
27268WAT     H282047   2.433   2.120  -0.004
27269WAT      O82048   5.768   2.944   0.210
27269WAT     H182049   5.760   3.042   0.190
27269WAT     H282050   5.768   2.892   0.125
27270WAT      O82051   5.718   7.403   0.842
27270WAT     H182052   5.720   7.309   0.876
27270WAT     H282053   5.674   7.405   0.752
27271WAT      O82054   8.221   4.916   4.444
27271WAT     H182055   8.303   4.966   4.414
27271WAT     H282056   8.236   4.881   4.536
27272WAT      O82057   1.758   4.705   2.184
27272WAT     H182058   1.786   4.649   2.107
27272WAT     H282059   1.715   4.789   2.151
27273WAT      O82060   5.300   3.920   7.373
27273WAT     H182061   5.269   3.911   7.278
27273WAT     H282062   5.381   3.980   7.376
27274WAT      O82063   4.950   8.751   0.104
27274WAT     H182064   4.863   8.726   0.064
27274WAT     H282065   4.935   8.798   0.191
27275WAT      O82066   5.541   5.360   1.093
27275WAT     H182067   5.459   5.319   1.134
27275WAT     H282068   5.572   5.436   1.149
27276WAT      O82069   8.647   3.563   6.129
27276WAT     H182070   8.728   3.592   6.077
27276WAT     H282071   8.565   3.583   6.076
27277WAT      O82072   6.283   0.165   5.600
27277WAT     H182073   6.343   0.233   5.560
27277WAT     H282074   6.318   0.138   5.690
27278WAT      O82075   0.033   4.037   6.096
27278WAT     H182076   0.058   3.971   6.026
27278WAT     H282077   0.085   4.121   6.084
27279WAT      O82078   0.055   4.196   3.080
27279WAT     H182079  -0.035   4.156   3.096
27279WAT     H282080   0.056   4.291   3.111
27280WAT      O82081   1.437   1.387   6.478
27280WAT     H182082   1.531   1.387   6.445
27280WAT     H282083   1.413   1.478   6.511
27281WAT      O82084   0.681   1.610   0.255
27281WAT     H182085   0.673   1.541   0.183
27281WAT     H282086   0.770   1.602   0.300
27282WAT      O82087   2.478   2.262   9.134
27282WAT     H182088   2.383   2.233   9.121
27282WAT     H282089   2.538   2.202   9.082
27283WAT      O82090   8.749   0.742   2.426
27283WAT     H182091   8.827   0.756   2.487
27283WAT     H282092   8.676   0.807   2.449
27284WAT      O82093   8.483   8.580   9.424
27284WAT     H182094   8.444   8.631   9.501
27284WAT     H282095   8.499   8.485   9.452
27285WAT      O82096   9.397   1.189   6.569
27285WAT     H182097   9.390   1.287   6.590
27285WAT     H282098   9.402   1.177   6.470
27286WAT      O82099   9.498   0.954   5.448
27286WAT     H182100   9.439   0.885   5.405
27286WAT     H282101   9.490   1.040   5.398
27287WAT      O82102   4.897   4.843   9.192
27287WAT     H182103   4.819   4.852   9.254
27287WAT     H282104   4.938   4.933   9.178
27288WAT      O82105   8.536   7.347   1.841
27288WAT     H182106   8.551   7.333   1.938
27288WAT     H282107   8.527   7.258   1.795
27289WAT      O82108   4.030   7.043   1.547
27289WAT     H182109   3.955   7.087   1.498
27289WAT     H282110   4.018   7.059   1.645
27290WAT      O82111   6.689   5.947   9.412
27290WAT     H182112   6.683   6.028   9.354
27290WAT     H282113   6.784   5.933   9.440
27291WAT      O82114   9.330   1.457   3.347
27291WAT     H182115   9.349   1.526   3.277
27291WAT     H282116   9.277   1.383   3.306
27292WAT      O82117   2.295   6.249   4.773
27292WAT     H182118   2.346   6.198   4.843
27292WAT     H282119   2.332   6.342   4.767
27293WAT      O82120   0.311   9.620   0.737
27293WAT     H182121   0.242   9.609   0.666
27293WAT     H282122   0.268   9.617   0.827
27294WAT      O82123   9.397   2.502   9.888
27294WAT     H182124   9.353   2.563   9.823
27294WAT     H282125   9.327   2.444   9.931
27295WAT      O82126   8.068   5.433   8.081
27295WAT     H182127   8.029   5.507   8.135
27295WAT     H282128   8.073   5.350   8.137
27296WAT      O82129   9.360   8.038   7.310
27296WAT     H182130   9.359   8.097   7.230
27296WAT     H282131   9.450   8.041   7.353
27297WAT      O82132   0.812   9.470   3.484
27297WAT     H182133   0.854   9.420   3.408
27297WAT     H282134   0.790   9.406   3.558
27298WAT      O82135   3.176   0.058   4.326
27298WAT     H182136   3.271   0.037   4.302
27298WAT     H282137   3.157   0.154   4.307
27299WAT      O82138   1.791   4.657   7.188
27299WAT     H182139   1.710   4.610   7.152
27299WAT     H282140   1.806   4.628   7.283
27300WAT      O82141   1.094   9.661   8.580
27300WAT     H182142   1.003   9.644   8.616
27300WAT     H282143   1.146   9.576   8.577
27301WAT      O82144   4.012   1.316   3.084
27301WAT     H182145   4.040   1.368   3.003
27301WAT     H282146   4.093   1.280   3.130
27302WAT      O82147   9.456   8.789   2.381
27302WAT     H182148   9.460   8.771   2.480
27302WAT     H282149   9.548   8.797   2.345
27303WAT      O82150   0.351   8.213   5.793
27303WAT     H182151   0.383   8.165   5.875
27303WAT     H282152   0.335   8.147   5.719
27304WAT      O82153   3.018   7.358   4.773
27304WAT     H182154   3.035   7.305   4.690
27304WAT     H282155   3.090   7.337   4.840
27305WAT      O82156   6.197   9.033   4.095
27305WAT     H182157   6.237   8.941   4.096
27305WAT     H282158   6.102   9.029   4.127
27306WAT      O82159   8.852   7.790   8.414
27306WAT     H182160   8.884   7.869   8.467
27306WAT     H282161   8.819   7.821   8.325
27307WAT      O82162   7.942   4.064   1.170
27307WAT     H182163   7.900   4.155   1.165
27307WAT     H282164   7.989   4.053   1.257
27308WAT      O82165   7.994   3.866   9.874
27308WAT     H182166   8.003   3.774   9.836
27308WAT     H282167   8.020   3.864   9.971
27309WAT      O82168   9.038   6.847   4.413
27309WAT     H182169   9.038   6.751   4.437
27309WAT     H282170   8.946   6.886   4.425
27310WAT      O82171   6.486   9.000   5.879
27310WAT     H182172   6.490   8.918   5.822
27310WAT     H282173   6.576   9.018   5.919
27311WAT      O82174   1.385   8.538   9.581
27311WAT     H182175   1.439   8.598   9.639
27311WAT     H282176   1.444   8.466   9.543
27312WAT      O82177   5.709   1.122   2.317
27312WAT     H182178   5.786   1.107   2.256
27312WAT     H282179   5.731   1.087   2.408
27313WAT      O82180   2.732   9.309   0.344
27313WAT     H182181   2.697   9.235   0.287
27313WAT     H282182   2.806   9.356   0.296
27314WAT      O82183   7.471   6.839   9.515
27314WAT     H182184   7.526   6.823   9.597
27314WAT     H282185   7.374   6.843   9.540
27315WAT      O82186   2.131   6.598   2.180
27315WAT     H182187   2.112   6.500   2.184
27315WAT     H282188   2.222   6.613   2.142
27316WAT      O82189   8.735   3.680   0.071
27316WAT     H182190   8.752   3.777   0.055
27316WAT     H282191   8.649   3.653   0.027
27317WAT      O82192   3.826   0.575   4.006
27317WAT     H182193   3.855   0.550   4.098
27317WAT     H282194   3.728   0.594   4.006
27318WAT      O82195   7.576   6.633   2.174
27318WAT     H182196   7.606   6.593   2.261
27318WAT     H282197   7.542   6.726   2.191
27319WAT      O82198   8.940   0.052   6.577
27319WAT     H182199   9.033   0.070   6.546
27319WAT     H282200   8.919  -0.045   6.566
27320WAT      O82201   6.733   4.307   0.578
27320WAT     H182202   6.767   4.231   0.523
27320WAT     H282203   6.638   4.291   0.602
27321WAT      O82204   7.759   3.680   9.509
27321WAT     H182205   7.671   3.648   9.545
27321WAT     H282206   7.742   3.748   9.437
27322WAT      O82207   4.850   0.302   1.793
27322WAT     H182208   4.868   0.340   1.703
27322WAT     H282209   4.895   0.358   1.863
27323WAT      O82210   1.523   0.644   1.035
27323WAT     H182211   1.562   0.593   0.958
27323WAT     H282212   1.588   0.715   1.063
27324WAT      O82213   8.570   1.264   0.836
27324WAT     H182214   8.509   1.210   0.894
27324WAT     H282215   8.610   1.338   0.890
27325WAT      O82216   4.407   6.912   9.727
27325WAT     H182217   4.385   6.815   9.731
27325WAT     H282218   4.323   6.966   9.735
27326WAT      O82219   5.236   5.698   2.647
27326WAT     H182220   5.170   5.638   2.691
27326WAT     H282221   5.290   5.745   2.716
27327WAT      O82222   9.086   5.675   5.200
27327WAT     H182223   9.108   5.615   5.277
27327WAT     H282224   8.988   5.690   5.196
27328WAT      O82225   1.408   7.563   5.633
27328WAT     H182226   1.449   7.632   5.692
27328WAT     H282227   1.309   7.576   5.630
27329WAT      O82228   2.159   2.704   6.923
27329WAT     H182229   2.154   2.764   7.002
27329WAT     H282230   2.255   2.692   6.896
27330WAT      O82231   0.515   6.808   0.447
27330WAT     H182232   0.547   6.898   0.477
27330WAT     H282233   0.417   6.810   0.431
27331WAT      O82234   8.893   4.812   0.364
27331WAT     H182235   8.984   4.829   0.324
27331WAT     H282236   8.826   4.869   0.317
27332WAT      O82237   0.664   0.346   4.030
27332WAT     H182238   0.703   0.434   4.057
27332WAT     H282239   0.601   0.359   3.954
27333WAT      O82240   8.040   9.313   6.441
27333WAT     H182241   8.131   9.281   6.467
27333WAT     H282242   8.041   9.413   6.432
27334WAT      O82243   4.497   8.228   0.253
27334WAT     H182244   4.476   8.307   0.196
27334WAT     H282245   4.596   8.224   0.270
27335WAT      O82246   1.165   5.958   7.713
27335WAT     H182247   1.154   5.871   7.666
27335WAT     H282248   1.097   5.966   7.786
27336WAT      O82249   1.616   4.860   7.807
27336WAT     H182250   1.681   4.785   7.796
27336WAT     H282251   1.631   4.903   7.896
27337WAT      O82252   2.164   3.327   1.721
27337WAT     H182253   2.143   3.230   1.731
27337WAT     H282254   2.093   3.382   1.767
27338WAT      O82255   4.694   2.137   1.576
27338WAT     H182256   4.702   2.237   1.575
27338WAT     H282257   4.774   2.097   1.532
27339WAT      O82258   3.644   0.939   7.285
27339WAT     H182259   3.606   0.850   7.311
27339WAT     H282260   3.743   0.934   7.281
27340WAT      O82261   4.809   7.623   5.395
27340WAT     H182262   4.881   7.690   5.379
27340WAT     H282263   4.842   7.554   5.459
27341WAT      O82264   2.432   2.835   1.582
27341WAT     H182265   2.458   2.787   1.665
27341WAT     H282266   2.333   2.853   1.583
27342WAT      O82267   5.667   5.693   0.558
27342WAT     H182268   5.727   5.772   0.547
27342WAT     H282269   5.606   5.708   0.636
27343WAT      O82270   6.349   2.250   5.519
27343WAT     H182271   6.426   2.187   5.526
27343WAT     H282272   6.376   2.339   5.556
27344WAT      O82273   9.496   8.724   9.316
27344WAT     H182274   9.419   8.664   9.339
27344WAT     H282275   9.461   8.814   9.289
27345WAT      O82276   0.735   7.675   1.115
27345WAT     H182277   0.816   7.734   1.120
27345WAT     H282278   0.683   7.682   1.200
27346WAT      O82279   4.727   8.033   8.819
27346WAT     H182280   4.641   8.084   8.822
27346WAT     H282281   4.779   8.052   8.902
27347WAT      O82282   9.599   7.037   4.839
27347WAT     H182283   9.653   7.092   4.775
27347WAT     H282284   9.544   7.097   4.897
27348WAT      O82285   2.088   7.907   7.009
27348WAT     H182286   2.039   7.994   7.009
27348WAT     H282287   2.183   7.921   7.036
27349WAT      O82288   3.313   6.351   1.781
27349WAT     H182289   3.347   6.437   1.819
27349WAT     H282290   3.214   6.346   1.795
27350WAT      O82291   7.497   6.360   5.788
27350WAT     H182292   7.535   6.295   5.853
27350WAT     H282293   7.565   6.378   5.716
27351WAT      O82294   6.169   7.569   1.708
27351WAT     H182295   6.076   7.600   1.728
27351WAT     H282296   6.233   7.614   1.770
27352WAT      O82297   6.003   9.441   8.613
27352WAT     H182298   5.993   9.539   8.633
27352WAT     H282299   5.913   9.400   8.599
27353WAT      O82300   9.589   1.411   7.417
27353WAT     H182301   9.584   1.329   7.360
27353WAT     H282302   9.605   1.385   7.512
27354WAT      O82303   3.545   5.373   8.193
27354WAT     H182304   3.547   5.456   8.247
27354WAT     H282305   3.637   5.332   8.191
27355WAT      O82306   1.934   4.513   8.985
27355WAT     H182307   2.001   4.570   8.938
27355WAT     H282308   1.953   4.417   8.966
27356WAT      O82309   9.762   4.534   8.235
27356WAT     H182310   9.857   4.550   8.207
27356WAT     H282311   9.700   4.583   8.173
27357WAT      O82312   5.127   3.099   7.905
27357WAT     H182313   5.036   3.068   7.875
27357WAT     H282314   5.170   3.153   7.833
27358WAT      O82315   4.023   5.633   9.383
27358WAT     H182316   3.946   5.696   9.373
27358WAT     H282317   3.992   5.540   9.362
27359WAT      O82318   7.752   9.029   4.647
27359WAT     H182319   7.721   8.979   4.727
27359WAT     H282320   7.778   9.122   4.674
27360WAT      O82321   0.703   1.059   3.519
27360WAT     H182322   0.719   1.031   3.613
27360WAT     H282323   0.711   0.980   3.458
27361WAT      O82324   8.774   9.051   5.166
27361WAT     H182325   8.737   9.058   5.259
27361WAT     H282326   8.742   8.966   5.124
27362WAT      O82327   8.810   5.511   5.663
27362WAT     H182328   8.758   5.460   5.595
27362WAT     H282329   8.895   5.544   5.623
27363WAT      O82330   0.268   9.711   0.989
27363WAT     H182331   0.275   9.702   1.089
27363WAT     H282332   0.196   9.778   0.968
27364WAT      O82333   3.808   4.384   7.784
27364WAT     H182334   3.868   4.385   7.704
27364WAT     H282335   3.714   4.396   7.755
27365WAT      O82336   7.363   5.307   5.499
27365WAT     H182337   7.426   5.273   5.429
27365WAT     H282338   7.292   5.240   5.516
27366WAT      O82339   1.832   2.425   6.441
27366WAT     H182340   1.915   2.480   6.444
27366WAT     H282341   1.760   2.476   6.393
27367WAT      O82342   3.572   7.863   4.795
27367WAT     H182343   3.475   7.847   4.779
27367WAT     H282344   3.625   7.833   4.716
27368WAT      O82345   3.033   7.855   4.185
27368WAT     H182346   2.987   7.834   4.099
27368WAT     H282347   3.066   7.949   4.183
27369WAT      O82348   0.560   8.792   5.703
27369WAT     H182349   0.615   8.870   5.734
27369WAT     H282350   0.470   8.825   5.674
27370WAT      O82351   2.132   0.791   7.314
27370WAT     H182352   2.189   0.757   7.389
27370WAT     H282353   2.186   0.851   7.255
27371WAT      O82354   6.554   9.288   6.945
27371WAT     H182355   6.631   9.264   7.004
27371WAT     H282356   6.513   9.373   6.978
27372WAT      O82357   6.385   3.506   0.069
27372WAT     H182358   6.353   3.597   0.096
27372WAT     H282359   6.309   3.454   0.031
27373WAT      O82360   5.521   4.978   1.054
27373WAT     H182361   5.591   5.023   1.109
27373WAT     H282362   5.557   4.892   1.019
27374WAT      O82363   7.492   1.739   2.194
27374WAT     H182364   7.560   1.672   2.224
27374WAT     H282365   7.498   1.750   2.095
27375WAT      O82366   2.476   5.341   2.798
27375WAT     H182367   2.411   5.409   2.762
27375WAT     H282368   2.515   5.289   2.722
27376WAT      O82369   9.082   5.134   7.705
27376WAT     H182370   9.087   5.082   7.620
27376WAT     H282371   9.165   5.188   7.716
27377WAT      O82372   2.689   0.937   4.667
27377WAT     H182373   2.759   0.994   4.711
27377WAT     H282374   2.620   0.997   4.624
27378WAT      O82375   9.698   7.869   8.021
27378WAT     H182376   9.742   7.834   8.104
27378WAT     H282377   9.627   7.805   7.991
27379WAT      O82378   2.783   3.896   6.366
27379WAT     H182379   2.806   3.801   6.385
27379WAT     H282380   2.684   3.909   6.377
27380WAT      O82381   6.768   9.328   9.458
27380WAT     H182382   6.852   9.295   9.414
27380WAT     H282383   6.696   9.337   9.390
27381WAT      O82384   2.404   1.409   0.742
27381WAT     H182385   2.340   1.391   0.817
27381WAT     H282386   2.462   1.329   0.727
27382WAT      O82387   6.368   5.311   1.789
27382WAT     H182388   6.395   5.294   1.695
27382WAT     H282389   6.293   5.251   1.814
27383WAT      O82390   9.215   3.697   6.171
27383WAT     H182391   9.137   3.753   6.143
27383WAT     H282392   9.242   3.722   6.264
27384WAT      O82393   8.578   5.114   8.277
27384WAT     H182394   8.663   5.167   8.274
27384WAT     H282395   8.536   5.123   8.367
27385WAT      O82396   3.017   6.112   2.579
27385WAT     H182397   3.047   6.043   2.513
27385WAT     H282398   3.070   6.197   2.565
27386WAT      O82399   6.437   9.340   6.140
27386WAT     H182400   6.461   9.437   6.132
27386WAT     H282401   6.355   9.331   6.197
27387WAT      O82402   3.826   9.733   1.227
27387WAT     H182403   3.753   9.756   1.163
27387WAT     H282404   3.794   9.747   1.320
27388WAT      O82405   5.123   4.090   8.604
27388WAT     H182406   5.027   4.074   8.627
27388WAT     H282407   5.150   4.181   8.637
27389WAT      O82408   9.803   5.497   8.496
27389WAT     H182409   9.802   5.398   8.508
27389WAT     H282410   9.710   5.533   8.509
27390WAT      O82411   9.012   6.784   0.077
27390WAT     H182412   8.928   6.769   0.025
27390WAT     H282413   9.011   6.727   0.159
27391WAT      O82414   2.659   0.171   1.386
27391WAT     H182415   2.756   0.149   1.380
27391WAT     H282416   2.630   0.218   1.303
27392WAT      O82417   3.553   6.565   9.553
27392WAT     H182418   3.470   6.580   9.608
27392WAT     H282419   3.529   6.564   9.456
27393WAT      O82420   1.113   9.400   3.001
27393WAT     H182421   1.128   9.335   2.926
27393WAT     H282422   1.099   9.349   3.086
27394WAT      O82423   7.050   5.674   8.965
27394WAT     H182424   7.085   5.732   8.892
27394WAT     H282425   7.080   5.710   9.053
27395WAT      O82426   4.897   9.090   1.818
27395WAT     H182427   4.911   9.187   1.838
27395WAT     H282428   4.985   9.042   1.827
27396WAT      O82429   0.796   0.692   1.837
27396WAT     H182430   0.838   0.697   1.927
27396WAT     H282431   0.866   0.690   1.766
27397WAT      O82432   8.480   7.850   7.657
27397WAT     H182433   8.397   7.826   7.707
27397WAT     H282434   8.481   7.803   7.569
27398WAT      O82435   6.879   3.542   6.163
27398WAT     H182436   6.839   3.584   6.082
27398WAT     H282437   6.969   3.506   6.141
27399WAT      O82438   1.870   0.563   9.435
27399WAT     H182439   1.854   0.523   9.525
27399WAT     H282440   1.807   0.521   9.369
27400WAT      O82441   9.544   0.830   1.892
27400WAT     H182442   9.530   0.926   1.913
27400WAT     H282443   9.618   0.820   1.825
27401WAT      O82444   1.906   5.189   7.098
27401WAT     H182445   1.919   5.094   7.123
27401WAT     H282446   1.987   5.242   7.125
27402WAT      O82447   3.389   1.657   4.504
27402WAT     H182448   3.299   1.700   4.511
27402WAT     H282449   3.428   1.645   4.595
27403WAT      O82450   5.419   4.249   1.994
27403WAT     H182451   5.448   4.338   1.959
27403WAT     H282452   5.499   4.189   2.002
27404WAT      O82453   7.034   7.505   9.495
27404WAT     H182454   7.006   7.589   9.450
27404WAT     H282455   7.080   7.527   9.581
27405WAT      O82456   8.946   8.111   2.597
27405WAT     H182457   8.988   8.108   2.688
27405WAT     H282458   9.018   8.111   2.527
27406WAT      O82459   6.234   5.063   9.743
27406WAT     H182460   6.325   5.069   9.702
27406WAT     H282461   6.167   5.042   9.672
27407WAT      O82462   9.798   6.014   7.540
27407WAT     H182463   9.814   5.944   7.471
27407WAT     H282464   9.704   6.047   7.534
27408WAT      O82465   8.884   2.439   5.761
27408WAT     H182466   8.983   2.426   5.774
27408WAT     H282467   8.849   2.367   5.700
27409WAT      O82468   3.734   8.279   0.384
27409WAT     H182469   3.636   8.260   0.379
27409WAT     H282470   3.785   8.201   0.348
27410WAT      O82471   5.240   3.386   0.803
27410WAT     H182472   5.272   3.301   0.844
27410WAT     H282473   5.307   3.458   0.818
27411WAT      O82474   5.993   5.206   2.043
27411WAT     H182475   6.068   5.186   2.107
27411WAT     H282476   5.932   5.274   2.084
27412WAT      O82477   4.650   3.027   2.086
27412WAT     H182478   4.731   3.072   2.126
27412WAT     H282479   4.680   2.954   2.025
27413WAT      O82480   0.612   5.716   9.337
27413WAT     H182481   0.532   5.670   9.298
27413WAT     H282482   0.587   5.809   9.364
27414WAT      O82483   4.622   1.951   2.429
27414WAT     H182484   4.673   1.925   2.511
27414WAT     H282485   4.531   1.982   2.455
27415WAT      O82486   9.455   7.286   4.105
27415WAT     H182487   9.421   7.218   4.169
27415WAT     H282488   9.507   7.241   4.033
27416WAT      O82489   0.994   2.533   5.289
27416WAT     H182490   0.995   2.433   5.292
27416WAT     H282491   0.939   2.563   5.211
27417WAT      O82492   8.453   1.817   9.342
27417WAT     H182493   8.521   1.890   9.327
27417WAT     H282494   8.389   1.815   9.265
27418WAT      O82495   9.261   7.578   1.953
27418WAT     H182496   9.182   7.629   1.919
27418WAT     H282497   9.271   7.594   2.051
27419WAT      O82498   7.438   8.951   3.043
27419WAT     H182499   7.403   8.872   3.093
27419WAT     H282500   7.537   8.945   3.035
27420WAT      O82501   1.951   0.840   1.236
27420WAT     H182502   1.921   0.917   1.179
27420WAT     H282503   2.013   0.874   1.307
27421WAT      O82504   2.591   8.201   4.497
27421WAT     H182505   2.638   8.171   4.580
27421WAT     H282506   2.496   8.170   4.499
27422WAT      O82507   7.503   5.059   0.442
27422WAT     H182508   7.459   5.096   0.360
27422WAT     H282509   7.502   4.959   0.437
27423WAT      O82510   0.644   3.624   2.947
27423WAT     H182511   0.703   3.685   3.000
27423WAT     H282512   0.633   3.660   2.855
27424WAT      O82513   4.681   6.323   2.563
27424WAT     H182514   4.771   6.362   2.581
27424WAT     H282515   4.690   6.225   2.548
27425WAT      O82516   4.906   4.585   2.202
27425WAT     H182517   4.925   4.515   2.272
27425WAT     H282518   4.957   4.563   2.119
27426WAT      O82519   9.163   7.577   6.889
27426WAT     H182520   9.220   7.549   6.966
27426WAT     H282521   9.221   7.600   6.810
27427WAT      O82522   0.363   3.366   5.145
27427WAT     H182523   0.462   3.370   5.151
27427WAT     H282524   0.332   3.275   5.172
27428WAT      O82525   4.688   1.932   7.732
27428WAT     H182526   4.716   1.854   7.677
27428WAT     H282527   4.627   1.902   7.805
27429WAT      O82528   2.837   8.991   7.005
27429WAT     H182529   2.753   9.008   7.055
27429WAT     H282530   2.865   8.896   7.017
27430WAT      O82531   5.208   5.081   6.204
27430WAT     H182532   5.295   5.104   6.160
27430WAT     H282533   5.218   5.087   6.303
27431WAT      O82534   0.113   9.221   5.422
27431WAT     H182535   0.036   9.165   5.392
27431WAT     H282536   0.193   9.163   5.435
27432WAT      O82537   7.607   4.796   3.935
27432WAT     H182538   7.521   4.847   3.926
27432WAT     H282539   7.595   4.705   3.897
27433WAT      O82540   5.653   8.195   2.743
27433WAT     H182541   5.738   8.198   2.795
27433WAT     H282542   5.656   8.262   2.669
27434WAT      O82543   5.732   8.238   6.452
27434WAT     H182544   5.651   8.197   6.409
27434WAT     H282545   5.805   8.247   6.385
27435WAT      O82546   9.266   1.652   4.228
27435WAT     H182547   9.337   1.584   4.248
27435WAT     H282548   9.293   1.706   4.149
27436WAT      O82549   5.422   3.325   7.939
27436WAT     H182550   5.337   3.343   7.888
27436WAT     H282551   5.404   3.259   8.012
27437WAT      O82552   3.824   0.977   2.264
27437WAT     H182553   3.798   1.073   2.254
27437WAT     H282554   3.802   0.927   2.180
27438WAT      O82555   4.243   2.022   0.266
27438WAT     H182556   4.158   2.041   0.315
27438WAT     H282557   4.302   1.964   0.322
27439WAT      O82558   6.594   7.602   6.356
27439WAT     H182559   6.650   7.525   6.326
27439WAT     H282560   6.616   7.623   6.452
27440WAT      O82561   3.958   1.161   6.289
27440WAT     H182562   3.899   1.084   6.313
27440WAT     H282563   3.957   1.228   6.364
27441WAT      O82564   4.678   6.621   5.388
27441WAT     H182565   4.663   6.590   5.294
27441WAT     H282566   4.734   6.553   5.437
27442WAT      O82567   6.839   8.820   2.016
27442WAT     H182568   6.908   8.802   2.086
27442WAT     H282569   6.884   8.854   1.933
27443WAT      O82570   4.617   5.529   7.251
27443WAT     H182571   4.663   5.440   7.251
27443WAT     H282572   4.521   5.516   7.273
27444WAT      O82573   3.516   0.792   3.136
27444WAT     H182574   3.489   0.853   3.062
27444WAT     H282575   3.495   0.697   3.110
27445WAT      O82576   9.362   2.075   2.265
27445WAT     H182577   9.323   2.050   2.176
27445WAT     H282578   9.406   2.164   2.258
27446WAT      O82579   4.687   7.438   7.464
27446WAT     H182580   4.594   7.419   7.432
27446WAT     H282581   4.696   7.408   7.559
27447WAT      O82582   0.775   9.433   4.891
27447WAT     H182583   0.852   9.420   4.954
27447WAT     H282584   0.786   9.519   4.842
27448WAT      O82585   7.555   0.364   7.315
27448WAT     H182586   7.547   0.342   7.218
27448WAT     H282587   7.619   0.301   7.359
27449WAT      O82588   4.525   6.791   0.636
27449WAT     H182589   4.483   6.719   0.690
27449WAT     H282590   4.564   6.861   0.696
27450WAT      O82591   2.981   1.555   9.088
27450WAT     H182592   3.071   1.517   9.105
27450WAT     H282593   2.919   1.530   9.163
27451WAT      O82594   6.934   4.869   3.695
27451WAT     H182595   6.912   4.964   3.714
27451WAT     H282596   6.886   4.839   3.612
27452WAT      O82597   6.506   0.068   3.548
27452WAT     H182598   6.449   0.101   3.624
27452WAT     H282599   6.453   0.003   3.494
27453WAT      O82600   3.289   5.387   6.079
27453WAT     H182601   3.294   5.476   6.125
27453WAT     H282602   3.231   5.325   6.133
27454WAT      O82603   2.452   3.294   7.539
27454WAT     H182604   2.434   3.326   7.633
27454WAT     H282605   2.548   3.307   7.517
27455WAT      O82606   6.468   2.733   5.267
27455WAT     H182607   6.537   2.711   5.336
27455WAT     H282608   6.512   2.745   5.178
27456WAT      O82609   0.385   0.528   1.032
27456WAT     H182610   0.385   0.610   0.975
27456WAT     H282611   0.440   0.545   1.114
27457WAT      O82612   9.791   2.205   2.183
27457WAT     H182613   9.779   2.108   2.163
27457WAT     H282614   9.740   2.260   2.116
27458WAT      O82615   8.605   2.396   4.787
27458WAT     H182616   8.549   2.334   4.733
27458WAT     H282617   8.678   2.344   4.832
27459WAT      O82618   3.434   0.462   9.770
27459WAT     H182619   3.370   0.441   9.844
27459WAT     H282620   3.387   0.457   9.682
27460WAT      O82621   8.707   1.393   2.359
27460WAT     H182622   8.755   1.459   2.303
27460WAT     H282623   8.622   1.366   2.314
27461WAT      O82624   7.423   1.060   8.441
27461WAT     H182625   7.346   1.124   8.439
27461WAT     H282626   7.492   1.092   8.506
27462WAT      O82627   2.321   6.963   6.129
27462WAT     H182628   2.416   6.932   6.128
27462WAT     H282629   2.281   6.952   6.037
27463WAT      O82630   7.615   6.251   4.896
27463WAT     H182631   7.615   6.312   4.975
27463WAT     H282632   7.705   6.207   4.888
27464WAT      O82633   9.370   4.115   1.800
27464WAT     H182634   9.273   4.139   1.797
27464WAT     H282635   9.380   4.021   1.832
27465WAT      O82636   0.438   7.508   4.235
27465WAT     H182637   0.435   7.413   4.266
27465WAT     H282638   0.531   7.544   4.245
27466WAT      O82639   5.706   4.645   7.801
27466WAT     H182640   5.679   4.655   7.897
27466WAT     H282641   5.723   4.735   7.762
27467WAT      O82642   3.247   6.261   8.741
27467WAT     H182643   3.200   6.297   8.822
27467WAT     H282644   3.257   6.162   8.749
27468WAT      O82645   9.113   0.351   8.457
27468WAT     H182646   9.065   0.423   8.406
27468WAT     H282647   9.104   0.264   8.408
27469WAT      O82648   7.244   5.148   7.344
27469WAT     H182649   7.274   5.168   7.250
27469WAT     H282650   7.323   5.154   7.405
27470WAT      O82651   4.353   9.249   9.536
27470WAT     H182652   4.434   9.225   9.590
27470WAT     H282653   4.287   9.295   9.595
27471WAT      O82654   2.431   2.934   0.174
27471WAT     H182655   2.382   3.005   0.225
27471WAT     H282656   2.501   2.976   0.117
27472WAT      O82657   2.207   1.201   3.341
27472WAT     H182658   2.118   1.169   3.372
27472WAT     H282659   2.241   1.272   3.403
27473WAT      O82660   6.000   0.206   5.563
27473WAT     H182661   5.955   0.169   5.644
27473WAT     H282662   6.065   0.277   5.590
27474WAT      O82663   2.941   5.406   1.376
27474WAT     H182664   2.877   5.359   1.316
27474WAT     H282665   3.014   5.447   1.323
27475WAT      O82666   7.173   7.072   1.338
27475WAT     H182667   7.093   7.043   1.286
27475WAT     H282668   7.216   6.993   1.382
27476WAT      O82669   6.853   5.088   6.291
27476WAT     H182670   6.941   5.070   6.334
27476WAT     H282671   6.779   5.056   6.350
27477WAT      O82672   7.653   7.318   9.427
27477WAT     H182673   7.589   7.313   9.504
27477WAT     H282674   7.728   7.380   9.450
27478WAT      O82675   5.285   1.665   6.529
27478WAT     H182676   5.268   1.651   6.432
27478WAT     H282677   5.207   1.712   6.570
27479WAT      O82678   1.775   4.243   6.448
27479WAT     H182679   1.854   4.182   6.457
27479WAT     H282680   1.700   4.195   6.403
27480WAT      O82681   6.990   9.439   4.490
27480WAT     H182682   6.902   9.478   4.514
27480WAT     H282683   6.977   9.353   4.440
27481WAT      O82684   7.789   4.620   5.134
27481WAT     H182685   7.712   4.683   5.126
27481WAT     H282686   7.838   4.615   5.047
27482WAT      O82687   6.999   8.138   8.078
27482WAT     H182688   7.042   8.223   8.108
27482WAT     H282689   7.016   8.066   8.146
27483WAT      O82690   2.841   6.231   9.034
27483WAT     H182691   2.835   6.199   9.128
27483WAT     H282692   2.756   6.211   8.985
27484WAT      O82693   2.273   3.500   7.430
27484WAT     H182694   2.308   3.413   7.464
27484WAT     H282695   2.349   3.555   7.396
27485WAT      O82696   5.294   2.162   2.284
27485WAT     H182697   5.288   2.062   2.282
27485WAT     H282698   5.285   2.194   2.378
27486WAT      O82699   8.288   9.338   0.585
27486WAT     H182700   8.328   9.361   0.673
27486WAT     H282701   8.206   9.393   0.570
27487WAT      O82702   3.156   7.189   9.276
27487WAT     H182703   3.242   7.137   9.268
27487WAT     H282704   3.079   7.125   9.280
27488WAT      O82705   9.494   8.980   7.238
27488WAT     H182706   9.448   9.066   7.217
27488WAT     H282707   9.591   8.997   7.255
27489WAT      O82708   0.224   9.729   3.839
27489WAT     H182709   0.301   9.774   3.883
27489WAT     H282710   0.179   9.668   3.904
27490WAT      O82711   7.195   9.365   4.121
27490WAT     H182712   7.202   9.461   4.097
27490WAT     H282713   7.258   9.311   4.065
27491WAT      O82714   4.401   1.417   6.646
27491WAT     H182715   4.330   1.392   6.581
27491WAT     H282716   4.415   1.342   6.711
27492WAT      O82717   6.001   2.387   5.119
27492WAT     H182718   6.055   2.305   5.097
27492WAT     H282719   6.033   2.426   5.205
27493WAT      O82720   7.449   8.923   5.445
27493WAT     H182721   7.420   8.936   5.350
27493WAT     H282722   7.388   8.974   5.506
27494WAT      O82723   9.778   4.723   1.394
27494WAT     H182724   9.711   4.793   1.419
27494WAT     H282725   9.812   4.741   1.302
27495WAT      O82726   5.345   1.089   8.363
27495WAT     H182727   5.386   1.044   8.443
27495WAT     H282728   5.325   1.021   8.293
27496WAT      O82729   0.254   1.180   7.691
27496WAT     H182730   0.196   1.207   7.614
27496WAT     H282731   0.239   1.083   7.712
27497WAT      O82732   2.307   2.735   5.613
27497WAT     H182733   2.309   2.777   5.704
27497WAT     H282734   2.320   2.806   5.544
27498WAT      O82735   3.402   7.100   3.860
27498WAT     H182736   3.398   7.200   3.853
27498WAT     H282737   3.483   7.073   3.912
27499WAT      O82738   0.427   3.856   7.555
27499WAT     H182739   0.408   3.951   7.581
27499WAT     H282740   0.523   3.846   7.529
27500WAT      O82741   2.067   8.712   7.849
27500WAT     H182742   2.094   8.668   7.763
27500WAT     H282743   2.143   8.767   7.885
27501WAT      O82744   1.751   6.509   5.379
27501WAT     H182745   1.689   6.553   5.314
27501WAT     H282746   1.824   6.572   5.404
27502WAT      O82747   6.188   2.169   0.175
27502WAT     H182748   6.141   2.211   0.097
27502WAT     H282749   6.135   2.091   0.207
27503WAT      O82750   0.154   5.406   4.846
27503WAT     H182751   0.160   5.339   4.771
27503WAT     H282752   0.234   5.466   4.842
27504WAT      O82753   5.576   4.405   2.889
27504WAT     H182754   5.541   4.353   2.966
27504WAT     H282755   5.629   4.483   2.922
27505WAT      O82756   7.776   1.715   2.855
27505WAT     H182757   7.841   1.773   2.807
27505WAT     H282758   7.733   1.767   2.929
27506WAT      O82759   0.108   5.089   3.443
27506WAT     H182760   0.196   5.136   3.440
27506WAT     H282761   0.036   5.152   3.412
27507WAT      O82762   1.272   9.469   5.446
27507WAT     H182763   1.357   9.420   5.423
27507WAT     H282764   1.289   9.532   5.522
27508WAT      O82765   8.956   3.698   2.667
27508WAT     H182766   9.025   3.696   2.739
27508WAT     H282767   8.940   3.605   2.633
27509WAT      O82768   3.182   0.343   6.577
27509WAT     H182769   3.159   0.378   6.486
27509WAT     H282770   3.158   0.412   6.646
27510WAT      O82771   1.945   2.818   0.602
27510WAT     H182772   1.977   2.890   0.540
27510WAT     H282773   1.933   2.733   0.551
27511WAT      O82774   0.065   9.238   7.826
27511WAT     H182775   0.050   9.314   7.762
27511WAT     H282776   0.120   9.270   7.903
27512WAT      O82777   4.561   1.700   1.129
27512WAT     H182778   4.498   1.623   1.134
27512WAT     H282779   4.543   1.753   1.047
27513WAT      O82780   0.683   9.304   5.252
27513WAT     H182781   0.677   9.323   5.154
27513WAT     H282782   0.595   9.322   5.295
27514WAT      O82783   2.903   5.115   2.908
27514WAT     H182784   2.973   5.054   2.944
27514WAT     H282785   2.936   5.158   2.824
27515WAT      O82786   8.442   2.255   8.707
27515WAT     H182787   8.527   2.286   8.751
27515WAT     H282788   8.445   2.156   8.695
27516WAT      O82789   7.665   6.948   5.514
27516WAT     H182790   7.743   6.941   5.451
27516WAT     H282791   7.664   6.868   5.574
27517WAT      O82792   3.671   4.402   5.622
27517WAT     H182793   3.609   4.330   5.652
27517WAT     H282794   3.753   4.361   5.582
27518WAT      O82795   2.408   6.081   0.692
27518WAT     H182796   2.464   5.999   0.684
27518WAT     H282797   2.381   6.095   0.788
27519WAT      O82798   0.390   7.115   9.720
27519WAT     H182799   0.347   7.080   9.804
27519WAT     H282800   0.412   7.212   9.732
27520WAT      O82801   9.508   4.213   6.338
27520WAT     H182802   9.533   4.296   6.287
27520WAT     H282803   9.590   4.176   6.382
27521WAT      O82804   2.754   6.749   4.710
27521WAT     H182805   2.661   6.779   4.730
27521WAT     H282806   2.783   6.787   4.622
27522WAT      O82807   0.882   9.060   3.551
27522WAT     H182808   0.919   9.133   3.608
27522WAT     H282809   0.871   8.977   3.606
27523WAT      O82810   0.229   6.166   2.519
27523WAT     H182811   0.309   6.226   2.520
27523WAT     H282812   0.257   6.072   2.540
27524WAT      O82813   6.184   2.963   7.777
27524WAT     H182814   6.221   2.940   7.687
27524WAT     H282815   6.226   3.048   7.810
27525WAT      O82816   0.379   8.469   3.537
27525WAT     H182817   0.392   8.396   3.604
27525WAT     H282818   0.439   8.546   3.559
27526WAT      O82819   5.492   8.972   7.375
27526WAT     H182820   5.567   8.929   7.426
27526WAT     H282821   5.411   8.914   7.379
27527WAT      O82822   2.996   5.971   6.308
27527WAT     H182823   2.996   6.070   6.292
27527WAT     H282824   3.048   5.925   6.236
27528WAT      O82825   4.568   3.593   5.043
27528WAT     H182826   4.548   3.653   4.966
27528WAT     H282827   4.485   3.580   5.098
27529WAT      O82828   9.382   6.084   7.297
27529WAT     H182829   9.292   6.127   7.298
27529WAT     H282830   9.382   6.007   7.233
27530WAT      O82831   6.043   7.844   5.254
27530WAT     H182832   6.112   7.912   5.229
27530WAT     H282833   6.083   7.753   5.251
27531WAT      O82834   8.635   5.166   8.732
27531WAT     H182835   8.628   5.068   8.712
27531WAT     H282836   8.573   5.190   8.806
27532WAT      O82837   2.381   1.897   5.753
27532WAT     H182838   2.463   1.857   5.712
27532WAT     H282839   2.373   1.993   5.727
27533WAT      O82840   2.665   2.602   1.573
27533WAT     H182841   2.675   2.542   1.653
27533WAT     H282842   2.591   2.568   1.516
27534WAT      O82843   9.693   0.109   3.678
27534WAT     H182844   9.787   0.093   3.648
27534WAT     H282845   9.658   0.027   3.724
27535WAT      O82846   5.271   1.903   3.897
27535WAT     H182847   5.269   1.874   3.802
27535WAT     H282848   5.308   1.830   3.954
27536WAT      O82849   4.472   8.939   5.487
27536WAT     H182850   4.464   8.851   5.441
27536WAT     H282851   4.559   8.944   5.535
27537WAT      O82852   0.251   5.500   0.405
27537WAT     H182853   0.319   5.514   0.477
27537WAT     H282854   0.171   5.556   0.424
27538WAT      O82855   0.468   8.721   8.960
27538WAT     H182856   0.423   8.635   8.938
27538WAT     H282857   0.450   8.788   8.888
27539WAT      O82858   0.608   3.722   8.258
27539WAT     H182859   0.602   3.784   8.336
27539WAT     H282860   0.539   3.650   8.268
27540WAT      O82861   8.653   6.508   2.857
27540WAT     H182862   8.591   6.566   2.910
27540WAT     H282863   8.718   6.565   2.807
27541WAT      O82864   4.672   3.154   1.663
27541WAT     H182865   4.762   3.120   1.690
27541WAT     H282866   4.601   3.101   1.709
27542WAT      O82867   8.364   7.589   4.880
27542WAT     H182868   8.319   7.665   4.832
27542WAT     H282869   8.326   7.582   4.973
27543WAT      O82870   2.060   9.032   3.791
27543WAT     H182871   2.080   8.993   3.881
27543WAT     H282872   2.047   8.959   3.724
27544WAT      O82873   1.694   8.687   6.973
27544WAT     H182874   1.791   8.674   6.953
27544WAT     H282875   1.683   8.716   7.068
27545WAT      O82876   6.321   7.508   4.640
27545WAT     H182877   6.264   7.582   4.675
27545WAT     H282878   6.402   7.498   4.698
27546WAT      O82879   3.727   5.705   5.647
27546WAT     H182880   3.823   5.702   5.621
27546WAT     H282881   3.675   5.757   5.580
27547WAT      O82882   0.393   3.507   2.954
27547WAT     H182883   0.393   3.453   2.870
27547WAT     H282884   0.485   3.541   2.973
27548WAT      O82885   6.932   2.809   3.227
27548WAT     H182886   6.850   2.764   3.192
27548WAT     H282887   6.971   2.753   3.301
27549WAT      O82888   5.201   8.274   3.605
27549WAT     H182889   5.177   8.222   3.523
27549WAT     H282890   5.150   8.360   3.606
27550WAT      O82891   3.383   1.744   3.332
27550WAT     H182892   3.470   1.783   3.301
27550WAT     H282893   3.373   1.759   3.430
27551WAT      O82894   3.989   6.865   3.254
27551WAT     H182895   3.903   6.868   3.202
27551WAT     H282896   3.986   6.934   3.326
27552WAT      O82897   8.787   6.945   3.561
27552WAT     H182898   8.788   7.026   3.618
27552WAT     H282899   8.724   6.959   3.484
27553WAT      O82900   4.956   5.238   9.760
27553WAT     H182901   4.922   5.293   9.837
27553WAT     H282902   4.920   5.145   9.768
27554WAT      O82903   9.431   8.518   9.814
27554WAT     H182904   9.334   8.520   9.790
27554WAT     H282905   9.441   8.516   9.913
27555WAT      O82906   7.812   6.202   1.820
27555WAT     H182907   7.764   6.257   1.889
27555WAT     H282908   7.909   6.196   1.843
27556WAT      O82909   2.618   9.710   8.484
27556WAT     H182910   2.689   9.773   8.455
27556WAT     H282911   2.593   9.650   8.408
27557WAT      O82912   9.104   7.442   0.600
27557WAT     H182913   9.123   7.537   0.623
27557WAT     H282914   9.107   7.386   0.682
27558WAT      O82915   1.808   9.007   5.212
27558WAT     H182916   1.767   9.033   5.125
27558WAT     H282917   1.875   9.077   5.240
27559WAT      O82918   3.365   4.385   4.002
27559WAT     H182919   3.292   4.412   3.939
27559WAT     H282920   3.327   4.332   4.077
27560WAT      O82921   6.946   4.102   5.516
27560WAT     H182922   7.045   4.108   5.501
27560WAT     H282923   6.903   4.188   5.491
27561WAT      O82924   7.496   3.595   5.435
27561WAT     H182925   7.408   3.582   5.480
27561WAT     H282926   7.564   3.533   5.473
27562WAT      O82927   3.142   9.256   9.421
27562WAT     H182928   3.146   9.291   9.327
27562WAT     H282929   3.056   9.286   9.463
27563WAT      O82930   4.913   5.690   1.320
27563WAT     H182931   4.883   5.785   1.324
27563WAT     H282932   5.013   5.687   1.314
27564WAT      O82933   6.956   3.527   7.945
27564WAT     H182934   7.039   3.484   7.981
27564WAT     H282935   6.943   3.616   7.988
27565WAT      O82936   8.806   5.300   6.962
27565WAT     H182937   8.720   5.338   6.926
27565WAT     H282938   8.877   5.306   6.892
27566WAT      O82939   1.943   0.924   0.648
27566WAT     H182940   1.928   0.984   0.570
27566WAT     H282941   2.041   0.903   0.655
27567WAT      O82942   6.604   5.009   9.889
27567WAT     H182943   6.609   4.909   9.882
27567WAT     H282944   6.548   5.045   9.814
27568WAT      O82945   4.051   6.070   6.056
27568WAT     H182946   4.081   5.977   6.078
27568WAT     H282947   4.042   6.079   5.957
27569WAT      O82948   2.114   7.864   7.379
27569WAT     H182949   2.098   7.879   7.477
27569WAT     H282950   2.210   7.880   7.358
27570WAT      O82951   5.684   2.800   1.666
27570WAT     H182952   5.665   2.898   1.668
27570WAT     H282953   5.778   2.783   1.695
27571WAT      O82954   3.488   5.471   4.949
27571WAT     H182955   3.520   5.515   4.865
27571WAT     H282956   3.488   5.538   5.024
27572WAT      O82957   1.794   4.829   0.374
27572WAT     H182958   1.772   4.735   0.350
27572WAT     H282959   1.715   4.888   0.359
27573WAT      O82960   2.582   8.983   5.734
27573WAT     H182961   2.658   9.028   5.782
27573WAT     H282962   2.567   9.028   5.646
27574WAT      O82963   3.380   9.025   0.250
27574WAT     H182964   3.357   8.988   0.160
27574WAT     H282965   3.375   8.952   0.318
27575WAT      O82966   5.057   9.253   0.874
27575WAT     H182967   5.122   9.321   0.908
27575WAT     H282968   5.103   9.192   0.809
27576WAT      O82969   2.366   5.248   1.574
27576WAT     H182970   2.454   5.259   1.621
27576WAT     H282971   2.363   5.309   1.495
27577WAT      O82972   0.084   1.157   4.231
27577WAT     H182973   0.051   1.226   4.167
27577WAT     H282974   0.160   1.106   4.189
27578WAT      O82975   9.201   1.995   9.192
27578WAT     H182976   9.261   2.049   9.133
27578WAT     H282977   9.106   2.023   9.179
27579WAT      O82978   4.103   8.285   0.552
27579WAT     H182979   4.187   8.339   0.553
27579WAT     H282980   4.025   8.346   0.540
27580WAT      O82981   7.741   5.432   6.087
27580WAT     H182982   7.814   5.383   6.136
27580WAT     H282983   7.738   5.400   5.992
27581WAT      O82984   0.023   8.456   0.457
27581WAT     H182985   0.102   8.503   0.498
27581WAT     H282986   0.033   8.357   0.470
27582WAT      O82987   3.139   7.631   9.211
27582WAT     H182988   3.095   7.720   9.222
27582WAT     H282989   3.228   7.644   9.166
27583WAT      O82990   6.411   9.643   5.669
27583WAT     H182991   6.458   9.569   5.717
27583WAT     H282992   6.389   9.614   5.576
27584WAT      O82993   6.027   5.815   9.314
27584WAT     H182994   6.006   5.720   9.288
27584WAT     H282995   6.126   5.827   9.321
27585WAT      O82996   2.746   1.071   2.505
27585WAT     H182997   2.688   1.060   2.586
27585WAT     H282998   2.754   1.169   2.484
27586WAT      O82999   3.453   8.157   9.098
27586WAT     H183000   3.466   8.108   9.012
27586WAT     H283001   3.360   8.143   9.131
27587WAT      O83002   3.584   0.917   5.622
27587WAT     H183003   3.614   0.925   5.527
27587WAT     H283004   3.635   0.843   5.667
27588WAT      O83005   3.043   1.435   7.113
27588WAT     H183006   2.982   1.377   7.059
27588WAT     H283007   2.997   1.462   7.197
27589WAT      O83008   1.941   3.471   7.293
27589WAT     H183009   2.012   3.401   7.286
27589WAT     H283010   1.936   3.505   7.387
27590WAT      O83011   5.832   5.344   5.029
27590WAT     H183012   5.922   5.332   4.987
27590WAT     H283013   5.842   5.393   5.115
27591WAT      O83014   7.224   2.641   0.767
27591WAT     H183015   7.295   2.711   0.755
27591WAT     H283016   7.135   2.685   0.774
27592WAT      O83017   1.013   0.848   0.624
27592WAT     H183018   1.006   0.937   0.580
27592WAT     H283019   0.956   0.847   0.706
27593WAT      O83020   3.813   1.363   5.961
27593WAT     H183021   3.753   1.364   6.041
27593WAT     H283022   3.820   1.270   5.926
27594WAT      O83023   7.174   8.340   6.960
27594WAT     H183024   7.237   8.414   6.937
27594WAT     H283025   7.126   8.363   7.044
27595WAT      O83026   8.423   3.894   7.341
27595WAT     H183027   8.441   3.969   7.406
27595WAT     H283028   8.508   3.868   7.296
27596WAT      O83029   7.507   8.707   9.355
27596WAT     H183030   7.519   8.640   9.428
27596WAT     H283031   7.466   8.791   9.393
27597WAT      O83032   2.561   7.097   9.725
27597WAT     H183033   2.581   7.149   9.642
27597WAT     H283034   2.555   7.160   9.803
27598WAT      O83035   7.556   0.187   5.549
27598WAT     H183036   7.627   0.257   5.554
27598WAT     H283037   7.480   0.213   5.610
27599WAT      O83038   1.997   7.610   7.623
27599WAT     H183039   1.988   7.583   7.719
27599WAT     H283040   2.038   7.701   7.618
27600WAT      O83041   2.153   4.054   0.960
27600WAT     H183042   2.201   4.138   0.938
27600WAT     H283043   2.199   3.977   0.915
27601WAT      O83044   0.055   9.068   3.400
27601WAT     H183045   0.011   9.113   3.323
27601WAT     H283046   0.025   9.111   3.485
27602WAT      O83047   4.435   1.212   6.841
27602WAT     H183048   4.481   1.125   6.823
27602WAT     H283049   4.350   1.194   6.891
27603WAT      O83050   1.331   7.201   9.138
27603WAT     H183051   1.364   7.266   9.069
27603WAT     H283052   1.402   7.186   9.206
27604WAT      O83053   0.804   7.634   9.708
27604WAT     H183054   0.842   7.724   9.687
27604WAT     H283055   0.705   7.637   9.697
27605WAT      O83056   7.832   8.654   6.591
27605WAT     H183057   7.905   8.621   6.650
27605WAT     H283058   7.804   8.746   6.621
27606WAT      O83059   1.562   8.198   3.081
27606WAT     H183060   1.510   8.183   3.165
27606WAT     H283061   1.559   8.115   3.025
27607WAT      O83062   5.387   3.696   1.367
27607WAT     H183063   5.297   3.672   1.404
27607WAT     H283064   5.422   3.621   1.312
27608WAT      O83065   0.650   8.854   6.860
27608WAT     H183066   0.744   8.885   6.842
27608WAT     H283067   0.625   8.784   6.793
27609WAT      O83068   9.305   3.827   6.384
27609WAT     H183069   9.289   3.916   6.343
27609WAT     H283070   9.313   3.836   6.483
27610WAT      O83071   2.000   1.953   4.120
27610WAT     H183072   1.941   2.024   4.082
27610WAT     H283073   1.956   1.911   4.199
27611WAT      O83074   2.603   8.516   3.596
27611WAT     H183075   2.604   8.609   3.559
27611WAT     H283076   2.509   8.482   3.598
27612WAT      O83077   5.738   3.389   4.677
27612WAT     H183078   5.721   3.466   4.739
27612WAT     H283079   5.817   3.410   4.620
27613WAT      O83080   2.955   3.521   9.249
27613WAT     H183081   3.009   3.457   9.194
27613WAT     H283082   2.964   3.613   9.211
27614WAT      O83083   6.695   8.881   1.480
27614WAT     H183084   6.622   8.815   1.499
27614WAT     H283085   6.672   8.933   1.397
27615WAT      O83086   1.674   7.181   2.338
27615WAT     H183087   1.712   7.110   2.280
27615WAT     H283088   1.623   7.246   2.282
27616WAT      O83089   8.086   1.333   9.712
27616WAT     H183090   8.147   1.259   9.743
27616WAT     H283091   8.114   1.419   9.754
27617WAT      O83092   3.235   7.589   9.461
27617WAT     H183093   3.212   7.605   9.365
27617WAT     H283094   3.259   7.493   9.474
27618WAT      O83095   0.593   4.628   4.487
27618WAT     H183096   0.615   4.531   4.492
27618WAT     H283097   0.636   4.668   4.406
27619WAT      O83098   5.467   7.676   4.922
27619WAT     H183099   5.387   7.689   4.863
27619WAT     H283100   5.436   7.652   5.015
27620WAT      O83101   1.348   8.930   3.906
27620WAT     H183102   1.444   8.952   3.885
27620WAT     H283103   1.345   8.845   3.958
27621WAT      O83104   3.312   3.852   3.953
27621WAT     H183105   3.355   3.771   3.911
27621WAT     H283106   3.225   3.825   3.993
27622WAT      O83107   5.482   8.541   8.741
27622WAT     H183108   5.481   8.459   8.798
27622WAT     H283109   5.407   8.537   8.676
27623WAT      O83110   6.718   4.367   4.527
27623WAT     H183111   6.792   4.424   4.561
27623WAT     H283112   6.696   4.393   4.433
27624WAT      O83113   0.599   3.142   3.283
27624WAT     H183114   0.582   3.057   3.332
27624WAT     H283115   0.513   3.194   3.275
27625WAT      O83116   2.547   7.399   0.277
27625WAT     H183117   2.573   7.393   0.373
27625WAT     H283118   2.479   7.471   0.265
27626WAT      O83119   7.107   3.261   7.564
27626WAT     H183120   7.109   3.352   7.522
27626WAT     H283121   7.113   3.192   7.492
27627WAT      O83122   8.005   4.848   5.275
27627WAT     H183123   7.905   4.852   5.287
27627WAT     H283124   8.026   4.803   5.189
27628WAT      O83125   1.937   8.427   0.465
27628WAT     H183126   2.020   8.425   0.520
27628WAT     H283127   1.865   8.376   0.511
27629WAT      O83128   3.642   1.296   1.974
27629WAT     H183129   3.729   1.258   1.943
27629WAT     H283130   3.585   1.320   1.894
27630WAT      O83131   6.827   5.882   8.566
27630WAT     H183132   6.794   5.820   8.638
27630WAT     H283133   6.921   5.857   8.543
27631WAT      O83134   5.288   6.782   3.935
27631WAT     H183135   5.377   6.755   3.898
27631WAT     H283136   5.219   6.717   3.904
27632WAT      O83137   4.879   2.456   8.374
27632WAT     H183138   4.881   2.477   8.277
27632WAT     H283139   4.798   2.402   8.395
27633WAT      O83140   9.761   6.001   0.475
27633WAT     H183141   9.847   5.950   0.477
27633WAT     H283142   9.691   5.951   0.526
27634WAT      O83143   5.031   3.649   0.228
27634WAT     H183144   5.096   3.695   0.167
27634WAT     H283145   4.997   3.566   0.184
27635WAT      O83146   9.476   0.113   8.425
27635WAT     H183147   9.432   0.051   8.490
27635WAT     H283148   9.523   0.059   8.355
27636WAT      O83149   5.069   2.407   4.450
27636WAT     H183150   5.141   2.451   4.397
27636WAT     H283151   5.083   2.426   4.547
27637WAT      O83152   2.946   4.455   7.225
27637WAT     H183153   3.040   4.486   7.207
27637WAT     H283154   2.882   4.529   7.207
27638WAT      O83155   6.595   9.717   9.369
27638WAT     H183156   6.609   9.765   9.283
27638WAT     H283157   6.512   9.752   9.414
27639WAT      O83158   4.743   6.447   6.189
27639WAT     H183159   4.687   6.530   6.197
27639WAT     H283160   4.744   6.398   6.276
27640WAT      O83161   5.608   1.687   9.329
27640WAT     H183162   5.676   1.737   9.383
27640WAT     H283163   5.622   1.707   9.232
27641WAT      O83164   4.670   8.344   1.228
27641WAT     H183165   4.673   8.438   1.194
27641WAT     H283166   4.762   8.305   1.228
27642WAT      O83167   3.687   5.326   7.852
27642WAT     H183168   3.749   5.288   7.919
27642WAT     H283169   3.735   5.393   7.796
27643WAT      O83170   3.809   6.385   2.757
27643WAT     H183171   3.742   6.320   2.793
27643WAT     H283172   3.778   6.420   2.668
27644WAT      O83173   2.276   1.863   4.536
27644WAT     H183174   2.247   1.955   4.562
27644WAT     H283175   2.199   1.800   4.546
27645WAT      O83176   5.788   5.126   0.661
27645WAT     H183177   5.819   5.099   0.752
27645WAT     H283178   5.692   5.153   0.665
27646WAT      O83179   1.020   2.499   9.063
27646WAT     H183180   1.098   2.554   9.093
27646WAT     H283181   0.935   2.549   9.080
27647WAT      O83182   4.546   4.457   7.549
27647WAT     H183183   4.500   4.519   7.485
27647WAT     H283184   4.481   4.423   7.616
27648WAT      O83185   3.476   2.045   3.293
27648WAT     H183186   3.415   2.114   3.253
27648WAT     H283187   3.513   1.987   3.221
27649WAT      O83188   9.505   0.588   5.199
27649WAT     H183189   9.529   0.539   5.283
27649WAT     H283190   9.485   0.522   5.127
27650WAT      O83191   3.972   5.530   6.154
27650WAT     H183192   4.006   5.524   6.060
27650WAT     H283193   4.017   5.462   6.211
27651WAT      O83194   6.919   8.660   0.726
27651WAT     H183195   6.980   8.611   0.663
27651WAT     H283196   6.890   8.746   0.684
27652WAT      O83197   5.881   5.764   3.146
27652WAT     H183198   5.901   5.706   3.225
27652WAT     H283199   5.864   5.707   3.066
27653WAT      O83200   1.815   2.853   1.152
27653WAT     H183201   1.814   2.805   1.064
27653WAT     H283202   1.886   2.923   1.151
27654WAT      O83203   4.411   4.252   6.090
27654WAT     H183204   4.491   4.192   6.079
27654WAT     H283205   4.356   4.249   6.006
27655WAT      O83206   9.356   9.756   1.496
27655WAT     H183207   9.274   9.709   1.463
27655WAT     H283208   9.391   9.815   1.424
27656WAT      O83209   2.310   0.998   9.069
27656WAT     H183210   2.276   1.072   9.126
27656WAT     H283211   2.344   1.035   8.983
27657WAT      O83212   9.450   7.585   0.621
27657WAT     H183213   9.433   7.626   0.711
27657WAT     H283214   9.548   7.571   0.609
27658WAT      O83215   7.131   4.378   9.669
27658WAT     H183216   7.032   4.365   9.659
27658WAT     H283217   7.152   4.402   9.763
27659WAT      O83218   4.306   4.200   5.577
27659WAT     H183219   4.354   4.282   5.544
27659WAT     H283220   4.362   4.155   5.646
27660WAT      O83221   7.274   3.606   1.846
27660WAT     H183222   7.309   3.618   1.753
27660WAT     H283223   7.347   3.575   1.906
27661WAT      O83224   8.041   2.972   2.025
27661WAT     H183225   8.009   3.009   2.112
27661WAT     H283226   8.124   3.019   1.996
27662WAT      O83227   3.360   0.810   5.557
27662WAT     H183228   3.342   0.837   5.463
27662WAT     H283229   3.446   0.850   5.588
27663WAT      O83230   4.367   7.222   8.884
27663WAT     H183231   4.443   7.285   8.900
27663WAT     H283232   4.392   7.156   8.814
27664WAT      O83233   0.845   4.217   7.752
27664WAT     H183234   0.927   4.162   7.738
27664WAT     H283235   0.808   4.243   7.663
27665WAT      O83236   2.375   5.966   5.385
27665WAT     H183237   2.352   5.975   5.482
27665WAT     H283238   2.429   6.045   5.356
27666WAT      O83239   4.808   1.041   5.671
27666WAT     H183240   4.830   0.967   5.734
27666WAT     H283241   4.709   1.050   5.662
27667WAT      O83242   4.893   1.741   1.695
27667WAT     H183243   4.798   1.745   1.727
27667WAT     H283244   4.945   1.818   1.734
27668WAT      O83245   6.362   7.746   4.388
27668WAT     H183246   6.374   7.780   4.295
27668WAT     H283247   6.401   7.654   4.394
27669WAT      O83248   9.529   2.481   1.703
27669WAT     H183249   9.461   2.416   1.736
27669WAT     H283250   9.588   2.436   1.636
27670WAT      O83251   7.290   1.614   3.935
27670WAT     H183252   7.312   1.686   3.869
27670WAT     H283253   7.374   1.570   3.965
27671WAT      O83254   5.680   9.105   7.232
27671WAT     H183255   5.714   9.021   7.189
27671WAT     H283256   5.608   9.082   7.297
27672WAT      O83257   9.307   5.046   1.668
27672WAT     H183258   9.385   5.106   1.653
27672WAT     H283259   9.263   5.025   1.580
27673WAT      O83260   5.266   0.922   2.630
27673WAT     H183261   5.318   0.995   2.672
27673WAT     H283262   5.184   0.903   2.684
27674WAT      O83263   8.824   9.116   3.200
27674WAT     H183264   8.895   9.186   3.204
27674WAT     H283265   8.796   9.102   3.105
27675WAT      O83266   0.898   7.162   2.165
27675WAT     H183267   0.826   7.193   2.228
27675WAT     H283268   0.883   7.067   2.141
27676WAT      O83269   8.255   4.974   3.415
27676WAT     H183270   8.353   4.971   3.435
27676WAT     H283271   8.210   4.897   3.459
27677WAT      O83272   2.876   6.946   5.999
27677WAT     H183273   2.942   7.013   5.965
27677WAT     H283274   2.915   6.854   5.992
27678WAT      O83275   4.120   4.240   7.377
27678WAT     H183276   4.219   4.241   7.363
27678WAT     H283277   4.094   4.157   7.427
27679WAT      O83278   7.425   3.286   4.930
27679WAT     H183279   7.326   3.296   4.924
27679WAT     H283280   7.468   3.376   4.936
27680WAT      O83281   1.207   0.869   3.337
27680WAT     H183282   1.115   0.867   3.297
27680WAT     H283283   1.245   0.961   3.328
27681WAT      O83284   1.916   6.647   7.118
27681WAT     H183285   1.829   6.602   7.141
27681WAT     H283286   1.987   6.578   7.109
27682WAT      O83287   0.438   9.056   4.788
27682WAT     H183288   0.525   9.026   4.748
27682WAT     H283289   0.382   9.099   4.717
27683WAT      O83290   3.786   8.459   2.142
27683WAT     H183291   3.862   8.482   2.081
27683WAT     H283292   3.816   8.390   2.207
27684WAT      O83293   1.479   9.828   5.400
27684WAT     H183294   1.386   9.867   5.398
27684WAT     H283295   1.512   9.826   5.494
27685WAT      O83296   2.002   0.155   0.259
27685WAT     H183297   2.101   0.166   0.249
27685WAT     H283298   1.962   0.131   0.171
27686WAT      O83299   0.509   3.618   7.056
27686WAT     H183300   0.487   3.706   7.099
27686WAT     H283301   0.607   3.602   7.062
27687WAT      O83302   1.259   7.653   0.605
27687WAT     H183303   1.337   7.604   0.643
27687WAT     H283304   1.199   7.589   0.557
27688WAT      O83305   8.048   9.805   7.434
27688WAT     H183306   8.053   9.827   7.531
27688WAT     H283307   8.131   9.757   7.406
27689WAT      O83308   3.354   3.801   6.721
27689WAT     H183309   3.446   3.820   6.686
27689WAT     H283310   3.292   3.876   6.697
27690WAT      O83311   8.624   2.365   6.488
27690WAT     H183312   8.551   2.297   6.495
27690WAT     H283313   8.679   2.346   6.407
27691WAT      O83314   0.792   2.000   4.771
27691WAT     H183315   0.796   2.033   4.677
27691WAT     H283316   0.799   1.900   4.773
27692WAT      O83317   4.755   4.260   3.260
27692WAT     H183318   4.753   4.181   3.199
27692WAT     H283319   4.843   4.264   3.306
27693WAT      O83320   2.569   3.982   4.986
27693WAT     H183321   2.615   4.052   5.041
27693WAT     H283322   2.541   4.021   4.899
27694WAT      O83323   4.299   8.882   7.894
27694WAT     H183324   4.205   8.864   7.865
27694WAT     H283325   4.362   8.845   7.826
27695WAT      O83326   8.256   8.667   8.280
27695WAT     H183327   8.239   8.591   8.343
27695WAT     H283328   8.338   8.717   8.308
27696WAT      O83329   1.008   5.034   2.427
27696WAT     H183330   1.092   5.010   2.477
27696WAT     H283331   0.999   4.973   2.348
27697WAT      O83332   1.808   4.586   7.469
27697WAT     H183333   1.711   4.564   7.462
27697WAT     H283334   1.829   4.619   7.561
27698WAT      O83335   1.287   1.364   5.774
27698WAT     H183336   1.263   1.268   5.789
27698WAT     H283337   1.241   1.421   5.842
27699WAT      O83338   2.922   6.762   1.889
27699WAT     H183339   2.928   6.780   1.988
27699WAT     H283340   2.834   6.721   1.868
27700WAT      O83341   6.547   3.762   3.179
27700WAT     H183342   6.646   3.761   3.164
27700WAT     H283343   6.507   3.841   3.132
27701WAT      O83344   8.122   3.436   0.139
27701WAT     H183345   8.027   3.467   0.138
27701WAT     H283346   8.125   3.336   0.147
27702WAT      O83347   1.936   1.887   9.404
27702WAT     H183348   1.872   1.835   9.348
27702WAT     H283349   1.886   1.950   9.464
27703WAT      O83350   8.971   9.420   6.551
27703WAT     H183351   9.053   9.462   6.590
27703WAT     H283352   8.962   9.326   6.586
27704WAT      O83353   7.323   9.771   9.837
27704WAT     H183354   7.262   9.697   9.864
27704WAT     H283355   7.280   9.859   9.855
27705WAT      O83356   5.605   7.735   0.346
27705WAT     H183357   5.568   7.826   0.364
27705WAT     H283358   5.597   7.678   0.428
27706WAT      O83359   6.726   6.437   0.699
27706WAT     H183360   6.762   6.345   0.681
27706WAT     H283361   6.689   6.441   0.792
27707WAT      O83362   5.555   6.865   7.335
27707WAT     H183363   5.480   6.822   7.384
27707WAT     H283364   5.567   6.821   7.246
27708WAT      O83365   9.119   8.412   6.502
27708WAT     H183366   9.031   8.437   6.542
27708WAT     H283367   9.173   8.494   6.485
27709WAT      O83368   0.854   9.565   8.653
27709WAT     H183369   0.865   9.559   8.752
27709WAT     H283370   0.844   9.474   8.615
27710WAT      O83371   2.912   3.499   4.692
27710WAT     H183372   2.825   3.526   4.734
27710WAT     H283373   2.954   3.578   4.648
27711WAT      O83374   2.369   9.700   2.301
27711WAT     H183375   2.279   9.705   2.256
27711WAT     H283376   2.413   9.614   2.277
27712WAT      O83377   7.989   7.258   3.039
27712WAT     H183378   8.069   7.274   3.097
27712WAT     H283379   7.909   7.301   3.080
27713WAT      O83380   3.293   9.322   4.500
27713WAT     H183381   3.249   9.369   4.423
27713WAT     H283382   3.230   9.255   4.538
27714WAT      O83383   1.091   6.177   5.056
27714WAT     H183384   1.025   6.251   5.073
27714WAT     H283385   1.057   6.119   4.983
27715WAT      O83386   9.803   7.381   7.141
27715WAT     H183387   9.830   7.364   7.046
27715WAT     H283388   9.872   7.439   7.185
27716WAT      O83389   2.344   7.881   8.332
27716WAT     H183390   2.380   7.970   8.359
27716WAT     H283391   2.350   7.818   8.409
27717WAT      O83392   2.519   0.143   3.457
27717WAT     H183393   2.576   0.194   3.393
27717WAT     H283394   2.428   0.185   3.460
27718WAT      O83395   6.925   1.342   6.887
27718WAT     H183396   6.855   1.271   6.889
27718WAT     H283397   6.895   1.416   6.826
27719WAT      O83398   4.039   0.129   5.579
27719WAT     H183399   4.023   0.219   5.538
27719WAT     H283400   4.135   0.122   5.606
27720WAT      O83401   3.069   5.141   9.096
27720WAT     H183402   3.043   5.062   9.151
27720WAT     H283403   3.054   5.121   8.999
27721WAT      O83404   7.850   1.574   9.314
27721WAT     H183405   7.768   1.602   9.364
27721WAT     H283406   7.928   1.576   9.376
27722WAT      O83407   6.285   1.769   0.602
27722WAT     H183408   6.205   1.710   0.614
27722WAT     H283409   6.368   1.713   0.599
27723WAT      O83410   1.875   2.783   3.602
27723WAT     H183411   1.850   2.872   3.640
27723WAT     H283412   1.793   2.727   3.594
27724WAT      O83413   8.944   3.655   1.933
27724WAT     H183414   9.014   3.595   1.894
27724WAT     H283415   8.982   3.706   2.009
27725WAT      O83416   0.598   7.623   5.635
27725WAT     H183417   0.661   7.675   5.578
27725WAT     H283418   0.558   7.683   5.704
27726WAT      O83419   8.377   7.820   6.326
27726WAT     H183420   8.284   7.834   6.361
27726WAT     H283421   8.409   7.729   6.354
27727WAT      O83422   1.748   5.349   2.603
27727WAT     H183423   1.827   5.297   2.637
27727WAT     H283424   1.749   5.350   2.503
27728WAT      O83425   1.147   5.842   0.392
27728WAT     H183426   1.199   5.817   0.310
27728WAT     H283427   1.076   5.908   0.367
27729WAT      O83428   4.287   0.583   0.174
27729WAT     H183429   4.367   0.638   0.149
27729WAT     H283430   4.272   0.590   0.273
27730WAT      O83431   8.961   8.049   7.558
27730WAT     H183432   8.988   8.142   7.581
27730WAT     H283433   8.861   8.043   7.550
27731WAT      O83434   2.604   8.103   3.386
27731WAT     H183435   2.628   8.006   3.377
27731WAT     H283436   2.642   8.139   3.472
27732WAT      O83437   8.206   7.925   0.765
27732WAT     H183438   8.209   7.994   0.838
27732WAT     H283439   8.266   7.953   0.690
27733WAT      O83440   0.682   0.835   6.276
27733WAT     H183441   0.774   0.817   6.240
27733WAT     H283442   0.669   0.785   6.361
27734WAT      O83443   0.336   2.864   1.019
27734WAT     H183444   0.273   2.796   1.056
27734WAT     H283445   0.294   2.910   0.941
27735WAT      O83446   7.278   6.801   5.770
27735WAT     H183447   7.307   6.849   5.687
27735WAT     H283448   7.178   6.804   5.776
27736WAT      O83449   5.089   8.130   6.672
27736WAT     H183450   5.157   8.100   6.739
27736WAT     H283451   5.077   8.229   6.679
27737WAT      O83452   4.681   0.686   3.356
27737WAT     H183453   4.625   0.630   3.295
27737WAT     H283454   4.717   0.629   3.430
27738WAT      O83455   7.445   8.148   8.310
27738WAT     H183456   7.535   8.190   8.321
27738WAT     H283457   7.417   8.153   8.214
27739WAT      O83458   7.539   1.325   7.747
27739WAT     H183459   7.544   1.423   7.763
27739WAT     H283460   7.452   1.303   7.703
27740WAT      O83461   3.701   5.036   8.141
27740WAT     H183462   3.724   5.132   8.153
27740WAT     H283463   3.673   4.997   8.229
27741WAT      O83464   8.398   8.120   4.587
27741WAT     H183465   8.437   8.099   4.678
27741WAT     H283466   8.444   8.063   4.518
27742WAT      O83467   7.723   8.447   4.695
27742WAT     H183468   7.632   8.432   4.657
27742WAT     H283469   7.785   8.377   4.661
27743WAT      O83470   0.189   9.445   7.023
27743WAT     H183471   0.196   9.371   7.089
27743WAT     H283472   0.280   9.483   7.005
27744WAT      O83473   4.160   9.024   5.117
27744WAT     H183474   4.199   9.098   5.171
27744WAT     H283475   4.111   9.062   5.038
27745WAT      O83476   9.156   0.841   5.628
27745WAT     H183477   9.115   0.909   5.567
27745WAT     H283478   9.187   0.885   5.712
27746WAT      O83479   0.525   5.272   6.820
27746WAT     H183480   0.502   5.261   6.723
27746WAT     H283481   0.441   5.277   6.874
27747WAT      O83482   4.262   2.522   6.097
27747WAT     H183483   4.238   2.581   6.174
27747WAT     H283484   4.194   2.450   6.088
27748WAT      O83485   1.201   5.579   6.744
27748WAT     H183486   1.280   5.609   6.798
27748WAT     H283487   1.222   5.491   6.702
27749WAT      O83488   2.365   4.658   7.342
27749WAT     H183489   2.351   4.757   7.333
27749WAT     H283490   2.352   4.631   7.437
27750WAT      O83491   3.811   3.447   9.880
27750WAT     H183492   3.870   3.485   9.809
27750WAT     H283493   3.719   3.435   9.844
27751WAT      O83494   6.495   2.410   1.243
27751WAT     H183495   6.561   2.458   1.184
27751WAT     H283496   6.533   2.322   1.271
27752WAT      O83497   0.956   8.877   1.429
27752WAT     H183498   0.919   8.935   1.357
27752WAT     H283499   1.044   8.840   1.399
27753WAT      O83500   8.473   9.198   7.342
27753WAT     H183501   8.531   9.269   7.304
27753WAT     H283502   8.462   9.213   7.440
27754WAT      O83503   8.737   4.981   1.845
27754WAT     H183504   8.746   4.884   1.868
27754WAT     H283505   8.822   5.015   1.806
27755WAT      O83506   0.379   1.748   9.599
27755WAT     H183507   0.284   1.743   9.568
27755WAT     H283508   0.381   1.762   9.698
27756WAT      O83509   6.041   5.654   3.381
27756WAT     H183510   6.088   5.574   3.344
27756WAT     H283511   6.101   5.733   3.377
27757WAT      O83512   5.269   2.500   2.416
27757WAT     H183513   5.340   2.450   2.466
27757WAT     H283514   5.238   2.445   2.339
27758WAT      O83515   5.293   1.126   0.631
27758WAT     H183516   5.290   1.186   0.710
27758WAT     H283517   5.388   1.103   0.611
27759WAT      O83518   0.717   7.363   3.737
27759WAT     H183519   0.784   7.292   3.715
27759WAT     H283520   0.691   7.356   3.833
27760WAT      O83521   1.446   9.287   4.007
27760WAT     H183522   1.542   9.260   3.999
27760WAT     H283523   1.432   9.339   4.091
27761WAT      O83524   9.049   5.618   5.549
27761WAT     H183525   9.134   5.590   5.593
27761WAT     H283526   9.051   5.717   5.533
27762WAT      O83527   2.670   6.386   7.053
27762WAT     H183528   2.621   6.392   7.140
27762WAT     H283529   2.766   6.411   7.067
27763WAT      O83530   5.902   5.672   7.087
27763WAT     H183531   5.983   5.622   7.056
27763WAT     H283532   5.912   5.769   7.065
27764WAT      O83533   3.871   6.757   1.160
27764WAT     H183534   3.787   6.774   1.211
27764WAT     H283535   3.896   6.660   1.168
27765WAT      O83536   8.447   1.531   9.520
27765WAT     H183537   8.391   1.449   9.508
27765WAT     H283538   8.394   1.600   9.569
27766WAT      O83539   8.365   6.857   5.577
27766WAT     H183540   8.420   6.809   5.646
27766WAT     H283541   8.341   6.948   5.611
27767WAT      O83542   2.055   4.081   7.498
27767WAT     H183543   2.048   4.129   7.411
27767WAT     H283544   2.120   4.006   7.490
27768WAT      O83545   7.184   0.050   5.616
27768WAT     H183546   7.221   0.117   5.680
27768WAT     H283547   7.195   0.083   5.522
27769WAT      O83548   1.369   3.435   7.015
27769WAT     H183549   1.441   3.402   7.075
27769WAT     H283550   1.299   3.365   7.005
27770WAT      O83551   9.732   0.359   2.354
27770WAT     H183552   9.784   0.438   2.322
27770WAT     H283553   9.792   0.279   2.355
27771WAT      O83554   3.057   5.362   2.099
27771WAT     H183555   3.068   5.273   2.056
27771WAT     H283556   3.130   5.423   2.068
27772WAT      O83557   3.881   8.603   7.583
27772WAT     H183558   3.865   8.696   7.550
27772WAT     H283559   3.946   8.605   7.659
27773WAT      O83560   4.893   8.887   4.023
27773WAT     H183561   4.955   8.810   4.041
27773WAT     H283562   4.854   8.877   3.931
27774WAT      O83563   9.467   4.470   5.172
27774WAT     H183564   9.430   4.557   5.140
27774WAT     H283565   9.563   4.462   5.143
27775WAT      O83566   8.391   9.079   3.112
27775WAT     H183567   8.369   8.982   3.100
27775WAT     H283568   8.383   9.126   3.024
27776WAT      O83569   0.116   0.724   4.140
27776WAT     H183570   0.088   0.705   4.046
27776WAT     H283571   0.105   0.642   4.196
27777WAT      O83572   4.946   2.117   5.087
27777WAT     H183573   4.855   2.101   5.126
27777WAT     H283574   4.937   2.150   4.993
27778WAT      O83575   7.819   0.104   6.470
27778WAT     H183576   7.867   0.029   6.426
27778WAT     H283577   7.721   0.083   6.472
27779WAT      O83578   7.472   7.121   5.144
27779WAT     H183579   7.397   7.058   5.164
27779WAT     H283580   7.557   7.070   5.132
27780WAT      O83581   3.603   9.069   9.177
27780WAT     H183582   3.636   9.016   9.099
27780WAT     H283583   3.539   9.139   9.145
27781WAT      O83584   2.833   3.548   4.974
27781WAT     H183585   2.755   3.610   4.967
27781WAT     H283586   2.917   3.601   4.985
27782WAT      O83587   1.719   9.132   6.363
27782WAT     H183588   1.661   9.203   6.323
27782WAT     H283589   1.663   9.076   6.425
27783WAT      O83590   9.301   4.952   9.100
27783WAT     H183591   9.310   5.046   9.065
27783WAT     H283592   9.260   4.954   9.191
27784WAT      O83593   2.300   2.270   2.807
27784WAT     H183594   2.244   2.297   2.729
27784WAT     H283595   2.250   2.203   2.862
27785WAT      O83596   3.384   3.267   1.328
27785WAT     H183597   3.449   3.194   1.308
27785WAT     H283598   3.433   3.347   1.361
27786WAT      O83599   3.531   8.455   8.562
27786WAT     H183600   3.519   8.383   8.494
27786WAT     H283601   3.539   8.414   8.653
27787WAT      O83602   0.140   5.915   3.935
27787WAT     H183603   0.128   5.816   3.940
27787WAT     H283604   0.232   5.935   3.902
27788WAT      O83605   8.784   9.124   0.203
27788WAT     H183606   8.791   9.168   0.292
27788WAT     H283607   8.766   9.026   0.216
27789WAT      O83608   2.990   5.262   4.474
27789WAT     H183609   2.982   5.302   4.565
27789WAT     H283610   3.017   5.334   4.409
27790WAT      O83611   2.537   2.577   5.340
27790WAT     H183612   2.591   2.526   5.407
27790WAT     H283613   2.597   2.639   5.290
27791WAT      O83614   6.730   0.268   1.178
27791WAT     H183615   6.815   0.322   1.178
27791WAT     H283616   6.657   0.321   1.135
27792WAT      O83617   2.326   5.133   9.248
27792WAT     H183618   2.384   5.107   9.325
27792WAT     H283619   2.380   5.135   9.164
27793WAT      O83620   5.780   3.284   4.021
27793WAT     H183621   5.811   3.192   3.998
27793WAT     H283622   5.732   3.323   3.942
27794WAT      O83623   6.825   1.634   9.354
27794WAT     H183624   6.834   1.628   9.254
27794WAT     H283625   6.841   1.543   9.394
27795WAT      O83626   6.042   9.046   0.961
27795WAT     H183627   6.128   9.010   0.926
27795WAT     H283628   6.007   8.984   1.032
27796WAT      O83629   3.219   7.987   5.186
27796WAT     H183630   3.256   8.051   5.119
27796WAT     H283631   3.125   8.013   5.209
27797WAT      O83632   3.228   4.524   8.407
27797WAT     H183633   3.296   4.486   8.344
27797WAT     H283634   3.248   4.492   8.500
27798WAT      O83635   4.073   4.870   2.619
27798WAT     H183636   4.157   4.821   2.595
27798WAT     H283637   4.011   4.871   2.541
27799WAT      O83638   4.545   2.544   5.009
27799WAT     H183639   4.478   2.477   5.041
27799WAT     H283640   4.624   2.497   4.970
27800WAT      O83641   1.751   8.232   6.410
27800WAT     H183642   1.736   8.223   6.312
27800WAT     H283643   1.786   8.323   6.431
27801WAT      O83644   3.014   0.707   5.603
27801WAT     H183645   3.083   0.639   5.579
27801WAT     H283646   2.968   0.738   5.519
27802WAT      O83647   8.171   5.785   0.461
27802WAT     H183648   8.087   5.743   0.494
27802WAT     H283649   8.248   5.723   0.477
27803WAT      O83650   0.562   5.129   8.112
27803WAT     H183651   0.535   5.182   8.031
27803WAT     H283652   0.514   5.041   8.112
27804WAT      O83653   8.060   6.389   5.036
27804WAT     H183654   8.021   6.413   4.947
27804WAT     H283655   8.039   6.293   5.056
27805WAT      O83656   0.301   5.157   7.427
27805WAT     H183657   0.252   5.090   7.483
27805WAT     H283658   0.338   5.111   7.346
27806WAT      O83659   7.561   5.965   3.910
27806WAT     H183660   7.617   6.048   3.912
27806WAT     H283661   7.504   5.966   3.828
27807WAT      O83662   9.536   1.668   2.925
27807WAT     H183663   9.621   1.719   2.942
27807WAT     H283664   9.468   1.729   2.885
27808WAT      O83665   8.493   4.427   0.333
27808WAT     H183666   8.465   4.505   0.277
27808WAT     H283667   8.562   4.374   0.284
27809WAT      O83668   4.961   3.597   3.296
27809WAT     H183669   4.868   3.622   3.270
27809WAT     H283670   4.983   3.637   3.385
27810WAT      O83671   3.480   0.075   4.805
27810WAT     H183672   3.577   0.075   4.830
27810WAT     H283673   3.426   0.036   4.880
27811WAT      O83674   9.131   5.965   6.727
27811WAT     H183675   9.189   5.968   6.645
27811WAT     H283676   9.162   5.892   6.787
27812WAT      O83677   8.236   9.162   3.897
27812WAT     H183678   8.140   9.135   3.896
27812WAT     H283679   8.275   9.144   3.987
27813WAT      O83680   7.201   6.944   3.489
27813WAT     H183681   7.115   6.918   3.446
27813WAT     H283682   7.275   6.943   3.421
27814WAT      O83683   3.162   5.075   9.649
27814WAT     H183684   3.067   5.090   9.623
27814WAT     H283685   3.205   5.163   9.669
27815WAT      O83686   9.862   2.840   4.288
27815WAT     H183687   9.958   2.820   4.271
27815WAT     H283688   9.832   2.914   4.227
27816WAT      O83689   6.875   1.712   6.155
27816WAT     H183690   6.923   1.790   6.114
27816WAT     H283691   6.931   1.630   6.146
27817WAT      O83692   8.075   2.155   0.380
27817WAT     H183693   8.175   2.165   0.377
27817WAT     H283694   8.035   2.231   0.431
27818WAT      O83695   1.402   6.935   1.652
27818WAT     H183696   1.422   7.024   1.612
27818WAT     H283697   1.488   6.894   1.685
27819WAT      O83698   0.913   7.690   3.968
27819WAT     H183699   0.986   7.751   3.999
27819WAT     H283700   0.953   7.606   3.930
27820WAT      O83701   5.811   9.429   2.306
27820WAT     H183702   5.790   9.374   2.387
27820WAT     H283703   5.876   9.501   2.330
27821WAT      O83704   0.340   6.894   4.564
27821WAT     H183705   0.282   6.962   4.519
27821WAT     H283706   0.363   6.926   4.656
27822WAT      O83707   1.678   4.085   1.948
27822WAT     H183708   1.583   4.092   1.978
27822WAT     H283709   1.729   4.027   2.011
27823WAT      O83710   0.053   7.175   9.656
27823WAT     H183711   0.080   7.138   9.745
27823WAT     H283712  -0.043   7.156   9.640
27824WAT      O83713   2.031   5.412   5.626
27824WAT     H183714   2.094   5.490   5.621
27824WAT     H283715   2.014   5.377   5.534
27825WAT      O83716   0.693   5.184   6.397
27825WAT     H183717   0.613   5.239   6.416
27825WAT     H283718   0.704   5.115   6.469
27826WAT      O83719   2.727   7.168   3.876
27826WAT     H183720   2.790   7.239   3.905
27826WAT     H283721   2.633   7.199   3.890
27827WAT      O83722   5.165   9.621   9.265
27827WAT     H183723   5.091   9.603   9.200
27827WAT     H283724   5.138   9.694   9.327
27828WAT      O83725   5.654   5.165   8.050
27828WAT     H183726   5.652   5.261   8.076
27828WAT     H283727   5.592   5.114   8.110
27829WAT      O83728   0.188   6.072   4.414
27829WAT     H183729   0.249   6.123   4.355
27829WAT     H283730   0.188   5.975   4.387
27830WAT      O83731   3.741   0.149   2.893
27830WAT     H183732   3.767   0.184   2.983
27830WAT     H283733   3.783   0.205   2.822
27831WAT      O83734   8.215   0.738   6.874
27831WAT     H183735   8.209   0.836   6.859
27831WAT     H283736   8.306   0.705   6.848
27832WAT      O83737   0.605   1.800   8.561
27832WAT     H183738   0.649   1.755   8.484
27832WAT     H283739   0.562   1.731   8.620
27833WAT      O83740   2.353   2.818   8.935
27833WAT     H183741   2.371   2.857   9.025
27833WAT     H283742   2.439   2.796   8.890
27834WAT      O83743   4.899   9.813   3.755
27834WAT     H183744   4.880   9.895   3.810
27834WAT     H283745   4.991   9.780   3.775
27835WAT      O83746   2.389   0.842   0.120
27835WAT     H183747   2.375   0.814   0.215
27835WAT     H283748   2.422   0.763   0.067
27836WAT      O83749   0.026   2.609   7.563
27836WAT     H183750   0.105   2.562   7.603
27836WAT     H283751  -0.011   2.673   7.630
27837WAT      O83752   3.486   9.256   7.956
27837WAT     H183753   3.514   9.241   7.861
27837WAT     H283754   3.565   9.286   8.010
27838WAT      O83755   1.855   9.633   4.590
27838WAT     H183756   1.857   9.728   4.621
27838WAT     H283757   1.948   9.602   4.572
27839WAT      O83758   3.349   4.405   4.554
27839WAT     H183759   3.415   4.361   4.493
27839WAT     H283760   3.271   4.436   4.500
27840WAT      O83761   6.831   7.289   2.489
27840WAT     H183762   6.921   7.308   2.528
27840WAT     H283763   6.814   7.190   2.491
27841WAT      O83764   5.050   4.885   8.020
27841WAT     H183765   4.952   4.896   8.036
27841WAT     H283766   5.069   4.792   7.988
27842WAT      O83767   2.820   9.341   5.333
27842WAT     H183768   2.738   9.385   5.297
27842WAT     H283769   2.884   9.323   5.258
27843WAT      O83770   4.890   9.166   5.777
27843WAT     H183771   4.973   9.186   5.724
27843WAT     H283772   4.810   9.173   5.719
27844WAT      O83773   0.317   1.748   8.378
27844WAT     H183774   0.341   1.845   8.389
27844WAT     H283775   0.330   1.701   8.465
27845WAT      O83776   6.220   5.456   6.143
27845WAT     H183777   6.193   5.395   6.218
27845WAT     H283778   6.138   5.497   6.103
27846WAT      O83779   2.691   2.404   6.032
27846WAT     H183780   2.679   2.498   6.000
27846WAT     H283781   2.607   2.352   6.014
27847WAT      O83782   1.157   8.796   5.290
27847WAT     H183783   1.151   8.739   5.372
27847WAT     H283784   1.113   8.749   5.214
27848WAT      O83785   1.439   5.606   0.352
27848WAT     H183786   1.421   5.511   0.328
27848WAT     H283787   1.371   5.666   0.309
27849WAT      O83788   4.277   2.798   9.097
27849WAT     H183789   4.375   2.819   9.102
27849WAT     H283790   4.230   2.873   9.051
27850WAT      O83791   4.368   0.071   1.238
27850WAT     H183792   4.352   0.057   1.336
27850WAT     H283793   4.286   0.047   1.187
27851WAT      O83794   1.746   7.445   8.926
27851WAT     H183795   1.814   7.382   8.964
27851WAT     H283796   1.753   7.533   8.972
27852WAT      O83797   4.518   0.217   8.375
27852WAT     H183798   4.542   0.163   8.455
27852WAT     H283799   4.601   0.253   8.332
27853WAT      O83800   3.164   7.594   1.970
27853WAT     H183801   3.162   7.495   1.984
27853WAT     H283802   3.148   7.640   2.058
27854WAT      O83803   8.935   9.536   5.186
27854WAT     H183804   8.876   9.552   5.265
27854WAT     H283805   8.972   9.623   5.153
27855WAT      O83806   2.842   9.353   6.815
27855WAT     H183807   2.842   9.260   6.777
27855WAT     H283808   2.866   9.349   6.912
27856WAT      O83809   0.998   2.114   0.253
27856WAT     H183810   1.067   2.156   0.194
27856WAT     H283811   1.039   2.089   0.341
27857WAT      O83812   9.002   1.997   2.074
27857WAT     H183813   9.022   1.907   2.113
27857WAT     H283814   9.016   1.995   1.975
27858WAT      O83815   0.252   2.509   3.106
27858WAT     H183816   0.234   2.451   3.027
27858WAT     H283817   0.203   2.474   3.186
27859WAT      O83818   0.003   2.588   1.746
27859WAT     H183819  -0.057   2.581   1.825
27859WAT     H283820   0.049   2.500   1.731
27860WAT      O83821   7.679   0.763   5.576
27860WAT     H183822   7.770   0.760   5.536
27860WAT     H283823   7.612   0.724   5.513
27861WAT      O83824   1.392   2.274   5.325
27861WAT     H183825   1.323   2.243   5.390
27861WAT     H283826   1.446   2.195   5.294
27862WAT      O83827   8.895   3.117   4.146
27862WAT     H183828   8.993   3.127   4.129
27862WAT     H283829   8.881   3.069   4.233
27863WAT      O83830   0.468   6.197   1.064
27863WAT     H183831   0.524   6.278   1.043
27863WAT     H283832   0.390   6.224   1.119
27864WAT      O83833   3.429   9.718   0.671
27864WAT     H183834   3.511   9.775   0.674
27864WAT     H283835   3.455   9.622   0.682
27865WAT      O83836   9.487   3.849   8.279
27865WAT     H183837   9.548   3.831   8.356
27865WAT     H283838   9.400   3.883   8.313
27866WAT      O83839   3.455   6.884   5.623
27866WAT     H183840   3.446   6.980   5.594
27866WAT     H283841   3.548   6.867   5.655
27867WAT      O83842   0.566   0.014   5.334
27867WAT     H183843   0.605   0.023   5.426
27867WAT     H283844   0.487  -0.048   5.338
27868WAT      O83845   9.514   0.143   3.469
27868WAT     H183846   9.565   0.179   3.391
27868WAT     H283847   9.576   0.128   3.546
27869WAT      O83848   3.479   4.424   8.260
27869WAT     H183849   3.534   4.499   8.222
27869WAT     H283850   3.463   4.356   8.189
27870WAT      O83851   3.106   4.199   7.537
27870WAT     H183852   3.112   4.172   7.441
27870WAT     H283853   3.108   4.298   7.545
27871WAT      O83854   8.601   7.271   5.580
27871WAT     H183855   8.521   7.308   5.628
27871WAT     H283856   8.642   7.198   5.635
27872WAT      O83857   1.671   0.669   0.587
27872WAT     H183858   1.661   0.690   0.490
27872WAT     H283859   1.767   0.645   0.606
27873WAT      O83860   5.377   6.844   0.203
27873WAT     H183861   5.406   6.907   0.275
27873WAT     H283862   5.282   6.818   0.218
27874WAT      O83863   0.386   8.462   8.953
27874WAT     H183864   0.397   8.403   9.032
27874WAT     H283865   0.425   8.418   8.872
27875WAT      O83866   0.501   4.260   7.146
27875WAT     H183867   0.473   4.226   7.056
27875WAT     H283868   0.420   4.283   7.200
27876WAT      O83869   6.251   4.815   0.273
27876WAT     H183870   6.346   4.841   0.294
27876WAT     H283871   6.241   4.805   0.174
27877WAT      O83872   5.559   9.408   1.956
27877WAT     H183873   5.538   9.453   2.043
27877WAT     H283874   5.474   9.384   1.910
27878WAT      O83875   2.805   5.910   9.179
27878WAT     H183876   2.884   5.853   9.161
27878WAT     H283877   2.745   5.911   9.099
27879WAT      O83878   4.902   7.147   1.041
27879WAT     H183879   4.939   7.176   1.130
27879WAT     H283880   4.818   7.095   1.056
27880WAT      O83881   3.986   9.298   4.140
27880WAT     H183882   3.957   9.374   4.198
27880WAT     H283883   4.086   9.299   4.131
27881WAT      O83884   9.853   9.214   3.600
27881WAT     H183885   9.898   9.302   3.618
27881WAT     H283886   9.763   9.231   3.559
27882WAT      O83887   0.918   8.472   9.316
27882WAT     H183888   0.823   8.493   9.295
27882WAT     H283889   0.939   8.501   9.409
27883WAT      O83890   7.759   1.747   6.979
27883WAT     H183891   7.705   1.674   7.020
27883WAT     H283892   7.759   1.827   7.040
27884WAT      O83893   6.344   2.814   3.912
27884WAT     H183894   6.279   2.763   3.969
27884WAT     H283895   6.422   2.755   3.889
27885WAT      O83896   0.941   5.042   4.097
27885WAT     H183897   1.006   4.968   4.081
27885WAT     H283898   0.848   5.009   4.080
27886WAT      O83899   5.770   5.093   4.637
27886WAT     H183900   5.833   5.050   4.572
27886WAT     H283901   5.758   5.189   4.613
27887WAT      O83902   9.824   5.831   1.829
27887WAT     H183903   9.766   5.891   1.776
27887WAT     H283904   9.882   5.776   1.768
27888WAT      O83905   2.126   6.910   4.711
27888WAT     H183906   2.080   6.911   4.800
27888WAT     H283907   2.156   6.817   4.690
27889WAT      O83908   2.481   6.108   2.926
27889WAT     H183909   2.477   6.013   2.896
27889WAT     H283910   2.446   6.115   3.020
27890WAT      O83911   8.023   9.760   2.762
27890WAT     H183912   7.935   9.750   2.716
27890WAT     H283913   8.030   9.693   2.837
27891WAT      O83914   6.900   3.266   5.846
27891WAT     H183915   6.837   3.190   5.856
27891WAT     H283916   6.954   3.275   5.930
27892WAT      O83917   3.501   7.461   4.320
27892WAT     H183918   3.489   7.366   4.350
27892WAT     H283919   3.418   7.492   4.273
27893WAT      O83920   6.623   2.607   5.707
27893WAT     H183921   6.633   2.594   5.805
27893WAT     H283922   6.710   2.635   5.667
27894WAT      O83923   5.169   8.618   8.151
27894WAT     H183924   5.165   8.717   8.155
27894WAT     H283925   5.257   8.587   8.187
27895WAT      O83926   4.610   6.407   0.580
27895WAT     H183927   4.659   6.457   0.509
27895WAT     H283928   4.609   6.310   0.558
27896WAT      O83929   2.058   6.407   8.354
27896WAT     H183930   2.088   6.450   8.269
27896WAT     H283931   1.991   6.466   8.399
27897WAT      O83932   4.155   3.251   3.243
27897WAT     H183933   4.115   3.271   3.333
27897WAT     H283934   4.097   3.185   3.195
27898WAT      O83935   8.798   8.667   4.730
27898WAT     H183936   8.826   8.763   4.726
27898WAT     H283937   8.738   8.647   4.653
27899WAT      O83938   7.179   1.393   5.296
27899WAT     H183939   7.091   1.381   5.341
27899WAT     H283940   7.171   1.369   5.199
27900WAT      O83941   6.182   8.126   4.240
27900WAT     H183942   6.252   8.079   4.294
27900WAT     H283943   6.091   8.093   4.267
27901WAT      O83944   3.817   1.442   8.764
27901WAT     H183945   3.812   1.526   8.818
27901WAT     H283946   3.907   1.434   8.722
27902WAT      O83947   3.489   1.083   1.687
27902WAT     H183948   3.405   1.128   1.717
27902WAT     H283949   3.543   1.147   1.632
27903WAT      O83950   0.179   7.979   9.265
27903WAT     H183951   0.146   8.070   9.291
27903WAT     H283952   0.252   7.950   9.328
27904WAT      O83953   2.413   8.569   6.285
27904WAT     H183954   2.512   8.562   6.274
27904WAT     H283955   2.378   8.641   6.224
27905WAT      O83956   2.628   7.992   0.014
27905WAT     H183957   2.652   7.958  -0.076
27905WAT     H283958   2.665   7.931   0.084
27906WAT      O83959   4.262   6.316   6.052
27906WAT     H183960   4.214   6.228   6.059
27906WAT     H283961   4.265   6.345   5.957
27907WAT      O83962   8.987   6.864   0.411
27907WAT     H183963   8.891   6.837   0.420
27907WAT     H283964   9.032   6.860   0.501
27908WAT      O83965   4.242   8.832   4.453
27908WAT     H183966   4.169   8.900   4.444
27908WAT     H283967   4.296   8.831   4.369
27909WAT      O83968   8.265   6.000   6.425
27909WAT     H183969   8.194   6.009   6.355
27909WAT     H283970   8.240   6.056   6.504
27910WAT      O83971   8.396   8.926   6.235
27910WAT     H183972   8.398   8.835   6.275
27910WAT     H283973   8.472   8.936   6.171
27911WAT      O83974   6.594   4.105   1.866
27911WAT     H183975   6.662   4.136   1.800
27911WAT     H283976   6.502   4.120   1.829
27912WAT      O83977   9.175   6.636   5.089
27912WAT     H183978   9.209   6.714   5.142
27912WAT     H283979   9.096   6.665   5.035
27913WAT      O83980   2.611   7.702   6.055
27913WAT     H183981   2.692   7.697   5.995
27913WAT     H283982   2.534   7.657   6.010
27914WAT      O83983   0.978   9.088   7.843
27914WAT     H183984   0.893   9.106   7.892
27914WAT     H283985   1.006   9.171   7.794
27915WAT      O83986   8.142   3.984   7.940
27915WAT     H183987   8.125   3.886   7.929
27915WAT     H283988   8.108   4.014   8.029
27916WAT      O83989   6.847   8.015   0.088
27916WAT     H183990   6.748   8.006   0.081
27916WAT     H283991   6.884   8.051   0.003
27917WAT      O83992   9.773   7.720   7.073
27917WAT     H183993   9.811   7.661   7.145
27917WAT     H283994   9.848   7.761   7.021
27918WAT      O83995   0.342   1.013   5.085
27918WAT     H183996   0.280   1.014   5.007
27918WAT     H283997   0.418   1.076   5.068
27919WAT      O83998   5.053   4.560   6.979
27919WAT     H183999   5.006   4.565   7.067
27919WAT     H284000   5.002   4.500   6.918
27920WAT      O84001   6.478   6.712   6.058
27920WAT     H184002   6.508   6.808   6.064
27920WAT     H284003   6.461   6.688   5.963
27921WAT      O84004   5.968   1.734   0.189
27921WAT     H184005   5.936   1.721   0.282
27921WAT     H284006   6.067   1.749   0.190
27922WAT      O84007   4.901   4.395   6.812
27922WAT     H184008   4.815   4.426   6.772
27922WAT     H284009   4.968   4.377   6.740
27923WAT      O84010   8.407   1.683   5.748
27923WAT     H184011   8.473   1.615   5.717
27923WAT     H284012   8.415   1.765   5.692
27924WAT      O84013   5.782   5.875   4.562
27924WAT     H184014   5.699   5.929   4.550
27924WAT     H284015   5.858   5.923   4.518
27925WAT      O84016   8.461   2.740   4.589
27925WAT     H184017   8.538   2.757   4.650
27925WAT     H284018   8.379   2.723   4.643
27926WAT      O84019   7.076   2.346   3.063
27926WAT     H184020   7.168   2.320   3.033
27926WAT     H284021   7.081   2.387   3.153
27927WAT      O84022   2.005   9.602   3.314
27927WAT     H184023   1.918   9.560   3.288
27927WAT     H284024   2.079   9.534   3.305
27928WAT      O84025   4.267   0.279   9.683
27928WAT     H184026   4.238   0.315   9.772
27928WAT     H284027   4.197   0.219   9.646
27929WAT      O84028   4.686   7.522   4.470
27929WAT     H184029   4.614   7.456   4.490
27929WAT     H284030   4.686   7.594   4.540
27930WAT      O84031   5.611   4.578   3.541
27930WAT     H184032   5.688   4.559   3.602
27930WAT     H284033   5.552   4.497   3.535
27931WAT      O84034   0.200   8.915   4.592
27931WAT     H184035   0.165   8.897   4.500
27931WAT     H284036   0.237   9.007   4.597
27932WAT      O84037   7.264   3.464   4.316
27932WAT     H184038   7.199   3.438   4.387
27932WAT     H284039   7.343   3.402   4.319
27933WAT      O84040   6.953   3.370   0.916
27933WAT     H184041   6.972   3.468   0.910
27933WAT     H284042   6.931   3.335   0.824
27934WAT      O84043   8.495   2.385   0.003
27934WAT     H184044   8.558   2.459  -0.019
27934WAT     H284045   8.540   2.297  -0.014
27935WAT      O84046   6.367   1.413   5.297
27935WAT     H184047   6.321   1.400   5.385
27935WAT     H284048   6.320   1.361   5.226
27936WAT      O84049   4.087   0.020   4.245
27936WAT     H184050   4.107  -0.074   4.275
27936WAT     H284051   4.157   0.049   4.180
27937WAT      O84052   9.421   4.465   8.546
27937WAT     H184053   9.477   4.540   8.580
27937WAT     H284054   9.328   4.472   8.584
27938WAT      O84055   7.775   5.402   7.639
27938WAT     H184056   7.788   5.496   7.670
27938WAT     H284057   7.848   5.344   7.675
27939WAT      O84058   3.365   8.036   5.431
27939WAT     H184059   3.335   8.035   5.336
27939WAT     H284060   3.290   8.005   5.490
27940WAT      O84061   1.482   8.932   6.105
27940WAT     H184062   1.526   9.003   6.049
27940WAT     H284063   1.408   8.972   6.158
27941WAT      O84064   8.456   4.876   5.161
27941WAT     H184065   8.406   4.790   5.152
27941WAT     H284066   8.554   4.858   5.168
27942WAT      O84067   5.238   7.056   6.113
27942WAT     H184068   5.247   6.999   6.195
27942WAT     H284069   5.163   7.022   6.057
27943WAT      O84070   4.378   1.189   2.836
27943WAT     H184071   4.422   1.173   2.747
27943WAT     H284072   4.368   1.102   2.885
27944WAT      O84073   8.382   8.786   3.587
27944WAT     H184074   8.457   8.838   3.544
27944WAT     H284075   8.300   8.793   3.530
27945WAT      O84076   2.042   9.183   6.924
27945WAT     H184077   2.068   9.231   6.841
27945WAT     H284078   2.123   9.165   6.979
27946WAT      O84079   9.244   8.582   5.546
27946WAT     H184080   9.290   8.580   5.458
27946WAT     H284081   9.171   8.650   5.544
27947WAT      O84082   1.765   3.183   8.027
27947WAT     H184083   1.728   3.275   8.009
27947WAT     H284084   1.739   3.122   7.953
27948WAT      O84085   2.119   6.692   7.481
27948WAT     H184086   2.219   6.691   7.477
27948WAT     H284087   2.087   6.786   7.477
27949WAT      O84088   1.562   0.957   4.680
27949WAT     H184089   1.588   0.968   4.584
27949WAT     H284090   1.633   0.995   4.739
27950WAT      O84091   3.880   7.847   5.533
27950WAT     H184092   3.814   7.883   5.467
27950WAT     H284093   3.832   7.797   5.604
27951WAT      O84094   6.435   5.529   7.474
27951WAT     H184095   6.405   5.616   7.434
27951WAT     H284096   6.518   5.545   7.528
27952WAT      O84097   8.393   4.411   6.155
27952WAT     H184098   8.419   4.355   6.076
27952WAT     H284099   8.351   4.352   6.225
27953WAT      O84100   0.232   4.557   3.327
27953WAT     H184101   0.303   4.487   3.325
27953WAT     H284102   0.192   4.562   3.418
27954WAT      O84103   2.304   3.110   7.790
27954WAT     H184104   2.384   3.051   7.800
27954WAT     H284105   2.333   3.206   7.795
27955WAT      O84106   8.818   8.361   0.150
27955WAT     H184107   8.827   8.284   0.213
27955WAT     H284108   8.844   8.332   0.057
27956WAT      O84109   5.812   5.674   8.701
27956WAT     H184110   5.886   5.610   8.722
27956WAT     H284111   5.734   5.655   8.760
27957WAT      O84112   3.587   2.187   2.716
27957WAT     H184113   3.523   2.153   2.647
27957WAT     H284114   3.636   2.266   2.679
27958WAT      O84115   4.288   0.598   1.408
27958WAT     H184116   4.364   0.603   1.344
27958WAT     H284117   4.239   0.511   1.396
27959WAT      O84118   7.536   6.360   1.396
27959WAT     H184119   7.626   6.330   1.364
27959WAT     H284120   7.536   6.459   1.409
27960WAT      O84121   8.832   1.366   7.180
27960WAT     H184122   8.772   1.320   7.245
27960WAT     H284123   8.777   1.412   7.111
27961WAT      O84124   5.027   5.665   7.301
27961WAT     H184125   5.095   5.738   7.295
27961WAT     H284126   5.052   5.590   7.240
27962WAT      O84127   0.467   1.664   1.511
27962WAT     H184128   0.539   1.667   1.581
27962WAT     H284129   0.506   1.689   1.422
27963WAT      O84130   5.257   2.691   3.890
27963WAT     H184131   5.284   2.759   3.823
27963WAT     H284132   5.167   2.654   3.866
27964WAT      O84133   0.080   1.988   2.014
27964WAT     H184134   0.130   1.902   2.023
27964WAT     H284135   0.133   2.062   2.053
27965WAT      O84136   0.130   2.029   0.390
27965WAT     H184137   0.173   1.985   0.469
27965WAT     H284138   0.031   2.016   0.394
27966WAT      O84139   4.357   3.562   5.215
27966WAT     H184140   4.293   3.613   5.158
27966WAT     H284141   4.362   3.604   5.306
27967WAT      O84142   0.965   2.592   2.821
27967WAT     H184143   0.906   2.554   2.751
27967WAT     H284144   1.061   2.576   2.796
27968WAT      O84145   2.124   7.214   6.966
27968WAT     H184146   2.095   7.305   6.938
27968WAT     H284147   2.217   7.217   7.001
27969WAT      O84148   8.525   8.194   6.119
27969WAT     H184149   8.502   8.161   6.027
27969WAT     H284150   8.528   8.117   6.182
27970WAT      O84151   0.763   3.929   0.847
27970WAT     H184152   0.856   3.910   0.881
27970WAT     H284153   0.745   4.027   0.853
27971WAT      O84154   5.360   6.185   1.666
27971WAT     H184155   5.373   6.200   1.764
27971WAT     H284156   5.281   6.238   1.635
27972WAT      O84157   8.265   1.369   4.840
27972WAT     H184158   8.220   1.357   4.928
27972WAT     H284159   8.238   1.458   4.801
27973WAT      O84160   1.101   5.351   3.760
27973WAT     H184161   1.132   5.439   3.725
27973WAT     H284162   1.131   5.278   3.699
27974WAT      O84163   1.087   2.233   6.656
27974WAT     H184164   1.115   2.298   6.585
27974WAT     H284165   1.155   2.159   6.662
27975WAT      O84166   4.940   1.549   6.166
27975WAT     H184167   4.886   1.509   6.240
27975WAT     H284168   4.889   1.538   6.080
27976WAT      O84169   0.592   7.789   7.337
27976WAT     H184170   0.677   7.737   7.332
27976WAT     H284171   0.524   7.736   7.389
27977WAT      O84172   8.064   8.293   6.097
27977WAT     H184173   8.006   8.220   6.061
27977WAT     H284174   8.146   8.253   6.137
27978WAT      O84175   4.622   7.568   9.735
27978WAT     H184176   4.559   7.583   9.811
27978WAT     H284177   4.688   7.496   9.761
27979WAT      O84178   3.421   8.872   9.317
27979WAT     H184179   3.486   8.945   9.297
27979WAT     H284180   3.338   8.885   9.263
27980WAT      O84181   0.118   6.657   9.870
27980WAT     H184182   0.060   6.580   9.842
27980WAT     H284183   0.181   6.680   9.796
27981WAT      O84184   5.914   1.110   8.681
27981WAT     H184185   5.836   1.098   8.743
27981WAT     H284186   5.882   1.146   8.594
27982WAT      O84187   6.120   1.480   4.100
27982WAT     H184188   6.198   1.508   4.155
27982WAT     H284189   6.083   1.559   4.052
27983WAT      O84190   3.404   4.446   9.146
27983WAT     H184191   3.428   4.454   9.049
27983WAT     H284192   3.484   4.467   9.202
27984WAT      O84193   3.253   1.332   3.380
27984WAT     H184194   3.253   1.239   3.345
27984WAT     H284195   3.298   1.392   3.314
27985WAT      O84196   6.583   1.277   7.171
27985WAT     H184197   6.653   1.348   7.173
27985WAT     H284198   6.535   1.279   7.084
27986WAT      O84199   6.385   1.758   8.403
27986WAT     H184200   6.364   1.806   8.317
27986WAT     H284201   6.444   1.816   8.459
27987WAT      O84202   0.160   1.822   4.891
27987WAT     H184203   0.254   1.790   4.888
27987WAT     H284204   0.159   1.922   4.889
27988WAT      O84205   8.324   5.874   6.001
27988WAT     H184206   8.278   5.803   6.055
27988WAT     H284207   8.410   5.897   6.044
27989WAT      O84208   3.996   4.175   4.556
27989WAT     H184209   3.973   4.193   4.652
27989WAT     H284210   3.912   4.152   4.505
27990WAT      O84211   7.687   6.757   0.072
27990WAT     H184212   7.763   6.692   0.061
27990WAT     H284213   7.643   6.741   0.161
27991WAT      O84214   4.939   8.169   4.086
27991WAT     H184215   4.922   8.181   4.184
27991WAT     H284216   4.959   8.258   4.044
27992WAT      O84217   8.949   1.911   9.678
27992WAT     H184218   8.873   1.964   9.641
27992WAT     H284219   8.979   1.844   9.610
27993WAT      O84220   6.363   8.648   0.489
27993WAT     H184221   6.439   8.688   0.437
27993WAT     H284222   6.333   8.713   0.560
27994WAT      O84223   2.347   7.377   7.945
27994WAT     H184224   2.248   7.369   7.936
27994WAT     H284225   2.389   7.287   7.932
27995WAT      O84226   0.515   4.822   2.615
27995WAT     H184227   0.555   4.744   2.663
27995WAT     H284228   0.476   4.886   2.681
27996WAT      O84229   2.694   5.287   8.837
27996WAT     H184230   2.748   5.223   8.783
27996WAT     H284231   2.599   5.288   8.804
27997WAT      O84232   9.743   3.242   3.273
27997WAT     H184233   9.671   3.312   3.278
27997WAT     H284234   9.773   3.219   3.365
27998WAT      O84235   9.094   3.891   8.040
27998WAT     H184236   9.147   3.955   8.095
27998WAT     H284237   9.156   3.831   7.990
27999WAT      O84238   7.071   9.289   1.221
27999WAT     H184239   7.139   9.350   1.261
27999WAT     H284240   7.032   9.332   1.139
28000WAT      O84241   6.136   5.111   0.321
28000WAT     H184242   6.141   5.057   0.238
28000WAT     H284243   6.156   5.207   0.300
28001WAT      O84244   8.126   0.576   2.705
28001WAT     H184245   8.122   0.614   2.798
28001WAT     H284246   8.202   0.618   2.655
28002WAT      O84247   8.485   3.575   0.476
28002WAT     H184248   8.542   3.575   0.394
28002WAT     H284249   8.446   3.666   0.490
28003WAT      O84250   7.699   1.361   3.116
28003WAT     H184251   7.729   1.276   3.161
28003WAT     H284252   7.719   1.356   3.019
28004WAT      O84253   4.957   0.119   2.304
28004WAT     H184254   4.865   0.082   2.291
28004WAT     H284255   4.953   0.195   2.369
28005WAT      O84256   0.261   4.473   4.077
28005WAT     H184257   0.267   4.485   4.176
28005WAT     H284258   0.182   4.522   4.042
28006WAT      O84259   5.056   6.790   0.954
28006WAT     H184260   5.084   6.829   1.041
28006WAT     H284261   5.064   6.858   0.882
28007WAT      O84262   0.742   7.620   2.641
28007WAT     H184263   0.765   7.522   2.645
28007WAT     H284264   0.694   7.639   2.555
28008WAT      O84265   3.879   0.575   2.287
28008WAT     H184266   3.934   0.563   2.205
28008WAT     H284267   3.918   0.520   2.361
28009WAT      O84268   2.860   2.276   9.866
28009WAT     H184269   2.770   2.316   9.883
28009WAT     H284270   2.894   2.307   9.778
28010WAT      O84271   5.413   2.233   1.316
28010WAT     H184272   5.461   2.152   1.282
28010WAT     H284273   5.413   2.303   1.245
28011WAT      O84274   2.706   3.952   3.431
28011WAT     H184275   2.764   3.896   3.490
28011WAT     H284276   2.663   3.894   3.361
28012WAT      O84277   5.139   7.902   4.486
28012WAT     H184278   5.194   7.821   4.507
28012WAT     H284279   5.092   7.933   4.569
28013WAT      O84280   6.398   2.028   0.626
28013WAT     H184281   6.394   1.929   0.613
28013WAT     H284282   6.344   2.073   0.555
28014WAT      O84283   9.342   1.655   2.175
28014WAT     H184284   9.420   1.653   2.113
28014WAT     H284285   9.358   1.723   2.247
28015WAT      O84286   2.164   9.064   0.879
28015WAT     H184287   2.195   8.972   0.901
28015WAT     H284288   2.209   9.130   0.939
28016WAT      O84289   6.279   6.081   0.383
28016WAT     H184290   6.232   6.038   0.460
28016WAT     H284291   6.231   6.058   0.298
28017WAT      O84292   3.272   5.776   9.041
28017WAT     H184293   3.344   5.731   9.093
28017WAT     H284294   3.278   5.875   9.053
28018WAT      O84295   7.868   9.719   5.036
28018WAT     H184296   7.954   9.755   5.000
28018WAT     H284297   7.801   9.712   4.963
28019WAT      O84298   9.198   4.533   2.432
28019WAT     H184299   9.136   4.566   2.503
28019WAT     H284300   9.254   4.608   2.398
28020WAT      O84301   3.578   5.149   4.690
28020WAT     H184302   3.653   5.086   4.673
28020WAT     H284303   3.521   5.156   4.609
28021WAT      O84304   8.605   9.451   6.286
28021WAT     H184305   8.644   9.526   6.340
28021WAT     H284306   8.518   9.423   6.325
28022WAT      O84307   1.705   0.045   6.430
28022WAT     H184308   1.719  -0.005   6.344
28022WAT     H284309   1.637   0.117   6.416
28023WAT      O84310   5.753   9.236   8.087
28023WAT     H184311   5.776   9.178   8.009
28023WAT     H284312   5.836   9.264   8.134
28024WAT      O84313   6.197   1.204   6.166
28024WAT     H184314   6.285   1.168   6.135
28024WAT     H284315   6.209   1.299   6.197
28025WAT      O84316   5.422   8.533   4.546
28025WAT     H184317   5.413   8.483   4.632
28025WAT     H284318   5.391   8.627   4.558
28026WAT      O84319   0.725   6.050   1.354
28026WAT     H184320   0.708   6.013   1.262
28026WAT     H284321   0.803   6.112   1.351
28027WAT      O84322   5.420   2.709   1.668
28027WAT     H184323   5.517   2.732   1.660
28027WAT     H284324   5.373   2.730   1.582
28028WAT      O84325   0.225   0.850   8.276
28028WAT     H184326   0.248   0.941   8.241
28028WAT     H284327   0.303   0.789   8.263
28029WAT      O84328   9.542   3.311   0.767
28029WAT     H184329   9.506   3.360   0.688
28029WAT     H284330   9.502   3.349   0.851
28030WAT      O84331   7.956   7.695   7.155
28030WAT     H184332   7.898   7.623   7.117
28030WAT     H284333   8.051   7.666   7.154
28031WAT      O84334   3.047   0.641   9.125
28031WAT     H184335   2.989   0.692   9.062
28031WAT     H284336   3.056   0.547   9.094
28032WAT      O84337   0.623   9.532   4.561
28032WAT     H184338   0.668   9.490   4.482
28032WAT     H284339   0.689   9.540   4.636
28033WAT      O84340   9.621   9.274   3.513
28033WAT     H184341   9.644   9.289   3.417
28033WAT     H284342   9.546   9.335   3.539
28034WAT      O84343   6.190   4.498   0.818
28034WAT     H184344   6.278   4.465   0.783
28034WAT     H284345   6.184   4.480   0.916
28035WAT      O84346   8.014   4.512   3.610
28035WAT     H184347   8.060   4.481   3.527
28035WAT     H284348   8.031   4.447   3.684
28036WAT      O84349   4.097   1.515   1.898
28036WAT     H184350   4.046   1.487   1.980
28036WAT     H284351   4.041   1.578   1.844
28037WAT      O84352   0.295   5.821   8.049
28037WAT     H184353   0.210   5.862   8.082
28037WAT     H284354   0.313   5.853   7.956
28038WAT      O84355   0.157   9.171   2.737
28038WAT     H184356   0.176   9.269   2.733
28038WAT     H284357   0.154   9.141   2.832
28039WAT      O84358   4.620   5.789   6.583
28039WAT     H184359   4.611   5.710   6.521
28039WAT     H284360   4.551   5.857   6.559
28040WAT      O84361   1.363   3.043   1.090
28040WAT     H184362   1.276   2.996   1.100
28040WAT     H284363   1.436   2.987   1.130
28041WAT      O84364   8.633   3.732   4.158
28041WAT     H184365   8.598   3.644   4.124
28041WAT     H284366   8.664   3.721   4.252
28042WAT      O84367   6.386   6.653   5.095
28042WAT     H184368   6.475   6.617   5.122
28042WAT     H284369   6.326   6.657   5.175
28043WAT      O84370   6.712   6.558   0.069
28043WAT     H184371   6.650   6.558  -0.008
28043WAT     H284372   6.667   6.518   0.149
28044WAT      O84373   9.478   9.345   4.959
28044WAT     H184374   9.569   9.323   4.993
28044WAT     H284375   9.475   9.441   4.931
28045WAT      O84376   9.131   0.463   9.791
28045WAT     H184377   9.088   0.470   9.882
28045WAT     H284378   9.119   0.371   9.755
28046WAT      O84379   6.544   7.279   6.439
28046WAT     H184380   6.642   7.295   6.445
28046WAT     H284381   6.499   7.362   6.405
28047WAT      O84382   4.876   5.181   5.895
28047WAT     H184383   4.949   5.231   5.941
28047WAT     H284384   4.872   5.088   5.931
28048WAT      O84385   3.802   9.224   2.815
28048WAT     H184386   3.814   9.323   2.829
28048WAT     H284387   3.813   9.177   2.902
28049WAT      O84388   9.611   8.244   7.746
28049WAT     H184389   9.517   8.219   7.769
28049WAT     H284390   9.669   8.163   7.751
28050WAT      O84391   0.454   6.869   9.602
28050WAT     H184392   0.525   6.823   9.656
28050WAT     H284393   0.446   6.964   9.632
28051WAT      O84394   2.712   0.633   3.334
28051WAT     H184395   2.810   0.615   3.329
28051WAT     H284396   2.687   0.704   3.268
28052WAT      O84397   7.784   9.022   3.605
28052WAT     H184398   7.861   8.960   3.593
28052WAT     H284399   7.717   9.007   3.532
28053WAT      O84400   0.594   5.941   5.020
28053WAT     H184401   0.689   5.958   5.047
28053WAT     H284402   0.554   5.872   5.079
28054WAT      O84403   0.839   2.097   4.512
28054WAT     H184404   0.769   2.060   4.451
28054WAT     H284405   0.911   2.141   4.458
28055WAT      O84406   3.617   0.661   7.509
28055WAT     H184407   3.717   0.667   7.514
28055WAT     H284408   3.588   0.570   7.540
28056WAT      O84409   7.922   9.480   3.475
28056WAT     H184410   7.941   9.386   3.506
28056WAT     H284411   7.969   9.544   3.535
28057WAT      O84412   0.170   8.273   0.265
28057WAT     H184413   0.091   8.241   0.212
28057WAT     H284414   0.138   8.316   0.349
28058WAT      O84415   7.826   4.432   6.384
28058WAT     H184416   7.852   4.381   6.466
28058WAT     H284417   7.858   4.382   6.303
28059WAT      O84418   7.308   3.709   0.447
28059WAT     H184419   7.365   3.705   0.529
28059WAT     H284420   7.346   3.776   0.383
28060WAT      O84421   4.699   3.831   2.477
28060WAT     H184422   4.671   3.820   2.382
28060WAT     H284423   4.780   3.775   2.495
28061WAT      O84424   8.407   6.367   2.993
28061WAT     H184425   8.338   6.440   2.986
28061WAT     H284426   8.411   6.317   2.907
28062WAT      O84427   6.583   5.236   1.955
28062WAT     H184428   6.507   5.250   1.892
28062WAT     H284429   6.615   5.142   1.949
28063WAT      O84430   1.676   4.543   9.087
28063WAT     H184431   1.766   4.541   9.044
28063WAT     H284432   1.657   4.635   9.122
28064WAT      O84433   9.118   0.011   1.214
28064WAT     H184434   9.190   0.077   1.194
28064WAT     H284435   9.037   0.031   1.159
28065WAT      O84436   4.425   2.452   3.030
28065WAT     H184437   4.404   2.382   2.961
28065WAT     H284438   4.478   2.525   2.988
28066WAT      O84439   2.219   0.188   1.731
28066WAT     H184440   2.162   0.173   1.812
28066WAT     H284441   2.307   0.227   1.760
28067WAT      O84442   0.342   4.285   8.132
28067WAT     H184443   0.324   4.378   8.100
28067WAT     H284444   0.288   4.267   8.214
28068WAT      O84445   1.376   0.451   2.773
28068WAT     H184446   1.428   0.379   2.726
28068WAT     H284447   1.302   0.483   2.714
28069WAT      O84448   4.091   7.550   4.738
28069WAT     H184449   4.010   7.529   4.793
28069WAT     H284450   4.090   7.647   4.714
28070WAT      O84451   5.114   3.934   6.806
28070WAT     H184452   5.079   3.935   6.899
28070WAT     H284453   5.181   3.859   6.797
28071WAT      O84454   9.546   4.882   9.492
28071WAT     H184455   9.615   4.945   9.457
28071WAT     H284456   9.586   4.791   9.502
28072WAT      O84457   0.134   1.265   9.815
28072WAT     H184458   0.108   1.246   9.720
28072WAT     H284459   0.166   1.359   9.823
28073WAT      O84460   3.688   5.402   6.458
28073WAT     H184461   3.697   5.455   6.543
28073WAT     H284462   3.592   5.401   6.430
28074WAT      O84463   6.212   0.072   4.305
28074WAT     H184464   6.218  -0.003   4.371
28074WAT     H284465   6.159   0.043   4.226
28075WAT      O84466   0.737   9.090   0.158
28075WAT     H184467   0.686   9.008   0.135
28075WAT     H284468   0.691   9.170   0.120
28076WAT      O84469   2.418   5.606   6.553
28076WAT     H184470   2.489   5.553   6.509
28076WAT     H284471   2.355   5.642   6.484
28077WAT      O84472   1.563   9.228   4.664
28077WAT     H184473   1.546   9.299   4.732
28077WAT     H284474   1.661   9.223   4.646
28078WAT      O84475   5.926   6.977   3.939
28078WAT     H184476   5.968   6.912   4.002
28078WAT     H284477   5.979   7.062   3.940
28079WAT      O84478   3.249   5.697   0.436
28079WAT     H184479   3.233   5.651   0.523
28079WAT     H284480   3.175   5.675   0.372
28080WAT      O84481   3.742   9.364   9.078
28080WAT     H184482   3.766   9.461   9.077
28080WAT     H284483   3.753   9.328   9.170
28081WAT      O84484   2.656   0.658   0.095
28081WAT     H184485   2.604   0.690   0.016
28081WAT     H284486   2.753   0.656   0.072
28082WAT      O84487   2.117   5.265   3.049
28082WAT     H184488   2.177   5.203   3.000
28082WAT     H284489   2.118   5.355   3.004
28083WAT      O84490   5.926   6.252   2.928
28083WAT     H184491   5.936   6.323   2.858
28083WAT     H284492   6.010   6.245   2.981
28084WAT      O84493   4.013   1.817   2.405
28084WAT     H184494   4.060   1.743   2.355
28084WAT     H284495   3.956   1.868   2.341
28085WAT      O84496   4.392   2.104   5.264
28085WAT     H184497   4.353   2.030   5.209
28085WAT     H284498   4.341   2.113   5.349
28086WAT      O84499   0.134   2.937   3.373
28086WAT     H184500   0.129   2.876   3.452
28086WAT     H284501   0.204   2.904   3.310
28087WAT      O84502   0.515   2.637   0.868
28087WAT     H184503   0.527   2.672   0.776
28087WAT     H284504   0.604   2.634   0.914
28088WAT      O84505   5.380   9.247   3.332
28088WAT     H184506   5.337   9.324   3.285
28088WAT     H284507   5.456   9.212   3.277
28089WAT      O84508   1.314   7.771   7.045
28089WAT     H184509   1.243   7.835   7.017
28089WAT     H284510   1.375   7.815   7.110
28090WAT      O84511   2.130   7.128   5.722
28090WAT     H184512   2.081   7.197   5.775
28090WAT     H284513   2.147   7.048   5.781
28091WAT      O84514   0.488   1.991   1.299
28091WAT     H184515   0.496   1.897   1.265
28091WAT     H284516   0.500   1.991   1.398
28092WAT      O84517   8.920   3.785   7.726
28092WAT     H184518   8.899   3.729   7.646
28092WAT     H284519   8.903   3.881   7.706
28093WAT      O84520   6.282   4.504   1.562
28093WAT     H184521   6.202   4.509   1.501
28093WAT     H284522   6.257   4.457   1.646
28094WAT      O84523   9.412   6.252   5.417
28094WAT     H184524   9.468   6.175   5.387
28094WAT     H284525   9.367   6.294   5.338
28095WAT      O84526   9.059   3.772   3.313
28095WAT     H184527   9.116   3.737   3.239
28095WAT     H284528   9.074   3.871   3.322
28096WAT      O84529   1.815   2.752   4.997
28096WAT     H184530   1.834   2.720   4.904
28096WAT     H284531   1.737   2.702   5.034
28097WAT      O84532   4.173   3.050   6.811
28097WAT     H184533   4.273   3.048   6.815
28097WAT     H284534   4.138   2.956   6.804
28098WAT      O84535   5.589   5.040   3.525
28098WAT     H184536   5.578   4.956   3.472
28098WAT     H284537   5.675   5.084   3.502
28099WAT      O84538   7.182   2.994   4.085
28099WAT     H184539   7.264   3.012   4.139
28099WAT     H284540   7.158   3.076   4.033
28100WAT      O84541   9.470   7.984   4.848
28100WAT     H184542   9.456   7.995   4.750
28100WAT     H284543   9.492   8.072   4.889
28101WAT      O84544   8.591   5.278   4.031
28101WAT     H184545   8.595   5.321   4.121
28101WAT     H284546   8.580   5.349   3.961
28102WAT      O84547   3.649   0.859   4.238
28102WAT     H184548   3.554   0.839   4.260
28102WAT     H284549   3.685   0.927   4.303
28103WAT      O84550   8.636   0.320   3.289
28103WAT     H184551   8.735   0.305   3.295
28103WAT     H284552   8.610   0.329   3.192
28104WAT      O84553   9.287   5.877   4.506
28104WAT     H184554   9.294   5.977   4.500
28104WAT     H284555   9.195   5.849   4.480
28105WAT      O84556   6.663   0.824   3.382
28105WAT     H184557   6.709   0.770   3.453
28105WAT     H284558   6.661   0.772   3.297
28106WAT      O84559   9.193   4.169   0.013
28106WAT     H184560   9.140   4.183   0.096
28106WAT     H284561   9.177   4.246  -0.050
28107WAT      O84562   2.647   6.722   8.416
28107WAT     H184563   2.658   6.820   8.402
28107WAT     H284564   2.735   6.676   8.405
28108WAT      O84565   2.346   7.674   9.138
28108WAT     H184566   2.284   7.704   9.066
28108WAT     H284567   2.438   7.663   9.100
28109WAT      O84568   7.307   5.846   1.317
28109WAT     H184569   7.373   5.771   1.322
28109WAT     H284570   7.329   5.914   1.386
28110WAT      O84571   0.577   4.411   0.274
28110WAT     H184572   0.637   4.344   0.231
28110WAT     H284573   0.526   4.460   0.204
28111WAT      O84574   9.754   0.894   7.959
28111WAT     H184575   9.802   0.975   7.991
28111WAT     H284576   9.795   0.812   8.000
28112WAT      O84577   3.842   3.488   1.849
28112WAT     H184578   3.936   3.457   1.845
28112WAT     H284579   3.786   3.433   1.787
28113WAT      O84580   8.059   7.981   7.634
28113WAT     H184581   8.004   8.061   7.610
28113WAT     H284582   8.003   7.899   7.630
28114WAT      O84583   7.495   1.503   1.992
28114WAT     H184584   7.553   1.486   2.072
28114WAT     H284585   7.550   1.493   1.909
28115WAT      O84586   1.964   3.276   8.419
28115WAT     H184587   1.907   3.302   8.497
28115WAT     H284588   1.991   3.359   8.368
28116WAT      O84589   3.274   3.698   7.399
28116WAT     H184590   3.336   3.620   7.388
28116WAT     H284591   3.226   3.690   7.486
28117WAT      O84592   5.203   3.537   2.860
28117WAT     H184593   5.232   3.625   2.898
28117WAT     H284594   5.271   3.503   2.796
28118WAT      O84595   6.098   0.794   6.194
28118WAT     H184596   6.086   0.850   6.112
28118WAT     H284597   6.009   0.760   6.224
28119WAT      O84598   0.408   4.899   4.023
28119WAT     H184599   0.406   4.821   3.961
28119WAT     H284600   0.314   4.926   4.046
28120WAT      O84601   6.310   7.847   9.694
28120WAT     H184602   6.268   7.760   9.718
28120WAT     H284603   6.286   7.916   9.763
28121WAT      O84604   1.826   3.048   0.310
28121WAT     H184605   1.751   3.057   0.375
28121WAT     H284606   1.791   3.056   0.216
28122WAT      O84607   6.240   4.276   4.445
28122WAT     H184608   6.279   4.344   4.384
28122WAT     H284609   6.174   4.220   4.394
28123WAT      O84610   4.692   1.763   1.355
28123WAT     H184611   4.626   1.804   1.417
28123WAT     H284612   4.647   1.745   1.267
28124WAT      O84613   5.220   3.928   7.120
28124WAT     H184614   5.307   3.954   7.077
28124WAT     H284615   5.208   3.829   7.115
28125WAT      O84616   6.406   0.891   3.400
28125WAT     H184617   6.504   0.876   3.393
28125WAT     H284618   6.358   0.805   3.387
28126WAT      O84619   8.954   5.711   1.656
28126WAT     H184620   8.976   5.785   1.592
28126WAT     H284621   8.963   5.623   1.610
28127WAT      O84622   8.126   9.644   0.314
28127WAT     H184623   8.101   9.593   0.397
28127WAT     H284624   8.048   9.648   0.252
28128WAT      O84625   4.691   7.812   4.088
28128WAT     H184626   4.602   7.788   4.048
28128WAT     H284627   4.726   7.894   4.043
28129WAT      O84628   2.327   2.248   3.669
28129WAT     H184629   2.328   2.193   3.585
28129WAT     H284630   2.312   2.189   3.748
28130WAT      O84631   1.584   6.267   9.121
28130WAT     H184632   1.663   6.304   9.072
28130WAT     H284633   1.604   6.266   9.219
28131WAT      O84634   4.075   3.185   4.882
28131WAT     H184635   4.076   3.089   4.853
28131WAT     H284636   4.164   3.227   4.864
28132WAT      O84637   9.128   2.778   5.886
28132WAT     H184638   9.072   2.739   5.959
28132WAT     H284639   9.177   2.858   5.920
28133WAT      O84640   8.327   7.681   8.984
28133WAT     H184641   8.344   7.647   9.076
28133WAT     H284642   8.411   7.719   8.947
28134WAT      O84643   8.378   8.992   4.500
28134WAT     H184644   8.307   9.062   4.497
28134WAT     H284645   8.392   8.962   4.594
28135WAT      O84646   6.849   0.241   6.679
28135WAT     H184647   6.930   0.217   6.626
28135WAT     H284648   6.822   0.335   6.656
28136WAT      O84649   6.272   2.082   2.724
28136WAT     H184650   6.206   2.150   2.690
28136WAT     H284651   6.249   2.058   2.818
28137WAT      O84652   9.673   1.162   2.808
28137WAT     H184653   9.633   1.109   2.733
28137WAT     H284654   9.644   1.257   2.801
28138WAT      O84655   0.260   2.161   9.557
28138WAT     H184656   0.164   2.153   9.583
28138WAT     H284657   0.308   2.076   9.578
28139WAT      O84658   5.450   4.346   4.142
28139WAT     H184659   5.436   4.399   4.059
28139WAT     H284660   5.366   4.297   4.166
28140WAT      O84661   6.099   4.524   2.808
28140WAT     H184662   6.165   4.450   2.792
28140WAT     H284663   6.090   4.579   2.725
28141WAT      O84664   7.120   5.884   7.809
28141WAT     H184665   7.079   5.817   7.747
28141WAT     H284666   7.103   5.858   7.904
28142WAT      O84667   7.872   0.323   6.303
28142WAT     H184668   7.955   0.307   6.249
28142WAT     H284669   7.861   0.249   6.370
28143WAT      O84670   5.773   7.498   3.616
28143WAT     H184671   5.683   7.466   3.587
28143WAT     H284672   5.773   7.598   3.619
28144WAT      O84673   1.127   8.318   5.878
28144WAT     H184674   1.200   8.332   5.811
28144WAT     H284675   1.110   8.404   5.927
28145WAT      O84676   4.561   1.896   6.060
28145WAT     H184677   4.570   1.935   6.151
28145WAT     H284678   4.603   1.956   5.993
28146WAT      O84679   2.352   9.215   4.551
28146WAT     H184680   2.309   9.150   4.613
28146WAT     H284681   2.373   9.171   4.464
28147WAT      O84682   8.279   9.572   5.201
28147WAT     H184683   8.316   9.639   5.136
28147WAT     H284684   8.249   9.619   5.284
28148WAT      O84685   7.267   2.887   9.516
28148WAT     H184686   7.263   2.968   9.457
28148WAT     H284687   7.291   2.915   9.609
28149WAT      O84688   8.502   5.414   3.681
28149WAT     H184689   8.594   5.419   3.719
28149WAT     H284690   8.491   5.327   3.632
28150WAT      O84691   5.208   5.865   1.460
28150WAT     H184692   5.160   5.950   1.437
28150WAT     H284693   5.189   5.841   1.555
28151WAT      O84694   2.056   1.572   9.573
28151WAT     H184695   2.060   1.623   9.487
28151WAT     H284696   2.081   1.632   9.649
28152WAT      O84697   0.605   3.031   7.532
28152WAT     H184698   0.515   3.068   7.555
28152WAT     H284699   0.611   3.015   7.433
28153WAT      O84700   2.676   3.609   7.448
28153WAT     H184701   2.757   3.662   7.473
28153WAT     H284702   2.686   3.575   7.355
28154WAT      O84703   3.472   7.847   5.659
28154WAT     H184704   3.438   7.941   5.657
28154WAT     H284705   3.477   7.812   5.565
28155WAT      O84706   5.355   6.947   9.811
28155WAT     H184707   5.430   6.922   9.750
28155WAT     H284708   5.355   6.887   9.890
28156WAT      O84709   0.807   8.231   5.553
28156WAT     H184710   0.847   8.309   5.505
28156WAT     H284711   0.804   8.251   5.651
28157WAT      O84712   0.698   2.256   8.419
28157WAT     H184713   0.769   2.319   8.387
28157WAT     H284714   0.709   2.241   8.517
28158WAT      O84715   2.442   7.433   2.702
28158WAT     H184716   2.475   7.519   2.663
28158WAT     H284717   2.402   7.451   2.792
28159WAT      O84718   7.554   1.640   8.993
28159WAT     H184719   7.583   1.724   9.038
28159WAT     H284720   7.464   1.614   9.026
28160WAT      O84721   5.287   2.376   4.922
28160WAT     H184722   5.251   2.443   4.987
28160WAT     H284723   5.386   2.370   4.931
28161WAT      O84724   1.354   1.567   2.647
28161WAT     H184725   1.286   1.496   2.625
28161WAT     H284726   1.445   1.525   2.650
28162WAT      O84727   8.537   6.746   8.818
28162WAT     H184728   8.585   6.696   8.891
28162WAT     H284729   8.464   6.802   8.857
28163WAT      O84730   4.576   2.472   1.824
28163WAT     H184731   4.610   2.543   1.886
28163WAT     H284732   4.487   2.440   1.856
28164WAT      O84733   7.628   8.510   9.527
28164WAT     H184734   7.622   8.410   9.521
28164WAT     H284735   7.611   8.539   9.621
28165WAT      O84736   7.207   7.371   3.255
28165WAT     H184737   7.235   7.344   3.347
28165WAT     H284738   7.108   7.357   3.245
28166WAT      O84739   7.236   3.314   9.005
28166WAT     H184740   7.260   3.257   8.927
28166WAT     H284741   7.181   3.392   8.975
28167WAT      O84742   7.352   4.845   6.662
28167WAT     H184743   7.357   4.745   6.666
28167WAT     H284744   7.264   4.876   6.698
28168WAT      O84745   6.593   5.002   8.411
28168WAT     H184746   6.528   5.036   8.479
28168WAT     H284747   6.556   4.921   8.366
28169WAT      O84748   1.147   3.107   5.101
28169WAT     H184749   1.061   3.059   5.080
28169WAT     H284750   1.220   3.040   5.116
28170WAT      O84751   6.031   4.487   6.167
28170WAT     H184752   6.011   4.506   6.071
28170WAT     H284753   5.956   4.433   6.206
28171WAT      O84754   7.752   3.759   3.240
28171WAT     H184755   7.830   3.777   3.299
28171WAT     H284756   7.775   3.785   3.146
28172WAT      O84757   3.032   1.356   2.095
28172WAT     H184758   3.093   1.384   2.020
28172WAT     H284759   2.965   1.428   2.112
28173WAT      O84760   5.058   5.254   4.134
28173WAT     H184761   5.155   5.274   4.117
28173WAT     H284762   5.051   5.182   4.203
28174WAT      O84763   1.057   6.245   2.267
28174WAT     H184764   0.974   6.191   2.278
28174WAT     H284765   1.135   6.184   2.255
28175WAT      O84766   3.847   8.828   7.454
28175WAT     H184767   3.762   8.866   7.489
28175WAT     H284768   3.924   8.885   7.486
28176WAT      O84769   7.128   7.195   8.112
28176WAT     H184770   7.130   7.095   8.104
28176WAT     H284771   7.174   7.236   8.034
28177WAT      O84772   5.437   4.577   0.148
28177WAT     H184773   5.507   4.648   0.147
28177WAT     H284774   5.362   4.604   0.209
28178WAT      O84775   0.301   6.641   9.619
28178WAT     H184776   0.366   6.584   9.669
28178WAT     H284777   0.345   6.727   9.594
28179WAT      O84778   7.846   1.805   9.857
28179WAT     H184779   7.912   1.838   9.924
28179WAT     H284780   7.838   1.872   9.783
28180WAT      O84781   8.950   8.573   7.928
28180WAT     H184782   8.979   8.669   7.929
28180WAT     H284783   8.978   8.529   8.012
28181WAT      O84784   4.879   7.657   8.065
28181WAT     H184785   4.976   7.681   8.063
28181WAT     H284786   4.841   7.677   8.155
28182WAT      O84787   6.835   0.342   3.695
28182WAT     H184788   6.926   0.318   3.729
28182WAT     H284789   6.832   0.440   3.675
28183WAT      O84790   7.382   2.947   7.469
28183WAT     H184791   7.357   2.854   7.441
28183WAT     H284792   7.479   2.962   7.448
28184WAT      O84793   7.638   2.954   7.924
28184WAT     H184794   7.603   3.017   7.854
28184WAT     H284795   7.737   2.962   7.930
28185WAT      O84796   3.115   8.884   2.505
28185WAT     H184797   3.118   8.837   2.417
28185WAT     H284798   3.153   8.976   2.496
28186WAT      O84799   5.093   4.340   6.317
28186WAT     H184800   5.041   4.257   6.338
28186WAT     H284801   5.170   4.318   6.258
28187WAT      O84802   5.364   7.470   7.818
28187WAT     H184803   5.412   7.420   7.890
28187WAT     H284804   5.286   7.416   7.785
28188WAT      O84805   3.788   5.105   0.337
28188WAT     H184806   3.762   5.166   0.262
28188WAT     H284807   3.860   5.044   0.307
28189WAT      O84808   1.551   4.149   4.392
28189WAT     H184809   1.617   4.202   4.338
28189WAT     H284810   1.541   4.191   4.482
28190WAT      O84811   0.384   7.661   8.643
28190WAT     H184812   0.356   7.571   8.608
28190WAT     H284813   0.478   7.679   8.616
28191WAT      O84814   6.643   1.446   9.015
28191WAT     H184815   6.633   1.411   9.108
28191WAT     H284816   6.692   1.379   8.959
28192WAT      O84817   0.010   1.357   1.857
28192WAT     H184818   0.066   1.434   1.825
28192WAT     H284819   0.059   1.272   1.840
28193WAT      O84820   3.251   5.937   9.478
28193WAT     H184821   3.334   5.975   9.518
28193WAT     H284822   3.267   5.916   9.381
28194WAT      O84823   4.591   8.209   9.683
28194WAT     H184824   4.499   8.236   9.655
28194WAT     H284825   4.631   8.281   9.740
28195WAT      O84826   2.672   8.749   8.334
28195WAT     H184827   2.705   8.696   8.255
28195WAT     H284828   2.747   8.762   8.399
28196WAT      O84829   2.058   7.625   7.260
28196WAT     H184830   1.967   7.597   7.290
28196WAT     H284831   2.076   7.718   7.290
28197WAT      O84832   6.376   2.568   2.178
28197WAT     H184833   6.419   2.478   2.188
28197WAT     H284834   6.289   2.558   2.130
28198WAT      O84835   7.321   0.814   0.695
28198WAT     H184836   7.363   0.829   0.785
28198WAT     H284837   7.341   0.721   0.664
28199WAT      O84838   4.417   5.613   1.555
28199WAT     H184839   4.381   5.555   1.482
28199WAT     H284840   4.463   5.692   1.515
28200WAT      O84841   1.382   5.825   2.640
28200WAT     H184842   1.323   5.764   2.587
28200WAT     H284843   1.330   5.904   2.672
28201WAT      O84844   1.914   0.578   6.260
28201WAT     H184845   1.926   0.514   6.336
28201WAT     H284846   1.942   0.669   6.289
28202WAT      O84847   7.287   4.049   0.928
28202WAT     H184848   7.209   4.043   0.866
28202WAT     H284849   7.351   3.975   0.908
28203WAT      O84850   9.643   7.013   5.715
28203WAT     H184851   9.612   7.077   5.785
28203WAT     H284852   9.724   7.049   5.670
28204WAT      O84853   2.708   2.837   4.965
28204WAT     H184854   2.805   2.842   4.945
28204WAT     H284855   2.694   2.792   5.054
28205WAT      O84856   0.208   3.987   3.181
28205WAT     H184857   0.142   4.059   3.157
28205WAT     H284858   0.174   3.935   3.259
28206WAT      O84859   3.265   3.135   8.091
28206WAT     H184860   3.289   3.223   8.048
28206WAT     H284861   3.349   3.083   8.109
28207WAT      O84862   4.523   7.688   8.993
28207WAT     H184863   4.476   7.769   9.029
28207WAT     H284864   4.619   7.711   8.976
28208WAT      O84865   1.633   6.629   5.175
28208WAT     H184866   1.584   6.606   5.091
28208WAT     H284867   1.726   6.658   5.152
28209WAT      O84868   8.867   9.694   8.499
28209WAT     H184869   8.790   9.729   8.552
28209WAT     H284870   8.948   9.750   8.516
28210WAT      O84871   7.775   7.454   2.214
28210WAT     H184872   7.801   7.373   2.162
28210WAT     H284873   7.725   7.518   2.155
28211WAT      O84874   1.007   5.972   3.088
28211WAT     H184875   0.951   5.892   3.109
28211WAT     H284876   1.101   5.957   3.118
28212WAT      O84877   5.051   6.115   4.166
28212WAT     H184878   5.150   6.124   4.150
28212WAT     H284879   5.025   6.019   4.156
28213WAT      O84880   1.615   2.052   3.988
28213WAT     H184881   1.545   2.090   4.049
28213WAT     H284882   1.705   2.064   4.029
28214WAT      O84883   4.214   2.667   5.364
28214WAT     H184884   4.288   2.710   5.312
28214WAT     H284885   4.251   2.628   5.449
28215WAT      O84886   6.253   7.173   6.423
28215WAT     H184887   6.271   7.075   6.431
28215WAT     H284888   6.337   7.221   6.399
28216WAT      O84889   7.632   9.110   2.714
28216WAT     H184890   7.644   9.181   2.644
28216WAT     H284891   7.534   9.094   2.728
28217WAT      O84892   1.175   5.788   5.219
28217WAT     H184893   1.078   5.777   5.244
28217WAT     H284894   1.232   5.761   5.297
28218WAT      O84895   7.544   1.946   0.558
28218WAT     H184896   7.487   1.945   0.475
28218WAT     H284897   7.508   2.012   0.623
28219WAT      O84898   5.439   0.437   4.001
28219WAT     H184899   5.361   0.497   4.018
28219WAT     H284900   5.488   0.420   4.086
28220WAT      O84901   0.054   7.116   5.149
28220WAT     H184902  -0.028   7.121   5.205
28220WAT     H284903   0.116   7.191   5.173
28221WAT      O84904   6.108   0.934   8.581
28221WAT     H184905   6.042   1.010   8.580
28221WAT     H284906   6.114   0.897   8.674
28222WAT      O84907   6.332   3.882   1.190
28222WAT     H184908   6.320   3.864   1.288
28222WAT     H284909   6.243   3.887   1.146
28223WAT      O84910   7.296   7.244   3.832
28223WAT     H184911   7.221   7.296   3.791
28223WAT     H284912   7.272   7.220   3.927
28224WAT      O84913   3.650   7.747   3.578
28224WAT     H184914   3.672   7.729   3.482
28224WAT     H284915   3.553   7.728   3.595
28225WAT      O84916   7.789   0.499   7.690
28225WAT     H184917   7.875   0.453   7.711
28225WAT     H284918   7.733   0.503   7.773
28226WAT      O84919   2.122   4.323   7.649
28226WAT     H184920   2.207   4.364   7.616
28226WAT     H284921   2.099   4.244   7.592
28227WAT      O84922   8.033   4.767   1.896
28227WAT     H184923   8.007   4.750   1.991
28227WAT     H284924   8.066   4.683   1.854
28228WAT      O84925   5.989   6.121   6.026
28228WAT     H184926   5.903   6.094   5.982
28228WAT     H284927   6.010   6.215   6.000
28229WAT      O84928   6.769   9.039   5.847
28229WAT     H184929   6.759   8.948   5.808
28229WAT     H284930   6.861   9.074   5.827
28230WAT      O84931   6.998   4.420   2.928
28230WAT     H184932   7.060   4.497   2.946
28230WAT     H284933   6.948   4.398   3.012
28231WAT      O84934   5.122   0.285   2.494
28231WAT     H184935   5.163   0.341   2.421
28231WAT     H284936   5.166   0.195   2.495
28232WAT      O84937   3.791   1.197   7.172
28232WAT     H184938   3.841   1.278   7.202
28232WAT     H284939   3.834   1.115   7.210
28233WAT      O84940   3.763   2.317   3.993
28233WAT     H184941   3.679   2.263   3.995
28233WAT     H284942   3.780   2.356   4.084
28234WAT      O84943   0.639   3.749   3.229
28234WAT     H184944   0.592   3.803   3.299
28234WAT     H284945   0.572   3.716   3.163
28235WAT      O84946   6.465   4.858   5.413
28235WAT     H184947   6.503   4.889   5.500
28235WAT     H284948   6.369   4.887   5.407
28236WAT      O84949   0.896   2.716   6.271
28236WAT     H184950   0.888   2.815   6.278
28236WAT     H284951   0.824   2.680   6.212
28237WAT      O84952   7.314   3.015   5.644
28237WAT     H184953   7.223   3.015   5.601
28237WAT     H284954   7.308   3.059   5.734
28238WAT      O84955   4.722   4.295   0.484
28238WAT     H184956   4.751   4.358   0.556
28238WAT     H284957   4.626   4.269   0.498
28239WAT      O84958   9.422   8.209   6.320
28239WAT     H184959   9.499   8.151   6.344
28239WAT     H284960   9.336   8.162   6.343
28240WAT      O84961   6.478   0.314   1.962
28240WAT     H184962   6.446   0.308   2.057
28240WAT     H284963   6.468   0.408   1.929
28241WAT      O84964   3.430   3.179   7.003
28241WAT     H184965   3.429   3.162   6.904
28241WAT     H284966   3.351   3.135   7.046
28242WAT      O84967   4.567   6.327   4.274
28242WAT     H184968   4.583   6.368   4.363
28242WAT     H284969   4.474   6.349   4.243
28243WAT      O84970   2.655   8.026   4.765
28243WAT     H184971   2.753   8.007   4.765
28243WAT     H284972   2.605   7.939   4.759
28244WAT      O84973   7.226   8.259   1.872
28244WAT     H184974   7.174   8.196   1.814
28244WAT     H284975   7.203   8.353   1.846
28245WAT      O84976   7.401   7.131   4.879
28245WAT     H184977   7.431   7.127   4.974
28245WAT     H284978   7.455   7.066   4.825
28246WAT      O84979   7.699   4.602   7.117
28246WAT     H184980   7.612   4.559   7.141
28246WAT     H284981   7.768   4.531   7.102
28247WAT      O84982   5.449   1.491   8.023
28247WAT     H184983   5.489   1.488   7.932
28247WAT     H284984   5.360   1.445   8.021
28248WAT      O84985   0.370   5.214   1.881
28248WAT     H184986   0.419   5.251   1.960
28248WAT     H284987   0.297   5.153   1.912
28249WAT      O84988   2.064   5.429   3.269
28249WAT     H184989   2.066   5.348   3.212
28249WAT     H284990   2.027   5.506   3.217
28250WAT      O84991   0.443   9.566   3.773
28250WAT     H184992   0.349   9.602   3.775
28250WAT     H284993   0.508   9.642   3.774
28251WAT      O84994   5.772   7.073   2.755
28251WAT     H184995   5.675   7.093   2.771
28251WAT     H284996   5.782   7.015   2.674
28252WAT      O84997   1.529   7.284   7.405
28252WAT     H184998   1.536   7.239   7.317
28252WAT     H284999   1.446   7.253   7.453
28253WAT      O85000   1.266   1.592   2.906
28253WAT     H185001   1.294   1.593   2.810
28253WAT     H285002   1.179   1.543   2.915
28254WAT      O85003   6.397   7.453   6.287
28254WAT     H185004   6.416   7.420   6.194
28254WAT     H285005   6.454   7.533   6.306
28255WAT      O85006   1.216   8.650   1.135
28255WAT     H185007   1.199   8.694   1.223
28255WAT     H285008   1.298   8.594   1.140
28256WAT      O85009   3.999   3.957   0.338
28256WAT     H185010   4.097   3.975   0.329
28256WAT     H285011   3.977   3.941   0.434
28257WAT      O85012   9.076   1.587   0.149
28257WAT     H185013   9.070   1.643   0.066
28257WAT     H285014   9.122   1.501   0.127
28258WAT      O85015   7.138   2.375   0.752
28258WAT     H185016   7.197   2.456   0.753
28258WAT     H285017   7.104   2.360   0.659
28259WAT      O85018   4.742   9.220   0.570
28259WAT     H185019   4.807   9.186   0.502
28259WAT     H285020   4.726   9.317   0.556
28260WAT      O85021   2.011   2.632   1.214
28260WAT     H185022   1.935   2.691   1.186
28260WAT     H285023   2.090   2.650   1.156
28261WAT      O85024   2.643   4.460   3.634
28261WAT     H185025   2.701   4.432   3.710
28261WAT     H285026   2.567   4.396   3.625
28262WAT      O85027   5.858   5.902   8.320
28262WAT     H185028   5.812   5.855   8.245
28262WAT     H285029   5.802   5.979   8.351
28263WAT      O85030   9.756   4.945   9.707
28263WAT     H185031   9.855   4.950   9.692
28263WAT     H285032   9.734   4.860   9.755
28264WAT      O85033   7.727   9.622   3.802
28264WAT     H185034   7.748   9.676   3.721
28264WAT     H285035   7.784   9.540   3.802
28265WAT      O85036   1.872   6.314   3.304
28265WAT     H185037   1.918   6.225   3.301
28265WAT     H285038   1.929   6.379   3.355
28266WAT      O85039   4.616   5.615   6.978
28266WAT     H185040   4.517   5.612   6.968
28266WAT     H285041   4.640   5.593   7.073
28267WAT      O85042   8.020   4.515   0.915
28267WAT     H185043   8.006   4.546   1.009
28267WAT     H285044   7.946   4.452   0.890
28268WAT      O85045   2.996   9.519   9.054
28268WAT     H185046   3.063   9.583   9.017
28268WAT     H285047   2.912   9.569   9.078
28269WAT      O85048   6.213   0.698   3.361
28269WAT     H185049   6.240   0.628   3.427
28269WAT     H285050   6.114   0.700   3.351
28270WAT      O85051   7.697   3.438   8.533
28270WAT     H185052   7.647   3.450   8.618
28270WAT     H285053   7.715   3.341   8.517
28271WAT      O85054   5.311   2.976   0.739
28271WAT     H185055   5.371   2.974   0.659
28271WAT     H285056   5.343   2.909   0.806
28272WAT      O85057   8.210   2.600   7.483
28272WAT     H185058   8.155   2.646   7.553
28272WAT     H285059   8.301   2.642   7.478
28273WAT      O85060   2.896   8.618   2.452
28273WAT     H185061   2.915   8.703   2.501
28273WAT     H285062   2.964   8.549   2.477
28274WAT      O85063   9.342   6.869   1.342
28274WAT     H185064   9.423   6.815   1.322
28274WAT     H285065   9.370   6.961   1.371
28275WAT      O85066   6.974   2.223   8.080
28275WAT     H185067   7.005   2.287   8.150
28275WAT     H285068   6.876   2.235   8.064
28276WAT      O85069   3.020   4.222   1.998
28276WAT     H185070   3.020   4.281   1.917
28276WAT     H285071   2.956   4.258   2.066
28277WAT      O85072   8.762   6.484   8.678
28277WAT     H185073   8.791   6.401   8.726
28277WAT     H285074   8.813   6.491   8.591
28278WAT      O85075   4.049   8.343   1.826
28278WAT     H185076   4.141   8.305   1.830
28278WAT     H285077   4.045   8.427   1.881
28279WAT      O85078   7.164   3.183   0.605
28279WAT     H185079   7.170   3.130   0.690
28279WAT     H285080   7.246   3.239   0.595
28280WAT      O85081   3.069   6.023   3.420
28280WAT     H185082   2.981   6.045   3.463
28280WAT     H285083   3.130   5.982   3.489
28281WAT      O85084   0.512   3.454   2.210
28281WAT     H185085   0.431   3.395   2.210
28281WAT     H285086   0.593   3.400   2.233
28282WAT      O85087   5.821   2.106   7.578
28282WAT     H185088   5.903   2.077   7.529
28282WAT     H285089   5.766   2.026   7.603
28283WAT      O85090   7.168   8.868   8.702
28283WAT     H185091   7.157   8.845   8.799
28283WAT     H285092   7.250   8.923   8.689
28284WAT      O85093   7.564   5.763   2.301
28284WAT     H185094   7.529   5.682   2.252
28284WAT     H285095   7.600   5.735   2.390
28285WAT      O85096   1.939   5.891   4.601
28285WAT     H185097   1.995   5.833   4.542
28285WAT     H285098   1.845   5.858   4.601
28286WAT      O85099   2.836   6.214   4.557
28286WAT     H185100   2.823   6.143   4.626
28286WAT     H285101   2.906   6.184   4.492
28287WAT      O85102   7.356   4.835   2.606
28287WAT     H185103   7.434   4.842   2.669
28287WAT     H285104   7.300   4.919   2.613
28288WAT      O85105   3.097   7.264   1.107
28288WAT     H185106   3.163   7.195   1.136
28288WAT     H285107   3.082   7.329   1.182
28289WAT      O85108   1.930   8.562   1.003
28289WAT     H185109   1.926   8.587   0.906
28289WAT     H285110   1.975   8.473   1.013
28290WAT      O85111   9.533   8.467   6.409
28290WAT     H185112   9.466   8.513   6.467
28290WAT     H285113   9.497   8.379   6.380
28291WAT      O85114   1.777   3.523   1.785
28291WAT     H185115   1.874   3.542   1.803
28291WAT     H285116   1.767   3.428   1.757
28292WAT      O85117   2.696   7.958   5.676
28292WAT     H185118   2.618   7.915   5.631
28292WAT     H285119   2.663   8.017   5.750
28293WAT      O85120   7.544   7.809   2.986
28293WAT     H185121   7.489   7.749   2.927
28293WAT     H285122   7.632   7.766   3.004
28294WAT      O85123   3.296   8.675   3.729
28294WAT     H185124   3.320   8.752   3.669
28294WAT     H285125   3.341   8.686   3.817
28295WAT      O85126   3.320   4.574   2.379
28295WAT     H185127   3.355   4.634   2.307
28295WAT     H285128   3.391   4.559   2.447
28296WAT      O85129   2.346   2.663   6.012
28296WAT     H185130   2.425   2.715   6.046
28296WAT     H285131   2.376   2.600   5.941
28297WAT      O85132   8.520   3.598   9.250
28297WAT     H185133   8.484   3.562   9.164
28297WAT     H285134   8.584   3.673   9.231
28298WAT      O85135   1.641   7.351   9.523
28298WAT     H185136   1.582   7.372   9.446
28298WAT     H285137   1.697   7.431   9.546
28299WAT      O85138   0.217   1.685   9.060
28299WAT     H185139   0.288   1.711   9.126
28299WAT     H285140   0.150   1.759   9.052
28300WAT      O85141   1.202   7.906   9.704
28300WAT     H185142   1.285   7.958   9.684
28300WAT     H285143   1.144   7.959   9.767
28301WAT      O85144   2.025   9.362   9.857
28301WAT     H185145   1.983   9.405   9.936
28301WAT     H285146   1.961   9.297   9.816
28302WAT      O85147   1.991   8.013   4.084
28302WAT     H185148   2.022   7.965   4.002
28302WAT     H285149   2.065   8.070   4.120
28303WAT      O85150   8.814   2.353   1.387
28303WAT     H185151   8.802   2.255   1.373
28303WAT     H285152   8.725   2.398   1.385
28304WAT      O85153   3.508   2.276   9.070
28304WAT     H185154   3.423   2.298   9.118
28304WAT     H285155   3.527   2.178   9.080
28305WAT      O85156   9.255   0.622   1.131
28305WAT     H185157   9.158   0.643   1.133
28305WAT     H285158   9.308   0.707   1.142
28306WAT      O85159   0.892   7.352   9.742
28306WAT     H185160   0.865   7.442   9.709
28306WAT     H285161   0.961   7.362   9.814
28307WAT      O85162   1.808   9.301   5.167
28307WAT     H185163   1.858   9.376   5.210
28307WAT     H285164   1.724   9.336   5.126
28308WAT      O85165   6.142   8.615   3.927
28308WAT     H185166   6.208   8.558   3.878
28308WAT     H285167   6.183   8.651   4.010
28309WAT      O85168   4.053   9.242   9.461
28309WAT     H185169   4.123   9.198   9.405
28309WAT     H285170   4.054   9.201   9.553
28310WAT      O85171   7.434   3.145   0.361
28310WAT     H185172   7.400   3.212   0.295
28310WAT     H285173   7.528   3.168   0.387
28311WAT      O85174   4.605   5.476   6.120
28311WAT     H185175   4.580   5.392   6.072
28311WAT     H285176   4.702   5.495   6.106
28312WAT      O85177   8.296   1.308   0.655
28312WAT     H185178   8.378   1.273   0.610
28312WAT     H285179   8.321   1.371   0.728
28313WAT      O85180   7.732   6.068   8.184
28313WAT     H185181   7.768   6.073   8.278
28313WAT     H285182   7.804   6.092   8.120
28314WAT      O85183   2.621   5.659   5.237
28314WAT     H185184   2.572   5.626   5.318
28314WAT     H285185   2.719   5.654   5.253
28315WAT      O85186   0.760   8.048   4.213
28315WAT     H185187   0.845   8.004   4.185
28315WAT     H285188   0.777   8.144   4.234
28316WAT      O85189   6.850   3.981   9.464
28316WAT     H185190   6.819   4.039   9.389
28316WAT     H285191   6.903   3.904   9.427
28317WAT      O85192   9.256   2.493   4.777
28317WAT     H185193   9.309   2.515   4.695
28317WAT     H285194   9.184   2.562   4.790
28318WAT      O85195   4.647   3.118   0.064
28318WAT     H185196   4.708   3.196   0.051
28318WAT     H285197   4.618   3.113   0.160
28319WAT      O85198   7.054   0.479   9.239
28319WAT     H185199   7.151   0.504   9.240
28319WAT     H285200   7.008   0.528   9.165
28320WAT      O85201   0.191   6.702   1.841
28320WAT     H185202   0.188   6.664   1.749
28320WAT     H285203   0.225   6.634   1.905
28321WAT      O85204   6.282   4.869   0.930
28321WAT     H185205   6.228   4.949   0.901
28321WAT     H285206   6.368   4.867   0.881
28322WAT      O85207   7.743   5.539   7.177
28322WAT     H185208   7.811   5.611   7.165
28322WAT     H285209   7.788   5.455   7.209
28323WAT      O85210   5.044   9.032   9.000
28323WAT     H185211   5.031   8.933   9.002
28323WAT     H285212   4.960   9.075   8.966
28324WAT      O85213   9.461   0.340   8.171
28324WAT     H185214   9.394   0.326   8.245
28324WAT     H285215   9.425   0.302   8.086
28325WAT      O85216   4.398   0.926   1.510
28325WAT     H185217   4.304   0.910   1.481
28325WAT     H285218   4.404   0.920   1.610
28326WAT      O85219   4.114   9.313   8.781
28326WAT     H185220   4.039   9.285   8.721
28326WAT     H285221   4.174   9.376   8.731
28327WAT      O85222   9.493   7.331   5.035
28327WAT     H185223   9.458   7.395   5.104
28327WAT     H285224   9.522   7.246   5.081
28328WAT      O85225   3.866   3.499   3.097
28328WAT     H185226   3.805   3.563   3.143
28328WAT     H285227   3.957   3.503   3.139
28329WAT      O85228   7.726   4.119   3.501
28329WAT     H185229   7.732   4.214   3.530
28329WAT     H285230   7.806   4.068   3.532
28330WAT      O85231   6.278   3.352   6.926
28330WAT     H185232   6.256   3.255   6.913
28330WAT     H285233   6.376   3.365   6.915
28331WAT      O85234   5.457   1.410   8.935
28331WAT     H185235   5.516   1.338   8.972
28331WAT     H285236   5.441   1.479   9.005
28332WAT      O85237   3.169   1.492   0.720
28332WAT     H185238   3.115   1.410   0.737
28332WAT     H285239   3.227   1.479   0.640
28333WAT      O85240   1.086   6.546   8.461
28333WAT     H185241   1.005   6.573   8.513
28333WAT     H285242   1.087   6.446   8.452
28334WAT      O85243   8.766   8.651   1.595
28334WAT     H185244   8.759   8.749   1.613
28334WAT     H285245   8.733   8.600   1.674
28335WAT      O85246   3.978   8.611   4.884
28335WAT     H185247   3.984   8.707   4.909
28335WAT     H285248   3.901   8.569   4.932
28336WAT      O85249   2.738   3.485   0.662
28336WAT     H185250   2.740   3.508   0.565
28336WAT     H285251   2.781   3.559   0.715
28337WAT      O85252   8.936   7.408   4.858
28337WAT     H185253   8.994   7.393   4.777
28337WAT     H285254   8.886   7.494   4.848
28338WAT      O85255   2.860   7.480   2.764
28338WAT     H185256   2.951   7.518   2.785
28338WAT     H285257   2.817   7.535   2.693
28339WAT      O85258   4.234   7.091   0.093
28339WAT     H185259   4.225   7.130   0.001
28339WAT     H285260   4.229   6.991   0.087
28340WAT      O85261   8.042   1.942   1.425
28340WAT     H185262   8.041   1.846   1.397
28340WAT     H285263   8.067   1.949   1.522
28341WAT      O85264   3.411   6.498   3.386
28341WAT     H185265   3.346   6.482   3.311
28341WAT     H285266   3.362   6.531   3.466
28342WAT      O85267   3.357   6.681   3.601
28342WAT     H185268   3.328   6.639   3.687
28342WAT     H285269   3.378   6.778   3.617
28343WAT      O85270   9.072   1.327   1.657
28343WAT     H185271   9.142   1.293   1.594
28343WAT     H285272   8.990   1.351   1.605
28344WAT      O85273   7.006   1.740   7.032
28344WAT     H185274   6.943   1.812   7.004
28344WAT     H285275   6.993   1.721   7.130
28345WAT      O85276   8.806   8.126   1.232
28345WAT     H185277   8.836   8.091   1.320
28345WAT     H285278   8.796   8.226   1.237
28346WAT      O85279   0.336   4.576   9.144
28346WAT     H185280   0.245   4.598   9.178
28346WAT     H285281   0.385   4.661   9.122
28347WAT      O85282   7.081   4.856   4.622
28347WAT     H185283   7.149   4.812   4.680
28347WAT     H285284   7.010   4.899   4.678
28348WAT      O85285   9.409   2.217   5.332
28348WAT     H185286   9.339   2.153   5.362
28348WAT     H285287   9.454   2.182   5.250
28349WAT      O85288   6.838   3.691   7.286
28349WAT     H185289   6.903   3.768   7.286
28349WAT     H285290   6.887   3.606   7.268
28350WAT      O85291   5.083   0.862   5.459
28350WAT     H185292   5.164   0.920   5.465
28350WAT     H285293   5.083   0.796   5.534
28351WAT      O85294   4.499   9.158   4.948
28351WAT     H185295   4.415   9.150   5.002
28351WAT     H285296   4.477   9.147   4.851
28352WAT      O85297   5.745   5.213   9.748
28352WAT     H185298   5.695   5.153   9.686
28352WAT     H285299   5.682   5.279   9.789
28353WAT      O85300   2.568   9.449   8.055
28353WAT     H185301   2.505   9.478   7.983
28353WAT     H285302   2.611   9.362   8.029
28354WAT      O85303   3.646   4.477   6.641
28354WAT     H185304   3.721   4.428   6.597
28354WAT     H285305   3.588   4.519   6.571
28355WAT      O85306   8.823   1.840   7.283
28355WAT     H185307   8.739   1.791   7.260
28355WAT     H285308   8.849   1.818   7.377
28356WAT      O85309   7.155   3.246   7.197
28356WAT     H185310   7.141   3.181   7.272
28356WAT     H285311   7.190   3.198   7.117
28357WAT      O85312   5.932   6.966   7.572
28357WAT     H185313   5.863   6.953   7.643
28357WAT     H285314   6.015   7.004   7.613
28358WAT      O85315   2.969   7.257   0.871
28358WAT     H185316   2.976   7.335   0.809
28358WAT     H285317   2.991   7.286   0.964
28359WAT      O85318   1.464   9.747   0.624
28359WAT     H185319   1.482   9.764   0.721
28359WAT     H285320   1.548   9.759   0.572
28360WAT      O85321   4.632   3.612   9.143
28360WAT     H185322   4.539   3.636   9.168
28360WAT     H285323   4.651   3.518   9.173
28361WAT      O85324   4.160   3.518   3.160
28361WAT     H185325   4.244   3.566   3.135
28361WAT     H285326   4.182   3.432   3.206
28362WAT      O85327   1.852   6.323   9.012
28362WAT     H185328   1.930   6.285   9.060
28362WAT     H285329   1.843   6.280   8.922
28363WAT      O85330   2.364   7.187   7.250
28363WAT     H185331   2.393   7.173   7.155
28363WAT     H285332   2.416   7.263   7.290
28364WAT      O85333   1.036   2.479   6.316
28364WAT     H185334   0.964   2.548   6.304
28364WAT     H285335   1.107   2.514   6.377
28365WAT      O85336   8.515   8.360   8.664
28365WAT     H185337   8.557   8.419   8.733
28365WAT     H285338   8.466   8.286   8.708
28366WAT      O85339   8.834   0.752   3.155
28366WAT     H185340   8.883   0.691   3.218
28366WAT     H285341   8.735   0.736   3.164
28367WAT      O85342   3.820   0.272   7.817
28367WAT     H185343   3.836   0.352   7.759
28367WAT     H285344   3.900   0.256   7.875
28368WAT      O85345   0.561   0.810   4.365
28368WAT     H185346   0.596   0.903   4.377
28368WAT     H285347   0.626   0.757   4.311
28369WAT      O85348   8.794   6.870   5.616
28369WAT     H185349   8.892   6.889   5.613
28369WAT     H285350   8.780   6.772   5.631
28370WAT      O85351   0.793   4.810   9.847
28370WAT     H185352   0.734   4.841   9.773
28370WAT     H285353   0.794   4.710   9.851
28371WAT      O85354   1.112   2.431   0.537
28371WAT     H185355   1.196   2.481   0.515
28371WAT     H285356   1.053   2.427   0.457
28372WAT      O85357   3.232   3.104   4.344
28372WAT     H185358   3.213   3.056   4.258
28372WAT     H285359   3.311   3.164   4.332
28373WAT      O85360   3.368   4.487   0.934
28373WAT     H185361   3.290   4.548   0.950
28373WAT     H285362   3.375   4.421   1.009
28374WAT      O85363   0.815   9.273   8.641
28374WAT     H185364   0.791   9.213   8.717
28374WAT     H285365   0.770   9.240   8.558
28375WAT      O85366   3.876   4.344   2.920
28375WAT     H185367   3.843   4.429   2.878
28375WAT     H285368   3.840   4.266   2.869
28376WAT      O85369   6.614   6.953   9.066
28376WAT     H185370   6.593   6.868   9.018
28376WAT     H285371   6.569   7.029   9.020
28377WAT      O85372   8.290   5.128   5.100
28377WAT     H185373   8.191   5.115   5.091
28377WAT     H285374   8.338   5.045   5.073
28378WAT      O85375   5.559   3.397   6.669
28378WAT     H185376   5.631   3.416   6.601
28378WAT     H285377   5.575   3.308   6.710
28379WAT      O85378   1.299   9.310   9.092
28379WAT     H185379   1.236   9.234   9.109
28379WAT     H285380   1.305   9.328   8.994
28380WAT      O85381   0.345   1.208   8.694
28380WAT     H185382   0.256   1.253   8.691
28380WAT     H285383   0.342   1.125   8.638
28381WAT      O85384   2.494   7.601   3.402
28381WAT     H185385   2.570   7.540   3.425
28381WAT     H285386   2.494   7.679   3.465
28382WAT      O85387   6.067   2.256   7.390
28382WAT     H185388   6.155   2.260   7.343
28382WAT     H285389   6.033   2.162   7.391
28383WAT      O85390   6.525   2.691   8.128
28383WAT     H185391   6.544   2.647   8.040
28383WAT     H285392   6.426   2.697   8.141
28384WAT      O85393   5.987   4.250   9.640
28384WAT     H185394   5.910   4.262   9.702
28384WAT     H285395   5.987   4.157   9.604
28385WAT      O85396   3.338   0.338   7.895
28385WAT     H185397   3.408   0.267   7.904
28385WAT     H285398   3.301   0.358   7.986
28386WAT      O85399   5.219   2.758   2.890
28386WAT     H185400   5.304   2.810   2.878
28386WAT     H285401   5.219   2.679   2.829
28387WAT      O85402   6.443   3.711   6.620
28387WAT     H185403   6.513   3.700   6.550
28387WAT     H285404   6.369   3.769   6.584
28388WAT      O85405   1.039   5.254   8.543
28388WAT     H185406   1.135   5.270   8.566
28388WAT     H285407   0.981   5.318   8.595
28389WAT      O85408   7.819   9.767   0.831
28389WAT     H185409   7.886   9.783   0.758
28389WAT     H285410   7.729   9.756   0.790
28390WAT      O85411   8.184   7.699   0.195
28390WAT     H185412   8.229   7.787   0.176
28390WAT     H285413   8.173   7.649   0.110
28391WAT      O85414   3.339   0.745   5.828
28391WAT     H185415   3.439   0.751   5.833
28391WAT     H285416   3.311   0.741   5.733
28392WAT      O85417   9.748   2.227   0.321
28392WAT     H185418   9.827   2.265   0.368
28392WAT     H285419   9.674   2.295   0.319
28393WAT      O85420   7.199   6.993   5.186
28393WAT     H185421   7.246   6.911   5.156
28393WAT     H285422   7.121   7.011   5.126
28394WAT      O85423   6.446   6.426   2.279
28394WAT     H185424   6.406   6.485   2.348
28394WAT     H285425   6.534   6.464   2.250
28395WAT      O85426   8.242   6.796   3.348
28395WAT     H185427   8.333   6.765   3.320
28395WAT     H285428   8.190   6.825   3.268
28396WAT      O85429   7.339   1.935   8.557
28396WAT     H185430   7.336   2.023   8.510
28396WAT     H285431   7.383   1.867   8.499
28397WAT      O85432   2.537   6.252   2.292
28397WAT     H185433   2.438   6.237   2.297
28397WAT     H285434   2.583   6.163   2.290
28398WAT      O85435   6.740   3.235   7.501
28398WAT     H185436   6.751   3.211   7.405
28398WAT     H285437   6.761   3.155   7.558
28399WAT      O85438   5.662   5.752   5.586
28399WAT     H185439   5.583   5.694   5.608
28399WAT     H285440   5.714   5.711   5.511
28400WAT      O85441   4.034   2.209   6.746
28400WAT     H185442   3.951   2.158   6.727
28400WAT     H285443   4.083   2.227   6.661
28401WAT      O85444   8.208   6.157   4.461
28401WAT     H185445   8.216   6.257   4.463
28401WAT     H285446   8.280   6.117   4.518
28402WAT      O85447   4.179   6.212   6.301
28402WAT     H185448   4.157   6.266   6.382
28402WAT     H285449   4.208   6.273   6.227
28403WAT      O85450   4.430   3.461   2.040
28403WAT     H185451   4.511   3.414   2.075
28403WAT     H285452   4.432   3.461   1.940
28404WAT      O85453   8.643   7.457   7.243
28404WAT     H185454   8.701   7.538   7.238
28404WAT     H285455   8.660   7.408   7.328
28405WAT      O85456   6.690   9.660   0.917
28405WAT     H185457   6.695   9.656   0.817
28405WAT     H285458   6.781   9.646   0.955
28406WAT      O85459   4.733   1.642   2.590
28406WAT     H185460   4.764   1.737   2.589
28406WAT     H285461   4.681   1.624   2.506
28407WAT      O85462   5.091   9.192   9.221
28407WAT     H185463   5.093   9.140   9.135
28407WAT     H285464   4.996   9.202   9.251
28408WAT      O85465   6.994   2.069   7.275
28408WAT     H185466   7.060   2.002   7.311
28408WAT     H285467   6.933   2.098   7.349
28409WAT      O85468   8.352   5.925   3.273
28409WAT     H185469   8.299   5.957   3.352
28409WAT     H285470   8.290   5.887   3.204
28410WAT      O85471   8.329   3.083   1.679
28410WAT     H185472   8.386   3.159   1.648
28410WAT     H285473   8.349   3.001   1.625
28411WAT      O85474   2.281   0.653   0.638
28411WAT     H185475   2.242   0.591   0.706
28411WAT     H285476   2.232   0.740   0.640
28412WAT      O85477   7.898   8.929   7.559
28412WAT     H185478   7.970   8.927   7.490
28412WAT     H285479   7.939   8.924   7.650
28413WAT      O85480   4.451   6.367   5.285
28413WAT     H185481   4.413   6.342   5.196
28413WAT     H285482   4.428   6.463   5.306
28414WAT      O85483   4.509  -0.004   2.846
28414WAT     H185484   4.487   0.031   2.937
28414WAT     H285485   4.502   0.069   2.779
28415WAT      O85486   4.296   4.788   1.888
28415WAT     H185487   4.291   4.760   1.984
28415WAT     H285488   4.248   4.876   1.877
28416WAT      O85489   2.947   9.510   7.813
28416WAT     H185490   2.925   9.415   7.792
28416WAT     H285491   3.028   9.514   7.872
28417WAT      O85492   5.280   4.892   3.505
28417WAT     H185493   5.311   4.895   3.600
28417WAT     H285494   5.193   4.941   3.497
28418WAT      O85495   1.580   8.250   7.641
28418WAT     H185496   1.527   8.203   7.711
28418WAT     H285497   1.524   8.322   7.599
28419WAT      O85498   5.048   2.097   6.524
28419WAT     H185499   5.045   2.164   6.449
28419WAT     H285500   5.060   2.005   6.486
28420WAT      O85501   8.722   5.122   5.243
28420WAT     H185502   8.704   5.141   5.147
28420WAT     H285503   8.778   5.040   5.252
28421WAT      O85504   7.720   1.993   1.367
28421WAT     H185505   7.715   1.943   1.453
28421WAT     H285506   7.780   2.073   1.378
28422WAT      O85507   3.809   1.077   5.853
28422WAT     H185508   3.848   0.994   5.892
28422WAT     H285509   3.724   1.100   5.900
28423WAT      O85510   5.479   7.751   9.472
28423WAT     H185511   5.402   7.711   9.522
28423WAT     H285512   5.538   7.801   9.536
28424WAT      O85513   6.109   1.021   6.477
28424WAT     H185514   6.038   1.070   6.427
28424WAT     H285515   6.067   0.968   6.551
28425WAT      O85516   0.527   9.619   9.275
28425WAT     H185517   0.624   9.631   9.293
28425WAT     H285518   0.513   9.584   9.183
28426WAT      O85519   2.829   1.589   0.245
28426WAT     H185520   2.746   1.533   0.245
28426WAT     H285521   2.844   1.627   0.336
28427WAT      O85522   9.249   1.211   0.661
28427WAT     H185523   9.245   1.267   0.743
28427WAT     H285524   9.258   1.269   0.580
28428WAT      O85525   2.256   4.204   9.502
28428WAT     H185526   2.292   4.266   9.572
28428WAT     H285527   2.162   4.178   9.526
28429WAT      O85528   9.598   1.849   9.225
28429WAT     H185529   9.537   1.863   9.148
28429WAT     H285530   9.675   1.792   9.197
28430WAT      O85531   3.866   3.612   3.692
28430WAT     H185532   3.813   3.625   3.608
28430WAT     H285533   3.823   3.543   3.748
28431WAT      O85534   3.143   5.870   3.201
28431WAT     H185535   3.097   5.918   3.276
28431WAT     H285536   3.076   5.828   3.141
28432WAT      O85537   4.859   7.131   2.120
28432WAT     H185538   4.805   7.209   2.150
28432WAT     H285539   4.925   7.160   2.051
28433WAT      O85540   1.773   2.414   1.081
28433WAT     H185541   1.792   2.323   1.046
28433WAT     H285542   1.761   2.410   1.180
28434WAT      O85543   6.059   9.217   2.465
28434WAT     H185544   6.088   9.307   2.432
28434WAT     H285545   5.963   9.221   2.495
28435WAT      O85546   5.849   8.351   0.600
28435WAT     H185547   5.890   8.437   0.631
28435WAT     H285548   5.864   8.280   0.669
28436WAT      O85549   8.492   9.740   2.350
28436WAT     H185550   8.517   9.783   2.263
28436WAT     H285551   8.393   9.732   2.356
28437WAT      O85552   3.587   3.418   8.463
28437WAT     H185553   3.494   3.449   8.446
28437WAT     H285554   3.651   3.483   8.421
28438WAT      O85555   8.846   2.790   1.486
28438WAT     H185556   8.755   2.760   1.516
28438WAT     H285557   8.836   2.867   1.423
28439WAT      O85558   1.384   0.465   7.095
28439WAT     H185559   1.454   0.461   7.166
28439WAT     H285560   1.318   0.537   7.117
28440WAT      O85561   2.832   5.589   1.930
28440WAT     H185562   2.749   5.534   1.922
28440WAT     H285563   2.843   5.619   2.025
28441WAT      O85564   9.769   2.838   9.353
28441WAT     H185565   9.670   2.825   9.353
28441WAT     H285566   9.810   2.771   9.415
28442WAT      O85567   4.910   5.750   2.685
28442WAT     H185568   4.952   5.660   2.700
28442WAT     H285569   4.861   5.750   2.598
28443WAT      O85570   1.920   1.439   5.631
28443WAT     H185571   1.901   1.380   5.553
28443WAT     H285572   1.851   1.511   5.634
28444WAT      O85573   4.371   3.251   1.629
28444WAT     H185574   4.458   3.293   1.652
28444WAT     H285575   4.350   3.179   1.696
28445WAT      O85576   4.799   2.700   5.150
28445WAT     H185577   4.866   2.744   5.209
28445WAT     H285578   4.833   2.611   5.122
28446WAT      O85579   0.716   6.930   9.828
28446WAT     H185580   0.735   6.975   9.740
28446WAT     H285581   0.669   6.843   9.811
28447WAT      O85582   2.668   1.110   6.073
28447WAT     H185583   2.609   1.032   6.090
28447WAT     H285584   2.703   1.145   6.160
28448WAT      O85585   0.448   7.826   0.512
28448WAT     H185586   0.493   7.845   0.425
28448WAT     H285587   0.378   7.757   0.498
28449WAT      O85588   3.408   2.224   3.568
28449WAT     H185589   3.332   2.279   3.533
28449WAT     H285590   3.470   2.200   3.493
28450WAT      O85591   4.329   9.020   3.436
28450WAT     H185592   4.315   8.965   3.518
28450WAT     H285593   4.259   8.996   3.368
28451WAT      O85594   0.138   5.980   2.754
28451WAT     H185595   0.061   5.921   2.781
28451WAT     H285596   0.142   6.059   2.816
28452WAT      O85597   1.334   7.310   0.494
28452WAT     H185598   1.367   7.234   0.551
28452WAT     H285599   1.309   7.275   0.404
28453WAT      O85600   5.287   4.872   4.246
28453WAT     H185601   5.279   4.923   4.161
28453WAT     H285602   5.327   4.782   4.228
28454WAT      O85603   6.114   2.701   4.917
28454WAT     H185604   6.151   2.726   4.827
28454WAT     H285605   6.035   2.641   4.905
28455WAT      O85606   8.577   3.327   9.360
28455WAT     H185607   8.567   3.414   9.312
28455WAT     H285608   8.599   3.344   9.456
28456WAT      O85609   7.061   2.283   3.979
28456WAT     H185610   7.074   2.204   4.039
28456WAT     H285611   7.148   2.307   3.936
28457WAT      O85612   0.154   6.921   6.726
28457WAT     H185613   0.248   6.886   6.735
28457WAT     H285614   0.109   6.919   6.815
28458WAT      O85615   4.313   4.040   7.107
28458WAT     H185616   4.367   4.085   7.036
28458WAT     H285617   4.367   4.033   7.191
28459WAT      O85618   7.842   2.214   5.349
28459WAT     H185619   7.828   2.299   5.298
28459WAT     H285620   7.912   2.159   5.304
28460WAT      O85621   1.006   0.555   8.509
28460WAT     H185622   1.004   0.498   8.591
28460WAT     H285623   1.032   0.500   8.430
28461WAT      O85624   8.620   5.707   4.438
28461WAT     H185625   8.657   5.762   4.363
28461WAT     H285626   8.558   5.764   4.492
28462WAT      O85627   6.536   7.911   1.571
28462WAT     H185628   6.538   7.965   1.656
28462WAT     H285629   6.584   7.961   1.500
28463WAT      O85630   1.224   0.798   2.889
28463WAT     H185631   1.232   0.706   2.926
28463WAT     H285632   1.152   0.848   2.938
28464WAT      O85633   4.160   0.115   0.983
28464WAT     H185634   4.126   0.209   0.990
28464WAT     H285635   4.143   0.067   1.069
28465WAT      O85636   1.975   5.868   1.970
28465WAT     H185637   2.072   5.857   1.948
28465WAT     H285638   1.961   5.846   2.066
28466WAT      O85639   2.159   5.651   5.645
28466WAT     H185640   2.182   5.704   5.563
28466WAT     H285641   2.154   5.713   5.724
28467WAT      O85642   1.235   1.591   8.537
28467WAT     H185643   1.204   1.527   8.466
28467WAT     H285644   1.289   1.663   8.496
28468WAT      O85645   8.617   2.201   3.868
28468WAT     H185646   8.605   2.237   3.961
28468WAT     H285647   8.547   2.240   3.808
28469WAT      O85648   0.797   2.159   6.185
28469WAT     H185649   0.736   2.083   6.205
28469WAT     H285650   0.859   2.134   6.111
28470WAT      O85651   9.042   9.685   3.871
28470WAT     H185652   9.007   9.594   3.894
28470WAT     H285653   9.128   9.701   3.918
28471WAT      O85654   6.983   0.230   7.442
28471WAT     H185655   7.042   0.226   7.361
28471WAT     H285656   6.963   0.325   7.464
28472WAT      O85657   1.836   7.747   2.659
28472WAT     H185658   1.846   7.799   2.574
28472WAT     H285659   1.852   7.808   2.737
28473WAT      O85660   1.812   4.603   1.918
28473WAT     H185661   1.774   4.654   1.841
28473WAT     H285662   1.803   4.505   1.901
28474WAT      O85663   8.826   3.177   4.632
28474WAT     H185664   8.863   3.085   4.618
28474WAT     H285665   8.880   3.225   4.701
28475WAT      O85666   9.125   4.189   6.644
28475WAT     H185667   9.128   4.216   6.741
28475WAT     H285668   9.092   4.094   6.638
28476WAT      O85669   5.135   4.335   2.204
28476WAT     H185670   5.146   4.243   2.166
28476WAT     H285671   5.104   4.397   2.132
28477WAT      O85672   1.203   2.595   3.285
28477WAT     H185673   1.144   2.550   3.218
28477WAT     H285674   1.150   2.619   3.366
28478WAT      O85675   5.230   9.555   7.280
28478WAT     H185676   5.211   9.457   7.270
28478WAT     H285677   5.212   9.601   7.193
28479WAT      O85678   9.452   2.969   0.377
28479WAT     H185679   9.359   2.994   0.350
28479WAT     H285680   9.477   2.882   0.334
28480WAT      O85681   3.944   3.993   6.214
28480WAT     H185682   4.025   3.954   6.172
28480WAT     H285683   3.966   4.024   6.307
28481WAT      O85684   6.850   9.722   2.426
28481WAT     H185685   6.775   9.779   2.395
28481WAT     H285686   6.886   9.759   2.512
28482WAT      O85687   6.151   9.464   6.988
28482WAT     H185688   6.182   9.378   7.028
28482WAT     H285689   6.085   9.445   6.915
28483WAT      O85690   4.300   9.281   2.770
28483WAT     H185691   4.327   9.208   2.832
28483WAT     H285692   4.338   9.265   2.680
28484WAT      O85693   9.199   4.374   9.290
28484WAT     H185694   9.163   4.318   9.215
28484WAT     H285695   9.132   4.377   9.364
28485WAT      O85696   4.390   7.662   2.463
28485WAT     H185697   4.310   7.689   2.516
28485WAT     H285698   4.464   7.636   2.524
28486WAT      O85699   5.277   0.344   9.123
28486WAT     H185700   5.215   0.277   9.082
28486WAT     H285701   5.358   0.355   9.066
28487WAT      O85702   1.685   8.416   7.339
28487WAT     H185703   1.620   8.491   7.331
28487WAT     H285704   1.717   8.409   7.433
28488WAT      O85705   4.693   3.463   8.434
28488WAT     H185706   4.624   3.532   8.458
28488WAT     H285707   4.676   3.379   8.485
28489WAT      O85708   1.865   1.955   0.277
28489WAT     H185709   1.959   1.935   0.305
28489WAT     H285710   1.840   1.895   0.201
28490WAT      O85711   5.998   3.449   0.396
28490WAT     H185712   5.941   3.366   0.400
28490WAT     H285713   5.993   3.497   0.484
28491WAT      O85714   4.859   3.669   4.455
28491WAT     H185715   4.916   3.629   4.526
28491WAT     H285716   4.910   3.672   4.368
28492WAT      O85717   0.513   3.659   7.755
28492WAT     H185718   0.552   3.722   7.823
28492WAT     H285719   0.479   3.712   7.677
28493WAT      O85720   2.053   8.656   1.215
28493WAT     H185721   1.993   8.631   1.139
28493WAT     H285722   1.997   8.681   1.295
28494WAT      O85723   0.062   8.439   6.374
28494WAT     H185724   0.124   8.483   6.309
28494WAT     H285725  -0.013   8.501   6.397
28495WAT      O85726   3.831   4.765   4.477
28495WAT     H185727   3.842   4.781   4.379
28495WAT     H285728   3.799   4.671   4.492
28496WAT      O85729   6.464   8.149   3.214
28496WAT     H185730   6.397   8.211   3.254
28496WAT     H285731   6.419   8.066   3.181
28497WAT      O85732   4.431   7.391   5.373
28497WAT     H185733   4.469   7.317   5.316
28497WAT     H285734   4.457   7.376   5.468
28498WAT      O85735   2.125   0.683   9.473
28498WAT     H185736   2.032   0.648   9.460
28498WAT     H285737   2.186   0.606   9.494
28499WAT      O85738   4.119   1.953   2.015
28499WAT     H185739   4.183   2.009   2.068
28499WAT     H285740   4.170   1.895   1.952
28500WAT      O85741   3.263   9.102   6.067
28500WAT     H185742   3.359   9.093   6.091
28500WAT     H285743   3.251   9.181   6.006
28501WAT      O85744   9.284   8.506   3.006
28501WAT     H185745   9.217   8.519   3.080
28501WAT     H285746   9.253   8.555   2.925
28502WAT      O85747   6.032   9.516   1.522
28502WAT     H185748   6.073   9.450   1.585
28502WAT     H285749   6.010   9.600   1.572
28503WAT      O85750   5.936   6.314   8.376
28503WAT     H185751   5.849   6.302   8.424
28503WAT     H285752   5.937   6.405   8.333
28504WAT      O85753   6.558   0.727   1.081
28504WAT     H185754   6.621   0.723   1.003
28504WAT     H285755   6.572   0.813   1.130
28505WAT      O85756   8.077   7.612   3.880
28505WAT     H185757   8.173   7.596   3.859
28505WAT     H285758   8.035   7.527   3.912
28506WAT      O85759   1.438   4.462   2.915
28506WAT     H185760   1.452   4.365   2.898
28506WAT     H285761   1.526   4.507   2.929
28507WAT      O85762   6.828   0.970   2.775
28507WAT     H185763   6.780   1.030   2.711
28507WAT     H285764   6.873   1.025   2.845
28508WAT      O85765   5.127   3.603   1.457
28508WAT     H185766   5.053   3.631   1.518
28508WAT     H285767   5.091   3.583   1.366
28509WAT      O85768   0.182   5.079   9.694
28509WAT     H185769   0.164   5.082   9.596
28509WAT     H285770   0.164   5.168   9.734
28510WAT      O85771   3.322   9.261   3.705
28510WAT     H185772   3.319   9.251   3.804
28510WAT     H285773   3.258   9.197   3.663
28511WAT      O85774   9.135   6.118   2.079
28511WAT     H185775   9.045   6.123   2.036
28511WAT     H285776   9.194   6.057   2.026
28512WAT      O85777   4.348   9.575   6.046
28512WAT     H185778   4.268   9.622   6.009
28512WAT     H285779   4.347   9.479   6.018
28513WAT      O85780   6.920   1.487   5.131
28513WAT     H185781   6.834   1.537   5.137
28513WAT     H285782   6.913   1.403   5.185
28514WAT      O85783   4.924   5.219   4.657
28514WAT     H185784   5.014   5.226   4.614
28514WAT     H285785   4.894   5.124   4.656
28515WAT      O85786   9.194   0.479   0.372
28515WAT     H185787   9.228   0.450   0.462
28515WAT     H285788   9.272   0.505   0.314
28516WAT      O85789   2.324   1.004   2.060
28516WAT     H185790   2.386   0.988   2.137
28516WAT     H285791   2.361   0.960   1.978
28517WAT      O85792   3.952   8.652   4.618
28517WAT     H185793   3.908   8.742   4.622
28517WAT     H285794   3.986   8.627   4.709
28518WAT      O85795   8.319   2.697   8.490
28518WAT     H185796   8.280   2.752   8.563
28518WAT     H285797   8.256   2.696   8.412
28519WAT      O85798   2.764   3.516   6.718
28519WAT     H185799   2.792   3.570   6.638
28519WAT     H285800   2.776   3.571   6.801
28520WAT      O85801   8.727   0.902   9.466
28520WAT     H185802   8.753   0.978   9.526
28520WAT     H285803   8.656   0.933   9.402
28521WAT      O85804   9.769   2.069   8.103
28521WAT     H185805   9.715   2.008   8.045
28521WAT     H285806   9.778   2.158   8.059
28522WAT      O85807   1.336   2.465   2.953
28522WAT     H185808   1.245   2.476   2.992
28522WAT     H285809   1.328   2.446   2.855
28523WAT      O85810   2.711   1.325   9.862
28523WAT     H185811   2.673   1.366   9.945
28523WAT     H285812   2.649   1.342   9.785
28524WAT      O85813   9.674   7.106   2.805
28524WAT     H185814   9.696   7.110   2.903
28524WAT     H285815   9.611   7.180   2.782
28525WAT      O85816   5.350   5.896   2.025
28525WAT     H185817   5.360   5.876   2.122
28525WAT     H285818   5.397   5.826   1.971
28526WAT      O85819   5.798   3.773   3.120
28526WAT     H185820   5.801   3.873   3.111
28526WAT     H285821   5.774   3.733   3.032
28527WAT      O85822   8.323   0.129   4.478
28527WAT     H185823   8.395   0.164   4.418
28527WAT     H285824   8.292   0.040   4.444
28528WAT      O85825   7.362   0.704   9.579
28528WAT     H185826   7.304   0.754   9.517
28528WAT     H285827   7.454   0.694   9.539
28529WAT      O85828   0.073   0.900   7.492
28529WAT     H185829   0.041   0.988   7.456
28529WAT     H285830   0.116   0.848   7.419
28530WAT      O85831   5.234   0.839   2.042
28530WAT     H185832   5.333   0.836   2.024
28530WAT     H285833   5.209   0.932   2.068
28531WAT      O85834   0.772   2.447   1.926
28531WAT     H185835   0.727   2.366   1.966
28531WAT     H285836   0.706   2.496   1.869
28532WAT      O85837   6.277   1.647   6.579
28532WAT     H185838   6.303   1.714   6.510
28532WAT     H285839   6.184   1.667   6.613
28533WAT      O85840   2.416   0.839   8.401
28533WAT     H185841   2.464   0.806   8.483
28533WAT     H285842   2.479   0.839   8.323
28534WAT      O85843   2.208   2.863   5.840
28534WAT     H185844   2.232   2.939   5.900
28534WAT     H285845   2.213   2.777   5.892
28535WAT      O85846   3.184   9.554   0.988
28535WAT     H185847   3.147   9.604   0.910
28535WAT     H285848   3.117   9.555   1.063
28536WAT      O85849   7.068   7.323   2.599
28536WAT     H185850   7.143   7.286   2.543
28536WAT     H285851   7.028   7.249   2.653
28537WAT      O85852   8.464   8.484   4.761
28537WAT     H185853   8.511   8.544   4.696
28537WAT     H285854   8.401   8.425   4.712
28538WAT      O85855   8.394   8.398   5.554
28538WAT     H185856   8.424   8.486   5.591
28538WAT     H285857   8.318   8.363   5.609
28539WAT      O85858   6.509   9.699   2.926
28539WAT     H185859   6.608   9.709   2.925
28539WAT     H285860   6.466   9.789   2.914
28540WAT      O85861   5.909   5.185   8.941
28540WAT     H185862   5.878   5.124   8.868
28540WAT     H285863   5.971   5.136   9.002
28541WAT      O85864   4.660   7.164   9.031
28541WAT     H185865   4.652   7.170   9.130
28541WAT     H285866   4.638   7.253   8.990
28542WAT      O85867   2.817   5.458   8.056
28542WAT     H185868   2.858   5.484   8.143
28542WAT     H285869   2.757   5.379   8.070
28543WAT      O85870   2.519   8.470   0.204
28543WAT     H185871   2.512   8.568   0.223
28543WAT     H285872   2.587   8.456   0.132
28544WAT      O85873   8.123   9.373   0.924
28544WAT     H185874   8.064   9.319   0.983
28544WAT     H285875   8.105   9.350   0.828
28545WAT      O85876   9.844   8.857   8.139
28545WAT     H185877   9.748   8.866   8.110
28545WAT     H285878   9.858   8.907   8.225
28546WAT      O85879   8.035   5.293   5.881
28546WAT     H185880   7.937   5.306   5.863
28546WAT     H285881   8.072   5.225   5.818
28547WAT      O85882   2.454   6.885   0.132
28547WAT     H185883   2.543   6.927   0.117
28547WAT     H285884   2.395   6.902   0.053
28548WAT      O85885   3.719   5.151   7.444
28548WAT     H185886   3.815   5.148   7.472
28548WAT     H285887   3.669   5.078   7.489
28549WAT      O85888   0.702   8.841   2.190
28549WAT     H185889   0.612   8.872   2.160
28549WAT     H285890   0.752   8.803   2.113
28550WAT      O85891   2.665   0.065   3.681
28550WAT     H185892   2.627   0.057   3.588
28550WAT     H285893   2.726  -0.012   3.699
28551WAT      O85894   8.415   8.104   1.800
28551WAT     H185895   8.422   8.033   1.869
28551WAT     H285896   8.379   8.065   1.715
28552WAT      O85897   9.051   4.099   9.412
28552WAT     H185898   9.076   4.114   9.317
28552WAT     H285899   8.984   4.168   9.440
28553WAT      O85900   3.546   1.606   7.857
28553WAT     H185901   3.464   1.651   7.821
28553WAT     H285902   3.594   1.669   7.919
28554WAT      O85903   3.994   2.452   0.082
28554WAT     H185904   3.970   2.362   0.046
28554WAT     H285905   3.958   2.461   0.175
28555WAT      O85906   8.603   3.433   7.793
28555WAT     H185907   8.686   3.385   7.820
28555WAT     H285908   8.626   3.524   7.759
28556WAT      O85909   3.832   7.455   4.817
28556WAT     H185910   3.775   7.413   4.746
28556WAT     H285911   3.790   7.541   4.847
28557WAT      O85912   2.798   0.235   0.685
28557WAT     H185913   2.739   0.176   0.741
28557WAT     H285914   2.835   0.182   0.609
28558WAT      O85915   0.510   4.153   8.847
28558WAT     H185916   0.452   4.107   8.914
28558WAT     H285917   0.456   4.175   8.766
28559WAT      O85918   5.606   7.706   8.590
28559WAT     H185919   5.644   7.614   8.600
28559WAT     H285920   5.507   7.701   8.586
28560WAT      O85921   3.144   6.410   0.510
28560WAT     H185922   3.214   6.345   0.538
28560WAT     H285923   3.088   6.369   0.437
28561WAT      O85924   2.536   0.016   1.755
28561WAT     H185925   2.545  -0.015   1.660
28561WAT     H285926   2.550   0.115   1.760
28562WAT      O85927   4.133   0.690   7.428
28562WAT     H185928   4.183   0.614   7.387
28562WAT     H285929   4.185   0.774   7.418
28563WAT      O85930   1.435   4.278   6.839
28563WAT     H185931   1.504   4.279   6.911
28563WAT     H285932   1.371   4.353   6.853
28564WAT      O85933   8.673   7.351   2.962
28564WAT     H185934   8.587   7.387   2.998
28564WAT     H285935   8.694   7.398   2.876
28565WAT      O85936   5.062   7.173   0.237
28565WAT     H185937   5.029   7.236   0.308
28565WAT     H285938   5.003   7.093   0.234
28566WAT      O85939   8.698   5.557   8.173
28566WAT     H185940   8.659   5.578   8.084
28566WAT     H285941   8.636   5.588   8.245
28567WAT      O85942   0.332   2.042   2.640
28567WAT     H185943   0.421   2.082   2.618
28567WAT     H285944   0.344   1.944   2.659
28568WAT      O85945   5.347   3.793   8.404
28568WAT     H185946   5.409   3.860   8.363
28568WAT     H285947   5.394   3.743   8.476
28569WAT      O85948   6.919   4.720   1.705
28569WAT     H185949   6.988   4.651   1.682
28569WAT     H285950   6.931   4.750   1.799
28570WAT      O85951   2.726   6.233   8.471
28570WAT     H185952   2.709   6.136   8.487
28570WAT     H285953   2.800   6.265   8.530
28571WAT      O85954   6.235   6.265   4.827
28571WAT     H185955   6.149   6.237   4.786
28571WAT     H285956   6.218   6.318   4.909
28572WAT      O85957   7.998   9.182   0.147
28572WAT     H185958   7.914   9.132   0.167
28572WAT     H285959   8.039   9.213   0.232
28573WAT      O85960   7.060   8.160   3.388
28573WAT     H185961   7.059   8.061   3.397
28573WAT     H285962   6.969   8.192   3.362
28574WAT      O85963   6.927   7.030   8.770
28574WAT     H185964   6.954   7.098   8.838
28574WAT     H285965   6.864   7.072   8.704
28575WAT      O85966   1.234   5.292   7.637
28575WAT     H185967   1.267   5.370   7.690
28575WAT     H285968   1.262   5.302   7.542
28576WAT      O85969   1.130   1.358   5.141
28576WAT     H185970   1.069   1.280   5.151
28576WAT     H285971   1.197   1.339   5.069
28577WAT      O85972   0.935   7.483   5.526
28577WAT     H185973   0.919   7.438   5.438
28577WAT     H285974   0.891   7.573   5.526
28578WAT      O85975   1.549   2.544   0.800
28578WAT     H185976   1.633   2.504   0.765
28578WAT     H285977   1.566   2.581   0.892
28579WAT      O85978   0.655   8.844   8.582
28579WAT     H185979   0.753   8.854   8.600
28579WAT     H285980   0.642   8.806   8.490
28580WAT      O85981   6.557   6.773   2.246
28580WAT     H185982   6.585   6.748   2.338
28580WAT     H285983   6.530   6.869   2.243
28581WAT      O85984   7.752   2.218   8.872
28581WAT     H185985   7.810   2.199   8.794
28581WAT     H285986   7.657   2.226   8.842
28582WAT      O85987   3.426   7.864   4.438
28582WAT     H185988   3.480   7.923   4.498
28582WAT     H285989   3.455   7.878   4.343
28583WAT      O85990   2.517   4.702   7.639
28583WAT     H185991   2.603   4.719   7.591
28583WAT     H285992   2.453   4.777   7.622
28584WAT      O85993   9.152   8.363   5.657
28584WAT     H185994   9.195   8.427   5.594
28584WAT     H285995   9.098   8.413   5.725
28585WAT      O85996   9.724   9.034   1.268
28585WAT     H185997   9.809   9.085   1.248
28585WAT     H285998   9.653   9.063   1.204
28586WAT      O85999   8.123   5.949   7.027
28586WAT     H186000   8.185   6.027   7.020
28586WAT     H286001   8.126   5.896   6.942
28587WAT      O86002   2.407   1.470   2.206
28587WAT     H186003   2.429   1.566   2.220
28587WAT     H286004   2.394   1.425   2.294
28588WAT      O86005   1.394   3.567   9.152
28588WAT     H186006   1.468   3.506   9.180
28588WAT     H286007   1.318   3.513   9.116
28589WAT      O86008   9.227   4.409   3.405
28589WAT     H186009   9.263   4.411   3.498
28589WAT     H286010   9.128   4.395   3.407
28590WAT      O86011   9.246   3.439   1.182
28590WAT     H186012   9.172   3.391   1.133
28590WAT     H286013   9.227   3.537   1.182
28591WAT      O86014   0.294   8.155   8.883
28591WAT     H186015   0.368   8.185   8.824
28591WAT     H286016   0.332   8.111   8.965
28592WAT      O86017   0.129   8.851   6.059
28592WAT     H186018   0.046   8.843   6.115
28592WAT     H286019   0.202   8.892   6.114
28593WAT      O86020   6.506   5.055   3.206
28593WAT     H186021   6.429   4.997   3.178
28593WAT     H286022   6.479   5.110   3.285
28594WAT      O86023   9.172   3.624   4.363
28594WAT     H186024   9.128   3.610   4.274
28594WAT     H286025   9.145   3.551   4.425
28595WAT      O86026   8.001   7.741   2.908
28595WAT     H186027   8.024   7.742   3.005
28595WAT     H286028   8.024   7.652   2.869
28596WAT      O86029   5.238   6.341   2.773
28596WAT     H186030   5.337   6.332   2.777
28596WAT     H286031   5.212   6.434   2.802
28597WAT      O86032   9.463   8.115   3.533
28597WAT     H186033   9.551   8.068   3.543
28597WAT     H286034   9.397   8.073   3.596
28598WAT      O86035   0.424   8.382   8.288
28598WAT     H186036   0.391   8.467   8.329
28598WAT     H286037   0.477   8.403   8.206
28599WAT      O86038   0.088   8.032   1.997
28599WAT     H186039   0.177   8.021   2.043
28599WAT     H286040   0.097   8.096   1.921
28600WAT      O86041   6.999   9.495   2.522
28600WAT     H186042   7.043   9.490   2.432
28600WAT     H286043   6.908   9.536   2.512
28601WAT      O86044   0.356   6.371   4.701
28601WAT     H186045   0.272   6.350   4.650
28601WAT     H286046   0.334   6.379   4.798
28602WAT      O86047   9.351   4.112   4.959
28602WAT     H186048   9.266   4.086   5.006
28602WAT     H286049   9.344   4.207   4.928
28603WAT      O86050   6.029   4.120   2.601
28603WAT     H186051   5.934   4.089   2.602
28603WAT     H286052   6.072   4.099   2.689
28604WAT      O86053   0.044   0.059   2.311
28604WAT     H186054   0.129   0.045   2.259
28604WAT     H286055  -0.031   0.013   2.264
28605WAT      O86056   2.365   7.187   9.054
28605WAT     H186057   2.309   7.120   9.006
28605WAT     H286058   2.438   7.219   8.993
28606WAT      O86059   9.772   7.964   1.819
28606WAT     H186060   9.823   7.940   1.901
28606WAT     H286061   9.734   8.056   1.829
28607WAT      O86062   7.440   1.048   0.581
28607WAT     H186063   7.447   1.059   0.680
28607WAT     H286064   7.390   0.964   0.560
28608WAT      O86065   1.978   0.333   9.774
28608WAT     H186066   2.054   0.381   9.818
28608WAT     H286067   1.955   0.251   9.827
28609WAT      O86068   0.817   4.670   6.299
28609WAT     H186069   0.893   4.621   6.256
28609WAT     H286070   0.842   4.697   6.392
28610WAT      O86071   1.987   9.388   8.231
28610WAT     H186072   1.896   9.355   8.204
28610WAT     H286073   1.998   9.378   8.330
28611WAT      O86074   8.640   7.042   3.327
28611WAT     H186075   8.655   6.962   3.268
28611WAT     H286076   8.547   7.076   3.313
28612WAT      O86077   8.462   0.231   1.001
28612WAT     H186078   8.374   0.213   1.045
28612WAT     H286079   8.496   0.147   0.961
28613WAT      O86080   8.921   2.433   8.484
28613WAT     H186081   8.964   2.345   8.501
28613WAT     H286082   8.835   2.419   8.433
28614WAT      O86083   8.947   7.210   1.432
28614WAT     H186084   8.990   7.177   1.516
28614WAT     H286085   8.945   7.136   1.364
28615WAT      O86086   4.829   6.326   8.847
28615WAT     H186087   4.827   6.356   8.942
28615WAT     H286088   4.763   6.378   8.793
28616WAT      O86089   9.657   4.780   0.448
28616WAT     H186090   9.644   4.696   0.501
28616WAT     H286091   9.571   4.830   0.443
28617WAT      O86092   2.843   0.053   7.692
28617WAT     H186093   2.904   0.071   7.770
28617WAT     H286094   2.752   0.089   7.713
28618WAT      O86095   3.750   4.315   0.994
28618WAT     H186096   3.698   4.248   0.941
28618WAT     H286097   3.789   4.384   0.932
28619WAT      O86098   4.269   6.012   9.584
28619WAT     H186099   4.362   6.043   9.562
28619WAT     H286100   4.222   5.985   9.499
28620WAT      O86101   8.284   1.223   5.730
28620WAT     H186102   8.264   1.137   5.777
28620WAT     H286103   8.363   1.268   5.773
28621WAT      O86104   1.203   7.227   6.998
28621WAT     H186105   1.189   7.201   7.094
28621WAT     H286106   1.123   7.201   6.945
28622WAT      O86107   2.615   5.654   3.214
28622WAT     H186108   2.620   5.555   3.222
28622WAT     H286109   2.578   5.693   3.299
28623WAT      O86110   3.042   3.040   1.127
28623WAT     H186111   3.131   3.077   1.101
28623WAT     H286112   2.997   3.103   1.189
28624WAT      O86113   8.442   6.065   3.593
28624WAT     H186114   8.489   5.979   3.613
28624WAT     H286115   8.362   6.046   3.536
28625WAT      O86116   4.805   8.033   9.646
28625WAT     H186117   4.850   8.066   9.563
28625WAT     H286118   4.726   8.090   9.666
28626WAT      O86119   1.424   0.973   5.028
28626WAT     H186120   1.507   0.981   5.083
28626WAT     H286121   1.445   0.925   4.943
28627WAT      O86122   4.633   3.647   2.191
28627WAT     H186123   4.632   3.572   2.125
28627WAT     H286124   4.574   3.624   2.269
28628WAT      O86125   3.482   7.592   5.126
28628WAT     H186126   3.480   7.664   5.057
28628WAT     H286127   3.542   7.518   5.095
28629WAT      O86128   5.864   7.750   8.520
28629WAT     H186129   5.773   7.771   8.555
28629WAT     H286130   5.857   7.678   8.451
28630WAT      O86131   4.669   3.585   0.116
28630WAT     H186132   4.744   3.520   0.108
28630WAT     H286133   4.643   3.617   0.025
28631WAT      O86134   7.630   4.906   0.925
28631WAT     H186135   7.581   4.861   0.851
28631WAT     H286136   7.566   4.932   0.998
28632WAT      O86137   6.272   9.124   5.735
28632WAT     H186138   6.281   9.112   5.636
28632WAT     H286139   6.354   9.090   5.780
28633WAT      O86140   0.741   4.039   3.227
28633WAT     H186141   0.819   4.048   3.165
28633WAT     H286142   0.772   4.051   3.322
28634WAT      O86143   6.475   8.550   3.108
28634WAT     H186144   6.395   8.542   3.167
28634WAT     H286145   6.447   8.544   3.012
28635WAT      O86146   6.842   8.311   6.658
28635WAT     H186147   6.917   8.285   6.718
28635WAT     H286148   6.878   8.344   6.571
28636WAT      O86149   7.896   5.838   1.148
28636WAT     H186150   7.843   5.764   1.109
28636WAT     H286151   7.839   5.891   1.211
28637WAT      O86152   2.590   5.228   1.732
28637WAT     H186153   2.689   5.236   1.734
28637WAT     H286154   2.553   5.238   1.824
28638WAT      O86155   4.658   9.594   9.133
28638WAT     H186156   4.755   9.573   9.116
28638WAT     H286157   4.604   9.511   9.123
28639WAT      O86158   8.011   7.453   2.856
28639WAT     H186159   7.927   7.464   2.804
28639WAT     H286160   8.001   7.377   2.920
28640WAT      O86161   5.825   4.827   1.063
28640WAT     H186162   5.809   4.848   1.159
28640WAT     H286163   5.745   4.780   1.025
28641WAT      O86164   5.404   8.148   8.159
28641WAT     H186165   5.352   8.070   8.126
28641WAT     H286166   5.502   8.127   8.155
28642WAT      O86167   5.486   7.330   8.545
28642WAT     H186168   5.409   7.296   8.599
28642WAT     H286169   5.549   7.255   8.526
28643WAT      O86170   7.176   5.838   9.190
28643WAT     H186171   7.189   5.914   9.253
28643WAT     H286172   7.224   5.757   9.225
28644WAT      O86173   3.888   2.354   1.042
28644WAT     H186174   3.891   2.254   1.044
28644WAT     H286175   3.795   2.385   1.065
28645WAT      O86176   3.171   4.581   9.079
28645WAT     H186177   3.163   4.634   9.163
28645WAT     H286178   3.236   4.506   9.093
28646WAT      O86179   0.032   9.804   9.619
28646WAT     H186180  -0.020   9.719   9.611
28646WAT     H286181   0.098   9.795   9.693
28647WAT      O86182   6.831   9.189   2.956
28647WAT     H186183   6.908   9.240   2.994
28647WAT     H286184   6.779   9.247   2.894
28648WAT      O86185   4.707   6.633   5.714
28648WAT     H186186   4.714   6.732   5.720
28648WAT     H286187   4.798   6.592   5.724
28649WAT      O86188   9.739   1.768   7.164
28649WAT     H186189   9.805   1.764   7.089
28649WAT     H286190   9.649   1.739   7.132
28650WAT      O86191   9.058   1.638   3.757
28650WAT     H186192   9.155   1.663   3.755
28650WAT     H286193   9.049   1.541   3.783
28651WAT      O86194   8.827   1.482   8.599
28651WAT     H186195   8.796   1.556   8.658
28651WAT     H286196   8.883   1.418   8.652
28652WAT      O86197   1.395   1.122   6.368
28652WAT     H186198   1.400   1.219   6.392
28652WAT     H286199   1.463   1.102   6.298
28653WAT      O86200   1.595   8.955   5.613
28653WAT     H186201   1.661   8.889   5.648
28653WAT     H286202   1.502   8.923   5.634
28654WAT      O86203   8.037   1.191   8.666
28654WAT     H186204   8.135   1.201   8.652
28654WAT     H286205   8.013   1.094   8.674
28655WAT      O86206   1.542   7.976   9.129
28655WAT     H186207   1.541   7.970   9.228
28655WAT     H286208   1.497   8.060   9.099
28656WAT      O86209   5.529   8.857   4.962
28656WAT     H186210   5.466   8.861   5.040
28656WAT     H286211   5.597   8.930   4.971
28657WAT      O86212   5.958   2.665   4.302
28657WAT     H186213   5.887   2.601   4.271
28657WAT     H286214   5.920   2.757   4.307
28658WAT      O86215   0.492   8.625   0.476
28658WAT     H186216   0.555   8.698   0.503
28658WAT     H286217   0.544   8.540   0.462
28659WAT      O86218   1.494   2.610   7.296
28659WAT     H186219   1.592   2.598   7.311
28659WAT     H286220   1.476   2.622   7.198
28660WAT      O86221   3.475   3.732   1.930
28660WAT     H186222   3.422   3.792   1.989
28660WAT     H286223   3.498   3.648   1.980
28661WAT      O86224   7.659   3.920   9.077
28661WAT     H186225   7.607   3.908   8.992
28661WAT     H286226   7.752   3.886   9.064
28662WAT      O86227   6.491   8.143   1.738
28662WAT     H186228   6.535   8.232   1.753
28662WAT     H286229   6.463   8.104   1.826
28663WAT      O86230   9.098   5.569   8.751
28663WAT     H186231   9.002   5.544   8.760
28663WAT     H286232   9.121   5.640   8.818
28664WAT      O86233   5.288   4.208   4.569
28664WAT     H186234   5.382   4.211   4.536
28664WAT     H286235   5.284   4.155   4.654
28665WAT      O86236   9.332   7.493   1.710
28665WAT     H186237   9.281   7.523   1.629
28665WAT     H286238   9.288   7.531   1.792
28666WAT      O86239   3.276   9.082   9.840
28666WAT     H186240   3.210   9.152   9.811
28666WAT     H286241   3.363   9.097   9.795
28667WAT      O86242   7.146   7.571   2.742
28667WAT     H186243   7.062   7.564   2.796
28667WAT     H286244   7.148   7.497   2.674
28668WAT      O86245   6.017   3.250   7.117
28668WAT     H186246   6.090   3.288   7.173
28668WAT     H286247   6.032   3.152   7.104
28669WAT      O86248   6.214   3.176   5.295
28669WAT     H186249   6.201   3.275   5.305
28669WAT     H286250   6.218   3.153   5.198
28670WAT      O86251   3.123   8.857   9.821
28670WAT     H186252   3.204   8.915   9.824
28670WAT     H286253   3.098   8.829   9.913
28671WAT      O86254   4.929   9.603   9.672
28671WAT     H186255   5.025   9.604   9.700
28671WAT     H286256   4.920   9.548   9.589
28672WAT      O86257   3.939   0.523   6.954
28672WAT     H186258   3.992   0.523   6.869
28672WAT     H286259   3.958   0.439   7.005
28673WAT      O86260   4.868   1.947   0.438
28673WAT     H186261   4.850   1.853   0.406
28673WAT     H286262   4.919   1.996   0.367
28674WAT      O86263   6.824   4.086   9.167
28674WAT     H186264   6.746   4.112   9.110
28674WAT     H286265   6.851   4.165   9.223
28675WAT      O86266   4.334   0.086   2.274
28675WAT     H186267   4.390   0.112   2.195
28675WAT     H286268   4.283   0.165   2.307
28676WAT      O86269   2.351   6.871   1.371
28676WAT     H186270   2.294   6.808   1.425
28676WAT     H286271   2.434   6.824   1.343
28677WAT      O86272   9.359   2.969   2.311
28677WAT     H186273   9.292   2.977   2.237
28677WAT     H286274   9.318   2.922   2.389
28678WAT      O86275   6.208   5.678   2.978
28678WAT     H186276   6.113   5.667   2.947
28678WAT     H286277   6.233   5.600   3.035
28679WAT      O86278   5.477   8.920   3.084
28679WAT     H186279   5.508   9.007   3.123
28679WAT     H286280   5.377   8.914   3.094
28680WAT      O86281   7.329   2.668   7.392
28680WAT     H186282   7.235   2.647   7.416
28680WAT     H286283   7.390   2.597   7.428
28681WAT      O86284   4.575   1.048   5.914
28681WAT     H186285   4.555   1.070   5.819
28681WAT     H286286   4.640   0.972   5.918
28682WAT      O86287   1.238   0.148   8.358
28682WAT     H186288   1.282   0.118   8.274
28682WAT     H286289   1.139   0.139   8.350
28683WAT      O86290   3.571   3.691   8.286
28683WAT     H186291   3.592   3.707   8.190
28683WAT     H286292   3.589   3.774   8.338
28684WAT      O86293   9.526   8.584   6.148
28684WAT     H186294   9.623   8.574   6.126
28684WAT     H286295   9.512   8.572   6.246
28685WAT      O86296   7.331   1.230   8.754
28685WAT     H186297   7.314   1.320   8.795
28685WAT     H286298   7.320   1.235   8.655
28686WAT      O86299   3.630   1.893   7.943
28686WAT     H186300   3.716   1.852   7.913
28686WAT     H286301   3.607   1.970   7.883
28687WAT      O86302   9.211   0.367   2.838
28687WAT     H186303   9.189   0.463   2.858
28687WAT     H286304   9.254   0.325   2.918
28688WAT      O86305   0.638   7.764   8.995
28688WAT     H186306   0.664   7.790   8.902
28688WAT     H286307   0.674   7.831   9.059
28689WAT      O86308   9.564   0.601   8.066
28689WAT     H186309   9.662   0.619   8.071
28689WAT     H286310   9.544   0.511   8.106
28690WAT      O86311   9.628   4.308   1.431
28690WAT     H186312   9.677   4.252   1.363
28690WAT     H286313   9.530   4.287   1.427
28691WAT      O86314   3.609   3.136   3.613
28691WAT     H186315   3.644   3.192   3.537
28691WAT     H286316   3.597   3.194   3.694
28692WAT      O86317   0.382   4.581   9.676
28692WAT     H186318   0.470   4.554   9.637
28692WAT     H286319   0.379   4.680   9.686
28693WAT      O86320   3.115   7.342   5.453
28693WAT     H186321   3.050   7.370   5.524
28693WAT     H286322   3.080   7.368   5.363
28694WAT      O86323   9.848   2.686   0.176
28694WAT     H186324   9.775   2.620   0.196
28694WAT     H286325   9.935   2.650   0.209
28695WAT      O86326   3.593   1.393   6.135
28695WAT     H186327   3.591   1.472   6.073
28695WAT     H286328   3.617   1.423   6.227
28696WAT      O86329   0.700   6.709   4.586
28696WAT     H186330   0.645   6.625   4.586
28696WAT     H286331   0.720   6.735   4.681
28697WAT      O86332   1.993   8.456   6.342
28697WAT     H186333   2.023   8.545   6.307
28697WAT     H286334   2.009   8.452   6.440
28698WAT      O86335   6.587   3.508   2.746
28698WAT     H186336   6.675   3.476   2.712
28698WAT     H286337   6.518   3.498   2.674
28699WAT      O86338   3.241   9.525   2.537
28699WAT     H186339   3.318   9.490   2.590
28699WAT     H286340   3.161   9.533   2.595
28700WAT      O86341   9.155   7.975   0.683
28700WAT     H186342   9.061   8.008   0.696
28700WAT     H286343   9.158   7.877   0.702
28701WAT      O86344   7.873   9.027   5.039
28701WAT     H186345   7.823   9.105   5.001
28701WAT     H286346   7.875   8.953   4.972
28702WAT      O86347   1.471   4.741   2.455
28702WAT     H186348   1.437   4.727   2.548
28702WAT     H286349   1.495   4.653   2.414
28703WAT      O86350   5.672   7.129   1.785
28703WAT     H186351   5.766   7.148   1.811
28703WAT     H286352   5.610   7.164   1.855
28704WAT      O86353   1.940   7.774   6.133
28704WAT     H186354   1.847   7.738   6.125
28704WAT     H286355   1.937   7.873   6.137
28705WAT      O86356   7.549   3.663   9.844
28705WAT     H186357   7.602   3.744   9.823
28705WAT     H286358   7.609   3.591   9.880
28706WAT      O86359   3.483   7.959   8.314
28706WAT     H186360   3.432   7.883   8.355
28706WAT     H286361   3.570   7.925   8.279
28707WAT      O86362   1.983   5.262   2.259
28707WAT     H186363   1.896   5.301   2.287
28707WAT     H286364   2.029   5.324   2.195
28708WAT      O86365   4.566   8.615   8.362
28708WAT     H186366   4.511   8.641   8.282
28708WAT     H286367   4.547   8.677   8.438
28709WAT      O86368   8.593   0.570   7.905
28709WAT     H186369   8.507   0.519   7.913
28709WAT     H286370   8.663   0.511   7.865
28710WAT      O86371   3.306   7.561   4.171
28710WAT     H186372   3.267   7.630   4.233
28710WAT     H286373   3.263   7.568   4.081
28711WAT      O86374   2.931   1.232   9.026
28711WAT     H186375   3.017   1.277   9.048
28711WAT     H286376   2.922   1.147   9.079
28712WAT      O86377   5.576   7.400   9.362
28712WAT     H186378   5.511   7.437   9.296
28712WAT     H286379   5.536   7.320   9.407
28713WAT      O86380   8.499   0.727   1.929
28713WAT     H186381   8.535   0.639   1.961
28713WAT     H286382   8.543   0.753   1.844
28714WAT      O86383   8.550   1.466   2.588
28714WAT     H186384   8.596   1.454   2.499
28714WAT     H286385   8.587   1.546   2.634
28715WAT      O86386   4.562   7.979   3.812
28715WAT     H186387   4.599   8.038   3.885
28715WAT     H286388   4.482   7.930   3.846
28716WAT      O86389   0.426   1.215   0.567
28716WAT     H186390   0.441   1.313   0.583
28716WAT     H286391   0.361   1.180   0.634
28717WAT      O86392   0.617   9.072   5.506
28717WAT     H186393   0.571   9.037   5.425
28717WAT     H286394   0.715   9.049   5.501
28718WAT      O86395   3.306   4.885   5.105
28718WAT     H186396   3.283   4.981   5.117
28718WAT     H286397   3.316   4.865   5.007
28719WAT      O86398   1.324   8.964   4.802
28719WAT     H186399   1.421   8.949   4.824
28719WAT     H286400   1.267   8.917   4.869
28720WAT      O86401   7.468   9.486   7.321
28720WAT     H186402   7.443   9.444   7.234
28720WAT     H286403   7.478   9.584   7.309
28721WAT      O86404   1.647   1.556   3.247
28721WAT     H186405   1.715   1.630   3.242
28721WAT     H286406   1.561   1.587   3.207
28722WAT      O86407   7.861   1.316   8.509
28722WAT     H186408   7.937   1.281   8.564
28722WAT     H286409   7.841   1.410   8.535
28723WAT      O86410   7.023   1.351   4.634
28723WAT     H186411   7.008   1.449   4.646
28723WAT     H286412   6.986   1.322   4.546
28724WAT      O86413   2.711   8.434   0.030
28724WAT     H186414   2.788   8.497   0.028
28724WAT     H286415   2.737   8.352   0.082
28725WAT      O86416   0.519   4.261   5.683
28725WAT     H186417   0.435   4.239   5.733
28725WAT     H286418   0.506   4.346   5.633
28726WAT      O86419   6.064   3.096   9.849
28726WAT     H186420   5.974   3.087   9.807
28726WAT     H286421   6.134   3.087   9.778
28727WAT      O86422   2.245   0.251   3.499
28727WAT     H186423   2.231   0.349   3.484
28727WAT     H286424   2.224   0.228   3.594
28728WAT      O86425   3.897   6.070   2.815
28728WAT     H186426   3.898   6.147   2.878
28728WAT     H286427   3.812   6.018   2.826
28729WAT      O86428   5.639   1.478   4.219
28729WAT     H186429   5.677   1.537   4.147
28729WAT     H286430   5.614   1.534   4.298
28730WAT      O86431   1.584   3.701   4.302
28730WAT     H186432   1.551   3.794   4.288
28730WAT     H286433   1.541   3.640   4.237
28731WAT      O86434   1.757   2.625   3.266
28731WAT     H186435   1.773   2.723   3.280
28731WAT     H286436   1.695   2.613   3.189
28732WAT      O86437   1.738   1.750   9.268
28732WAT     H186438   1.784   1.721   9.184
28732WAT     H286439   1.721   1.671   9.326
28733WAT      O86440   1.926   1.847   9.880
28733WAT     H186441   1.835   1.817   9.908
28733WAT     H286442   1.921   1.939   9.842
28734WAT      O86443   8.713   3.899   7.324
28734WAT     H186444   8.722   3.961   7.247
28734WAT     H286445   8.797   3.847   7.336
28735WAT      O86446   7.641   1.215   2.202
28735WAT     H186447   7.625   1.301   2.154
28735WAT     H286448   7.738   1.208   2.226
28736WAT      O86449   0.998   4.182   9.275
28736WAT     H186450   1.029   4.167   9.368
28736WAT     H286451   1.070   4.158   9.211
28737WAT      O86452   2.114   3.937   4.523
28737WAT     H186453   2.077   3.919   4.615
28737WAT     H286454   2.039   3.941   4.457
28738WAT      O86455   2.957   0.540   3.727
28738WAT     H186456   2.920   0.525   3.819
28738WAT     H286457   2.904   0.486   3.661
28739WAT      O86458   2.887   2.260   8.839
28739WAT     H186459   2.837   2.337   8.800
28739WAT     H286460   2.890   2.185   8.772
28740WAT      O86461   1.271   1.759   6.983
28740WAT     H186462   1.348   1.708   6.944
28740WAT     H286463   1.305   1.843   7.026
28741WAT      O86464   0.685   2.592   6.988
28741WAT     H186465   0.592   2.620   7.011
28741WAT     H286466   0.749   2.665   7.014
28742WAT      O86467   6.688   2.846   8.823
28742WAT     H186468   6.787   2.857   8.831
28742WAT     H286469   6.669   2.759   8.776
28743WAT      O86470   5.147   7.248   3.319
28743WAT     H186471   5.130   7.306   3.239
28743WAT     H286472   5.225   7.188   3.300
28744WAT      O86473   4.047   7.911   9.062
28744WAT     H186474   4.076   7.888   9.155
28744WAT     H286475   4.001   7.833   9.021
28745WAT      O86476   4.913   7.677   4.518
28745WAT     H186477   4.859   7.692   4.436
28745WAT     H286478   4.868   7.721   4.596
28746WAT      O86479   2.596   0.784   3.529
28746WAT     H186480   2.603   0.717   3.455
28746WAT     H286481   2.571   0.737   3.614
28747WAT      O86482   4.352   7.524   2.212
28747WAT     H186483   4.371   7.555   2.305
28747WAT     H286484   4.286   7.449   2.214
28748WAT      O86485   1.990   0.163   1.030
28748WAT     H186486   2.060   0.095   1.055
28748WAT     H286487   1.943   0.193   1.113
28749WAT      O86488   0.867   4.712   3.530
28749WAT     H186489   0.772   4.740   3.544
28749WAT     H286490   0.872   4.652   3.450
28750WAT      O86491   5.957   5.433   8.217
28750WAT     H186492   5.860   5.411   8.227
28750WAT     H286493   6.001   5.364   8.159
28751WAT      O86494   1.746   5.950   7.603
28751WAT     H186495   1.828   5.893   7.613
28751WAT     H286496   1.675   5.918   7.666
28752WAT      O86497   2.780   1.664   5.291
28752WAT     H186498   2.832   1.632   5.213
28752WAT     H286499   2.838   1.665   5.372
28753WAT      O86500   0.944   0.685   6.955
28753WAT     H186501   0.939   0.784   6.944
28753WAT     H286502   1.037   0.654   6.933
28754WAT      O86503   8.971   7.992   2.061
28754WAT     H186504   8.877   8.008   2.092
28754WAT     H286505   8.970   7.962   1.966
28755WAT      O86506   5.476   6.777   8.701
28755WAT     H186507   5.543   6.734   8.640
28755WAT     H286508   5.400   6.812   8.647
28756WAT      O86509   4.152   8.550   4.446
28756WAT     H186510   4.059   8.576   4.473
28756WAT     H286511   4.210   8.631   4.445
28757WAT      O86512   1.894   8.878   2.997
28757WAT     H186513   1.795   8.875   2.986
28757WAT     H286514   1.923   8.802   3.056
28758WAT      O86515   0.196   9.841   2.550
28758WAT     H186516   0.120   9.826   2.487
28758WAT     H286517   0.159   9.861   2.641
28759WAT      O86518   6.999   6.664   8.408
28759WAT     H186519   7.053   6.743   8.380
28759WAT     H286520   7.023   6.640   8.503
28760WAT      O86521   1.378   6.506   0.225
28760WAT     H186522   1.317   6.460   0.291
28760WAT     H286523   1.399   6.598   0.258
28761WAT      O86524   7.194   5.297   1.527
28761WAT     H186525   7.197   5.396   1.518
28761WAT     H286526   7.116   5.270   1.583
28762WAT      O86527   5.586   3.936   4.333
28762WAT     H186528   5.655   3.865   4.348
28762WAT     H286529   5.596   4.008   4.401
28763WAT      O86530   8.856   2.062   8.442
28763WAT     H186531   8.776   2.003   8.450
28763WAT     H286532   8.936   2.015   8.481
28764WAT      O86533   9.780   1.835   2.957
28764WAT     H186534   9.803   1.838   3.055
28764WAT     H286535   9.805   1.922   2.915
28765WAT      O86536   0.046   7.090   6.556
28765WAT     H186537   0.112   7.163   6.533
28765WAT     H286538   0.089   7.026   6.620
28766WAT      O86539   0.054   4.343   7.227
28766WAT     H186540   0.042   4.284   7.147
28766WAT     H286541  -0.036   4.372   7.260
28767WAT      O86542   9.038   9.726   5.433
28767WAT     H186543   9.077   9.706   5.343
28767WAT     H286544   8.972   9.800   5.425
28768WAT      O86545   3.912   5.146   7.755
28768WAT     H186546   3.956   5.157   7.666
28768WAT     H286547   3.814   5.130   7.742
28769WAT      O86548   8.922   6.742   8.654
28769WAT     H186549   9.015   6.775   8.644
28769WAT     H286550   8.912   6.697   8.743
28770WAT      O86551   7.889   2.358   9.552
28770WAT     H186552   7.984   2.388   9.547
28770WAT     H286553   7.847   2.364   9.462
28771WAT      O86554   2.444   6.343   5.760
28771WAT     H186555   2.360   6.328   5.811
28771WAT     H286556   2.464   6.441   5.756
28772WAT      O86557   2.715   0.461   5.815
28772WAT     H186558   2.654   0.444   5.738
28772WAT     H286559   2.681   0.540   5.868
28773WAT      O86560   0.207   9.121   1.654
28773WAT     H186561   0.225   9.218   1.640
28773WAT     H286562   0.110   9.107   1.673
28774WAT      O86563   6.360   7.577   5.864
28774WAT     H186564   6.309   7.659   5.841
28774WAT     H286565   6.444   7.573   5.811
28775WAT      O86566   7.906   5.939   3.832
28775WAT     H186567   7.839   5.885   3.883
28775WAT     H286568   7.948   6.006   3.892
28776WAT      O86569   5.580   3.834   3.290
28776WAT     H186570   5.578   3.927   3.325
28776WAT     H286571   5.662   3.821   3.234
28777WAT      O86572   0.779   9.076   2.914
28777WAT     H186573   0.752   9.013   2.987
28777WAT     H286574   0.760   9.170   2.942
28778WAT      O86575   0.258   5.834   5.301
28778WAT     H186576   0.252   5.923   5.346
28778WAT     H286577   0.170   5.813   5.258
28779WAT      O86578   1.004   1.229   1.889
28779WAT     H186579   1.102   1.207   1.886
28779WAT     H286580   0.952   1.146   1.909
28780WAT      O86581   0.269   5.212   0.339
28780WAT     H186582   0.265   5.171   0.248
28780WAT     H286583   0.250   5.310   0.333
28781WAT      O86584   3.695   2.730   0.423
28781WAT     H186585   3.621   2.793   0.443
28781WAT     H286586   3.733   2.751   0.333
28782WAT      O86587   6.383   0.584   6.494
28782WAT     H186588   6.424   0.645   6.427
28782WAT     H286589   6.376   0.630   6.583
28783WAT      O86590   9.180   5.935   5.726
28783WAT     H186591   9.267   5.886   5.730
28783WAT     H286592   9.132   5.926   5.813
28784WAT      O86593   0.169   9.148   9.191
28784WAT     H186594   0.124   9.194   9.267
28784WAT     H286595   0.170   9.050   9.207
28785WAT      O86596   8.925   3.249   5.161
28785WAT     H186597   8.912   3.301   5.246
28785WAT     H286598   9.003   3.286   5.111
28786WAT      O86599   1.451   7.076   5.319
28786WAT     H186600   1.385   7.073   5.244
28786WAT     H286601   1.462   6.984   5.358
28787WAT      O86602   6.919   7.096   2.789
28787WAT     H186603   7.012   7.060   2.781
28787WAT     H286604   6.853   7.027   2.757
28788WAT      O86605   4.121   7.054   2.078
28788WAT     H186606   4.083   6.978   2.131
28788WAT     H286607   4.175   7.018   2.002
28789WAT      O86608   4.953   2.992   5.570
28789WAT     H186609   5.013   3.042   5.507
28789WAT     H286610   4.879   2.950   5.518
28790WAT      O86611   2.227   6.100   0.233
28790WAT     H186612   2.271   6.013   0.257
28790WAT     H286613   2.257   6.171   0.297
28791WAT      O86614   2.476   8.859   9.262
28791WAT     H186615   2.431   8.800   9.195
28791WAT     H286616   2.534   8.924   9.214
28792WAT      O86617   9.457   8.519   1.384
28792WAT     H186618   9.484   8.586   1.453
28792WAT     H286619   9.384   8.557   1.328
28793WAT      O86620   4.732   9.147   7.357
28793WAT     H186621   4.694   9.185   7.441
28793WAT     H286622   4.785   9.217   7.310
28794WAT      O86623   0.702   7.332   5.047
28794WAT     H186624   0.796   7.366   5.038
28794WAT     H286625   0.655   7.340   4.959
28795WAT      O86626   9.173   8.909   3.055
28795WAT     H186627   9.131   8.958   2.979
28795WAT     H286628   9.264   8.878   3.029
28796WAT      O86629   6.705   8.317   3.613
28796WAT     H186630   6.635   8.383   3.642
28796WAT     H286631   6.790   8.366   3.595
28797WAT      O86632   1.494   9.390   4.904
28797WAT     H186633   1.433   9.311   4.905
28797WAT     H286634   1.530   9.405   4.995
28798WAT      O86635   6.505   2.283   6.900
28798WAT     H186636   6.574   2.320   6.962
28798WAT     H286637   6.516   2.324   6.809
28799WAT      O86638   4.349   5.620   7.003
28799WAT     H186639   4.297   5.703   7.024
28799WAT     H286640   4.304   5.541   7.044
28800WAT      O86641   0.527   1.283   4.485
28800WAT     H186642   0.547   1.380   4.471
28800WAT     H286643   0.559   1.256   4.576
28801WAT      O86644   7.320   3.112   0.998
28801WAT     H186645   7.244   3.153   1.049
28801WAT     H286646   7.300   3.016   0.980
28802WAT      O86647   9.461   5.195   1.186
28802WAT     H186648   9.550   5.149   1.182
28802WAT     H286649   9.461   5.261   1.261
28803WAT      O86650   6.688   6.404   8.554
28803WAT     H186651   6.715   6.426   8.461
28803WAT     H286652   6.755   6.343   8.595
28804WAT      O86653   7.709   9.037   1.221
28804WAT     H186654   7.713   8.940   1.195
28804WAT     H286655   7.762   9.050   1.305
28805WAT      O86656   4.072   8.155   5.055
28805WAT     H186657   4.082   8.074   5.112
28805WAT     H286658   3.994   8.209   5.087
28806WAT      O86659   0.252   6.488   3.783
28806WAT     H186660   0.212   6.456   3.697
28806WAT     H286661   0.270   6.410   3.843
28807WAT      O86662   1.816   1.764   3.271
28807WAT     H186663   1.864   1.777   3.184
28807WAT     H286664   1.767   1.848   3.294
28808WAT      O86665   8.214   0.205   7.278
28808WAT     H186666   8.283   0.148   7.323
28808WAT     H286667   8.126   0.194   7.323
28809WAT      O86668   0.036   4.483   2.047
28809WAT     H186669   0.099   4.424   2.097
28809WAT     H286670  -0.058   4.465   2.078
28810WAT      O86671   9.009   9.605   7.969
28810WAT     H186672   9.017   9.614   7.870
28810WAT     H286673   8.913   9.615   7.995
28811WAT      O86674   2.639   0.850   6.777
28811WAT     H186675   2.612   0.768   6.827
28811WAT     H286676   2.606   0.931   6.826
28812WAT      O86677   1.904   5.623   8.133
28812WAT     H186678   1.947   5.698   8.183
28812WAT     H286679   1.975   5.558   8.103
28813WAT      O86680   9.000   4.894   7.767
28813WAT     H186681   8.970   4.864   7.857
28813WAT     H286682   9.066   4.969   7.776
28814WAT      O86683   4.612   8.228   5.872
28814WAT     H186684   4.638   8.252   5.966
28814WAT     H286685   4.591   8.311   5.821
28815WAT      O86686   6.040   9.029   8.515
28815WAT     H186687   6.122   8.984   8.479
28815WAT     H286688   5.964   8.963   8.515
28816WAT      O86689   2.578   3.142   2.187
28816WAT     H186690   2.631   3.086   2.123
28816WAT     H286691   2.512   3.198   2.135
28817WAT      O86692   9.203   1.739   2.562
28817WAT     H186693   9.175   1.805   2.493
28817WAT     H286694   9.136   1.665   2.567
28818WAT      O86695   6.477   9.572   8.926
28818WAT     H186696   6.456   9.481   8.962
28818WAT     H286697   6.450   9.577   8.830
28819WAT      O86698   3.404   6.366   5.785
28819WAT     H186699   3.380   6.457   5.752
28819WAT     H286700   3.503   6.352   5.776
28820WAT      O86701   2.142   6.371   0.987
28820WAT     H186702   2.142   6.421   1.074
28820WAT     H286703   2.077   6.414   0.924
28821WAT      O86704   1.875   9.428   0.546
28821WAT     H186705   1.842   9.369   0.619
28821WAT     H286706   1.974   9.444   0.558
28822WAT      O86707   6.984   4.662   7.517
28822WAT     H186708   6.928   4.578   7.518
28822WAT     H286709   6.925   4.741   7.529
28823WAT      O86710   2.297   7.963   0.849
28823WAT     H186711   2.245   7.954   0.764
28823WAT     H286712   2.375   8.024   0.833
28824WAT      O86713   8.106   3.416   9.380
28824WAT     H186714   8.188   3.387   9.331
28824WAT     H286715   8.093   3.358   9.461
28825WAT      O86716   5.532   7.428   3.517
28825WAT     H186717   5.495   7.340   3.546
28825WAT     H286718   5.485   7.459   3.435
28826WAT      O86719   5.131   7.980   0.065
28826WAT     H186720   5.206   7.984  -0.000
28826WAT     H286721   5.047   8.012   0.022
28827WAT      O86722   4.899   6.310   1.163
28827WAT     H186723   4.892   6.367   1.081
28827WAT     H286724   4.994   6.284   1.178
28828WAT      O86725   2.580   4.081   3.137
28828WAT     H186726   2.630   4.064   3.052
28828WAT     H286727   2.482   4.088   3.118
28829WAT      O86728   0.661   1.931   0.992
28829WAT     H186729   0.596   1.866   1.030
28829WAT     H286730   0.752   1.913   1.030
28830WAT      O86731   5.079   4.378   7.618
28830WAT     H186732   5.034   4.303   7.569
28830WAT     H286733   5.030   4.464   7.600
28831WAT      O86734   0.872   5.042   8.499
28831WAT     H186735   0.881   4.961   8.556
28831WAT     H286736   0.924   5.118   8.540
28832WAT      O86737   2.215   1.002   7.154
28832WAT     H186738   2.308   1.025   7.127
28832WAT     H286739   2.155   1.081   7.140
28833WAT      O86740   6.508   2.121   7.894
28833WAT     H186741   6.555   2.160   7.814
28833WAT     H286742   6.431   2.065   7.863
28834WAT      O86743   1.711   6.331   4.445
28834WAT     H186744   1.757   6.396   4.505
28834WAT     H286745   1.697   6.244   4.494
28835WAT      O86746   9.395   5.523   7.213
28835WAT     H186747   9.446   5.513   7.299
28835WAT     H286748   9.301   5.491   7.226
28836WAT      O86749   9.457   9.006   4.057
28836WAT     H186750   9.481   9.011   4.154
28836WAT     H286751   9.362   9.035   4.044
28837WAT      O86752   1.927   8.522   4.316
28837WAT     H186753   1.935   8.516   4.216
28837WAT     H286754   1.898   8.434   4.353
28838WAT      O86755   2.454   3.033   4.297
28838WAT     H186756   2.412   3.068   4.380
28838WAT     H286757   2.535   2.979   4.321
28839WAT      O86758   9.429   9.561   6.188
28839WAT     H186759   9.404   9.595   6.097
28839WAT     H286760   9.519   9.519   6.184
28840WAT      O86761   7.753   1.470   6.177
28840WAT     H186762   7.682   1.501   6.113
28840WAT     H286763   7.745   1.520   6.263
28841WAT      O86764   2.789   8.863   0.356
28841WAT     H186765   2.868   8.908   0.397
28841WAT     H286766   2.789   8.766   0.380
28842WAT      O86767   8.319   6.779   1.417
28842WAT     H186768   8.352   6.831   1.338
28842WAT     H286769   8.341   6.682   1.405
28843WAT      O86770   1.469   2.974   1.588
28843WAT     H186771   1.563   3.000   1.566
28843WAT     H286772   1.469   2.889   1.640
28844WAT      O86773   1.062   7.744   8.549
28844WAT     H186774   1.107   7.799   8.618
28844WAT     H286775   0.988   7.797   8.506
28845WAT      O86776   5.732   2.218   5.838
28845WAT     H186777   5.805   2.198   5.904
28845WAT     H286778   5.658   2.266   5.884
28846WAT      O86779   0.479   3.990   5.153
28846WAT     H186780   0.400   3.930   5.141
28846WAT     H286781   0.555   3.938   5.192
28847WAT      O86782   5.929   2.285   7.751
28847WAT     H186783   5.895   2.208   7.696
28847WAT     H286784   6.029   2.287   7.747
28848WAT      O86785   5.974   7.097   4.640
28848WAT     H186786   6.045   7.167   4.644
28848WAT     H286787   6.009   7.010   4.675
28849WAT      O86788   7.941   5.171   1.366
28849WAT     H186789   8.017   5.227   1.397
28849WAT     H286790   7.973   5.077   1.350
28850WAT      O86791   4.830   7.644   2.697
28850WAT     H186792   4.894   7.695   2.755
28850WAT     H286793   4.864   7.644   2.603
28851WAT      O86794   6.302   6.749   4.864
28851WAT     H186795   6.327   6.704   4.949
28851WAT     H286796   6.336   6.844   4.865
28852WAT      O86797   3.520   2.197   4.006
28852WAT     H186798   3.485   2.238   4.090
28852WAT     H286799   3.532   2.099   4.019
28853WAT      O86800   8.653   7.087   5.789
28853WAT     H186801   8.568   7.059   5.834
28853WAT     H286802   8.694   7.009   5.742
28854WAT      O86803   1.175   8.686   4.231
28854WAT     H186804   1.097   8.747   4.225
28854WAT     H286805   1.234   8.699   4.152
28855WAT      O86806   2.707   0.496   9.276
28855WAT     H186807   2.645   0.419   9.267
28855WAT     H286808   2.740   0.524   9.185
28856WAT      O86809   9.616   7.670   8.580
28856WAT     H186810   9.614   7.698   8.484
28856WAT     H286811   9.660   7.580   8.588
28857WAT      O86812   7.040   7.545   8.510
28857WAT     H186813   7.025   7.481   8.585
28857WAT     H286814   6.959   7.603   8.499
28858WAT      O86815   0.557   2.800   7.764
28858WAT     H186816   0.478   2.785   7.823
28858WAT     H286817   0.550   2.889   7.720
28859WAT      O86818   2.644   3.540   8.066
28859WAT     H186819   2.740   3.531   8.093
28859WAT     H286820   2.602   3.449   8.064
28860WAT      O86821   9.401   2.261   8.654
28860WAT     H186822   9.353   2.346   8.637
28860WAT     H286823   9.343   2.184   8.629
28861WAT      O86824   6.079   1.978   3.331
28861WAT     H186825   6.129   2.027   3.259
28861WAT     H286826   6.144   1.931   3.391
28862WAT      O86827   2.184   0.053   5.055
28862WAT     H186828   2.133   0.139   5.060
28862WAT     H286829   2.248   0.056   4.979
28863WAT      O86830   8.873   1.303   5.568
28863WAT     H186831   8.827   1.219   5.541
28863WAT     H286832   8.863   1.317   5.666
28864WAT      O86833   4.196   6.313   0.819
28864WAT     H186834   4.184   6.262   0.734
28864WAT     H286835   4.108   6.351   0.848
28865WAT      O86836   1.024   1.532   7.233
28865WAT     H186837   0.999   1.602   7.300
28865WAT     H286838   1.108   1.560   7.187
28866WAT      O86839   0.128   9.600   9.220
28866WAT     H186840   0.188   9.600   9.299
28866WAT     H286841   0.054   9.667   9.234
28867WAT      O86842   7.130   3.314   7.995
28867WAT     H186843   7.200   3.249   8.026
28867WAT     H286844   7.070   3.268   7.930
28868WAT      O86845   7.288   1.210   6.195
28868WAT     H186846   7.281   1.295   6.247
28868WAT     H286847   7.295   1.231   6.097
28869WAT      O86848   6.687   3.610   7.049
28869WAT     H186849   6.730   3.656   7.126
28869WAT     H286850   6.696   3.666   6.967
28870WAT      O86851   1.549   8.805   8.508
28870WAT     H186852   1.451   8.787   8.500
28870WAT     H286853   1.565   8.879   8.572
28871WAT      O86854   2.789   9.759   0.116
28871WAT     H186855   2.711   9.757   0.054
28871WAT     H286856   2.863   9.812   0.074
28872WAT      O86857   3.312   8.796   8.121
28872WAT     H186858   3.393   8.848   8.094
28872WAT     H286859   3.232   8.832   8.074
28873WAT      O86860   5.693   2.466   2.937
28873WAT     H186861   5.678   2.377   2.981
28873WAT     H286862   5.783   2.501   2.961
28874WAT      O86863   4.851   5.112   0.325
28874WAT     H186864   4.851   5.035   0.389
28874WAT     H286865   4.836   5.198   0.376
28875WAT      O86866   5.562   2.579   2.121
28875WAT     H186867   5.481   2.612   2.073
28875WAT     H286868   5.633   2.557   2.054
28876WAT      O86869   9.566   2.845   5.385
28876WAT     H186870   9.595   2.766   5.332
28876WAT     H286871   9.618   2.926   5.356
28877WAT      O86872   8.582   3.554   3.690
28877WAT     H186873   8.623   3.585   3.604
28877WAT     H286874   8.654   3.526   3.753
28878WAT      O86875   1.772   5.734   3.839
28878WAT     H186876   1.760   5.637   3.818
28878WAT     H286877   1.868   5.752   3.859
28879WAT      O86878   5.245   5.300   3.244
28879WAT     H186879   5.237   5.231   3.172
28879WAT     H286880   5.326   5.280   3.300
28880WAT      O86881   4.335   5.754   2.206
28880WAT     H186882   4.393   5.835   2.200
28880WAT     H286883   4.239   5.782   2.204
28881WAT      O86884   7.857   6.336   1.052
28881WAT     H186885   7.768   6.294   1.032
28881WAT     H286886   7.891   6.382   0.970
28882WAT      O86887   6.848   7.920   1.599
28882WAT     H186888   6.892   7.869   1.524
28882WAT     H286889   6.799   7.998   1.561
28883WAT      O86890   8.203   3.442   4.933
28883WAT     H186891   8.249   3.509   4.991
28883WAT     H286892   8.113   3.478   4.906
28884WAT      O86893   2.440   0.482   2.218
28884WAT     H186894   2.482   0.395   2.244
28884WAT     H286895   2.361   0.464   2.158
28885WAT      O86896   5.174   8.662   0.722
28885WAT     H186897   5.271   8.638   0.715
28885WAT     H286898   5.132   8.653   0.631
28886WAT      O86899   1.511   5.228   0.770
28886WAT     H186900   1.531   5.313   0.722
28886WAT     H286901   1.473   5.161   0.706
28887WAT      O86902   7.056   2.289   3.525
28887WAT     H186903   7.143   2.338   3.527
28887WAT     H286904   7.054   2.226   3.448
28888WAT      O86905   5.490   2.479   0.375
28888WAT     H186906   5.442   2.554   0.329
28888WAT     H286907   5.427   2.432   0.437
28889WAT      O86908   1.368   2.392   3.366
28889WAT     H186909   1.321   2.467   3.319
28889WAT     H286910   1.302   2.342   3.421
28890WAT      O86911   2.634   6.740   3.276
28890WAT     H186912   2.667   6.697   3.360
28890WAT     H286913   2.619   6.669   3.207
28891WAT      O86914   0.602   7.703   5.127
28891WAT     H186915   0.597   7.605   5.143
28891WAT     H286916   0.518   7.734   5.082
28892WAT      O86917   9.477   1.094   1.933
28892WAT     H186918   9.403   1.135   1.878
28892WAT     H286919   9.466   1.122   2.028
28893WAT      O86920   2.866   1.159   4.700
28893WAT     H186921   2.958   1.197   4.701
28893WAT     H286922   2.806   1.215   4.757
28894WAT      O86923   8.324   0.736   6.164
28894WAT     H186924   8.248   0.697   6.215
28894WAT     H286925   8.338   0.831   6.190
28895WAT      O86926   2.231   5.583   7.297
28895WAT     H186927   2.133   5.566   7.305
28895WAT     H286928   2.280   5.534   7.370
28896WAT      O86929   2.423   0.326   2.736
28896WAT     H186930   2.370   0.311   2.652
28896WAT     H286931   2.504   0.268   2.735
28897WAT      O86932   7.443   8.215   9.675
28897WAT     H186933   7.352   8.231   9.637
28897WAT     H286934   7.512   8.227   9.604
28898WAT      O86935   3.198   3.769   9.675
28898WAT     H186936   3.152   3.763   9.763
28898WAT     H286937   3.261   3.847   9.675
28899WAT      O86938   7.019   5.206   4.803
28899WAT     H186939   7.011   5.304   4.788
28899WAT     H286940   7.106   5.173   4.765
28900WAT      O86941   2.477   1.415   1.163
28900WAT     H186942   2.537   1.459   1.230
28900WAT     H286943   2.383   1.444   1.178
28901WAT      O86944   3.483   5.382   0.851
28901WAT     H186945   3.400   5.427   0.882
28901WAT     H286946   3.496   5.400   0.753
28902WAT      O86947   6.557   3.938   2.372
28902WAT     H186948   6.605   3.968   2.289
28902WAT     H286949   6.545   4.016   2.433
28903WAT      O86950   8.729   1.916   7.731
28903WAT     H186951   8.784   1.956   7.658
28903WAT     H286952   8.767   1.941   7.819
28904WAT      O86953   4.500   1.045   8.524
28904WAT     H186954   4.515   1.065   8.621
28904WAT     H286955   4.534   1.121   8.469
28905WAT      O86956   1.602   4.462   8.001
28905WAT     H186957   1.578   4.380   8.052
28905WAT     H286958   1.700   4.479   8.008
28906WAT      O86959   0.557   9.392   7.933
28906WAT     H186960   0.517   9.301   7.925
28906WAT     H286961   0.527   9.434   8.018
28907WAT      O86962   5.765   1.462   7.614
28907WAT     H186963   5.771   1.423   7.522
28907WAT     H286964   5.676   1.441   7.654
28908WAT      O86965   6.778   6.159   5.453
28908WAT     H186966   6.828   6.175   5.539
28908WAT     H286967   6.679   6.158   5.472
28909WAT      O86968   3.579   3.138   7.913
28909WAT     H186969   3.508   3.113   7.848
28909WAT     H286970   3.592   3.063   7.979
28910WAT      O86971   5.598   6.007   1.309
28910WAT     H186972   5.587   5.975   1.403
28910WAT     H286973   5.572   5.934   1.246
28911WAT      O86974   0.925   4.599   3.785
28911WAT     H186975   0.889   4.648   3.865
28911WAT     H286976   0.908   4.653   3.703
28912WAT      O86977   2.861   4.663   5.370
28912WAT     H186978   2.885   4.582   5.425
28912WAT     H286979   2.762   4.666   5.357
28913WAT      O86980   2.148   6.532   3.143
28913WAT     H186981   2.130   6.468   3.218
28913WAT     H286982   2.239   6.514   3.105
28914WAT      O86983   0.713   1.684   3.835
28914WAT     H186984   0.758   1.697   3.923
28914WAT     H286985   0.618   1.655   3.850
28915WAT      O86986   1.554   7.077   6.503
28915WAT     H186987   1.630   7.138   6.522
28915WAT     H286988   1.536   7.075   6.404
28916WAT      O86989   3.930   7.340   6.228
28916WAT     H186990   3.892   7.248   6.218
28916WAT     H286991   3.917   7.371   6.322
28917WAT      O86992   3.242   6.287   9.300
28917WAT     H186993   3.235   6.373   9.250
28917WAT     H286994   3.187   6.292   9.383
28918WAT      O86995   8.891   2.791   3.346
28918WAT     H186996   8.841   2.868   3.387
28918WAT     H286997   8.981   2.822   3.316
28919WAT      O86998   9.259   4.642   6.621
28919WAT     H186999   9.343   4.602   6.584
28919WAT     H287000   9.281   4.694   6.704
28920WAT      O87001   5.032   4.758   9.427
28920WAT     H187002   5.040   4.838   9.486
28920WAT     H287003   4.993   4.785   9.339
28921WAT      O87004   8.058   0.631   4.991
28921WAT     H187005   8.061   0.691   5.071
28921WAT     H287006   8.150   0.625   4.951
28922WAT      O87007  -0.004   5.512   9.128
28922WAT     H187008   0.038   5.431   9.088
28922WAT     H287009   0.063   5.586   9.132
28923WAT      O87010   5.939   0.893   3.121
28923WAT     H187011   5.861   0.916   3.063
28923WAT     H287012   6.023   0.927   3.078
28924WAT      O87013   4.775   5.974   8.450
28924WAT     H187014   4.738   5.988   8.542
28924WAT     H287015   4.791   5.877   8.434
28925WAT      O87016   7.149   4.515   6.777
28925WAT     H187017   7.102   4.449   6.718
28925WAT     H287018   7.231   4.549   6.730
28926WAT      O87019   3.383   5.331   5.845
28926WAT     H187020   3.481   5.315   5.855
28926WAT     H287021   3.344   5.357   5.933
28927WAT      O87022   0.142   3.526   7.648
28927WAT     H187023   0.219   3.465   7.632
28927WAT     H287024   0.057   3.479   7.624
28928WAT      O87025   9.250   5.501   0.493
28928WAT     H187026   9.248   5.522   0.395
28928WAT     H287027   9.338   5.529   0.531
28929WAT      O87028   1.839   7.927   9.076
28929WAT     H187029   1.745   7.954   9.056
28929WAT     H287030   1.853   7.928   9.175
28930WAT      O87031   1.947   7.827   5.869
28930WAT     H187032   1.969   7.740   5.825
28930WAT     H287033   1.964   7.820   5.967
28931WAT      O87034   1.982   1.057   3.307
28931WAT     H187035   1.933   1.070   3.222
28931WAT     H287036   2.054   0.989   3.293
28932WAT      O87037   2.266   0.301   8.686
28932WAT     H187038   2.300   0.378   8.739
28932WAT     H287039   2.169   0.315   8.665
28933WAT      O87040   9.607   3.688   5.175
28933WAT     H187041   9.549   3.730   5.105
28933WAT     H287042   9.660   3.614   5.134
28934WAT      O87043   3.082   2.479   2.844
28934WAT     H187044   3.034   2.511   2.926
28934WAT     H287045   3.147   2.549   2.814
28935WAT      O87046   8.525   8.049   3.649
28935WAT     H187047   8.483   8.119   3.592
28935WAT     H287048   8.620   8.036   3.621
28936WAT      O87049   0.945   5.847   2.793
28936WAT     H187050   0.968   5.902   2.713
28936WAT     H287051   1.000   5.876   2.871
28937WAT      O87052   8.175   4.369   5.375
28937WAT     H187053   8.253   4.422   5.343
28937WAT     H287054   8.117   4.344   5.297
28938WAT      O87055   9.245   8.403   0.158
28938WAT     H187056   9.208   8.359   0.239
28938WAT     H287057   9.188   8.381   0.078
28939WAT      O87058   0.699   7.170   9.381
28939WAT     H187059   0.626   7.229   9.414
28939WAT     H287060   0.716   7.188   9.284
28940WAT      O87061   2.592   3.789   3.241
28940WAT     H187062   2.567   3.868   3.185
28940WAT     H287063   2.510   3.736   3.262
28941WAT      O87064   7.465   2.633   1.743
28941WAT     H187065   7.391   2.685   1.700
28941WAT     H287066   7.428   2.552   1.787
28942WAT      O87067   4.426   0.440   2.925
28942WAT     H187068   4.472   0.355   2.951
28942WAT     H287069   4.368   0.423   2.845
28943WAT      O87070   0.181   4.174   1.215
28943WAT     H187071   0.229   4.225   1.145
28943WAT     H287072   0.154   4.085   1.179
28944WAT      O87073   2.580   0.895   5.384
28944WAT     H187074   2.590   0.820   5.319
28944WAT     H287075   2.540   0.974   5.339
28945WAT      O87076   0.505   1.604   7.620
28945WAT     H187077   0.407   1.586   7.626
28945WAT     H287078   0.547   1.540   7.556
28946WAT      O87079   3.169   8.123   6.083
28946WAT     H187080   3.091   8.069   6.115
28946WAT     H287081   3.169   8.125   5.983
28947WAT      O87082   1.660   5.782   2.290
28947WAT     H187083   1.714   5.752   2.369
28947WAT     H287084   1.717   5.839   2.231
28948WAT      O87085   7.454   2.156   0.720
28948WAT     H187086   7.506   2.210   0.654
28948WAT     H287087   7.432   2.212   0.800
28949WAT      O87088   9.698   9.206   2.338
28949WAT     H187089   9.707   9.290   2.285
28949WAT     H287090   9.609   9.203   2.383
28950WAT      O87091   6.500   6.101   5.252
28950WAT     H187092   6.449   6.103   5.339
28950WAT     H287093   6.481   6.185   5.201
28951WAT      O87094   3.548   0.400   8.768
28951WAT     H187095   3.632   0.348   8.786
28951WAT     H287096   3.507   0.368   8.682
28952WAT      O87097   3.641   9.098   8.320
28952WAT     H187098   3.587   9.105   8.404
28952WAT     H287099   3.599   9.031   8.259
28953WAT      O87100   8.078   3.711   5.920
28953WAT     H187101   7.980   3.727   5.905
28953WAT     H287102   8.090   3.631   5.978
28954WAT      O87103   3.710   8.438   4.965
28954WAT     H187104   3.666   8.525   4.988
28954WAT     H287105   3.664   8.397   4.885
28955WAT      O87106   9.154   5.650   2.080
28955WAT     H187107   9.146   5.551   2.089
28955WAT     H287108   9.096   5.694   2.148
28956WAT      O87109   9.262   7.882   5.451
28956WAT     H187110   9.167   7.869   5.477
28956WAT     H287111   9.318   7.810   5.491
28957WAT      O87112   3.009   2.308   9.588
28957WAT     H187113   2.915   2.344   9.592
28957WAT     H287114   3.071   2.381   9.560
28958WAT      O87115   4.711   7.873   4.606
28958WAT     H187116   4.615   7.848   4.614
28958WAT     H287117   4.738   7.875   4.510
28959WAT      O87118   4.982   0.407   9.358
28959WAT     H187119   4.996   0.501   9.390
28959WAT     H287120   4.972   0.408   9.258
28960WAT      O87121   5.597   3.955   4.993
28960WAT     H187122   5.578   3.945   4.895
28960WAT     H287123   5.663   4.029   5.007
28961WAT      O87124   0.612   1.888   4.957
28961WAT     H187125   0.642   1.792   4.963
28961WAT     H287126   0.677   1.940   4.902
28962WAT      O87127   4.973   5.442   8.342
28962WAT     H187128   4.875   5.432   8.360
28962WAT     H287129   5.025   5.405   8.418
28963WAT      O87130   1.327   8.117   2.749
28963WAT     H187131   1.410   8.082   2.791
28963WAT     H287132   1.251   8.055   2.769
28964WAT      O87133   3.516   2.363   9.391
28964WAT     H187134   3.425   2.379   9.353
28964WAT     H287135   3.536   2.266   9.389
28965WAT      O87136   7.408   4.532   0.902
28965WAT     H187137   7.385   4.626   0.876
28965WAT     H287138   7.504   4.514   0.882
28966WAT      O87139   0.099   7.130   1.625
28966WAT     H187140   0.119   7.065   1.552
28966WAT     H287141   0.144   7.217   1.605
28967WAT      O87142   5.001   7.854   6.702
28967WAT     H187143   5.028   7.946   6.674
28967WAT     H287144   4.940   7.815   6.632
28968WAT      O87145   3.938   0.346   9.557
28968WAT     H187146   3.846   0.310   9.538
28968WAT     H287147   4.004   0.271   9.558
28969WAT      O87148   5.808   0.169   3.299
28969WAT     H187149   5.824   0.198   3.205
28969WAT     H287150   5.849   0.235   3.362
28970WAT      O87151   6.018   9.354   8.162
28970WAT     H187152   6.008   9.447   8.197
28970WAT     H287153   6.057   9.357   8.070
28971WAT      O87154   1.391   2.409   0.321
28971WAT     H187155   1.436   2.455   0.245
28971WAT     H287156   1.367   2.476   0.391
28972WAT      O87157   8.051   4.416   1.584
28972WAT     H187158   7.978   4.357   1.619
28972WAT     H287159   8.084   4.380   1.497
28973WAT      O87160   5.433   1.572   5.117
28973WAT     H187161   5.524   1.530   5.111
28973WAT     H287162   5.441   1.670   5.100
28974WAT      O87163   7.290   1.966   9.472
28974WAT     H187164   7.273   1.882   9.422
28974WAT     H287165   7.273   2.045   9.413
28975WAT      O87166   1.578   5.175   3.731
28975WAT     H187167   1.661   5.131   3.765
28975WAT     H287168   1.535   5.228   3.805
28976WAT      O87169   7.346   1.238   5.924
28976WAT     H187170   7.370   1.291   5.843
28976WAT     H287171   7.313   1.148   5.896
28977WAT      O87172   4.600   9.529   7.378
28977WAT     H187173   4.600   9.602   7.446
28977WAT     H287174   4.527   9.465   7.399
28978WAT      O87175   6.974   8.047   0.326
28978WAT     H187176   6.957   8.008   0.236
28978WAT     H287177   7.043   8.119   0.318
28979WAT      O87178   2.628   5.116   7.086
28979WAT     H187179   2.708   5.128   7.026
28979WAT     H287180   2.587   5.205   7.104
28980WAT      O87181   3.843   5.616   8.465
28980WAT     H187182   3.828   5.526   8.425
28980WAT     H287183   3.762   5.643   8.517
28981WAT      O87184   5.573   4.740   0.951
28981WAT     H187185   5.592   4.782   0.861
28981WAT     H287186   5.507   4.666   0.940
28982WAT      O87187   2.525   5.301   8.589
28982WAT     H187188   2.453   5.348   8.642
28982WAT     H287189   2.503   5.204   8.582
28983WAT      O87190   6.608   0.159   6.441
28983WAT     H187191   6.698   0.155   6.399
28983WAT     H287192   6.600   0.086   6.510
28984WAT      O87193   0.600   9.565   2.381
28984WAT     H187194   0.526   9.633   2.386
28984WAT     H287195   0.568   9.484   2.332
28985WAT      O87196   9.620   8.036   6.388
28985WAT     H187197   9.613   8.030   6.488
28985WAT     H287198   9.586   7.952   6.347
28986WAT      O87199   8.005   4.213   2.179
28986WAT     H187200   7.955   4.272   2.115
28986WAT     H287201   7.993   4.247   2.272
28987WAT      O87202   1.701   0.530   5.334
28987WAT     H187203   1.657   0.619   5.337
28987WAT     H287204   1.680   0.485   5.247
28988WAT      O87205   6.161   2.896   1.609
28988WAT     H187206   6.222   2.859   1.679
28988WAT     H287207   6.176   2.994   1.600
28989WAT      O87208   7.300   2.236   7.366
28989WAT     H187209   7.265   2.252   7.274
28989WAT     H287210   7.268   2.147   7.399
28990WAT      O87211   2.484   2.456   1.418
28990WAT     H187212   2.416   2.404   1.470
28990WAT     H287213   2.556   2.395   1.387
28991WAT      O87214   9.223   6.901   4.922
28991WAT     H187215   9.253   6.835   4.853
28991WAT     H287216   9.164   6.969   4.879
28992WAT      O87217   7.946   9.638   5.443
28992WAT     H187218   7.861   9.608   5.485
28992WAT     H287219   8.009   9.561   5.436
28993WAT      O87220   5.913   3.276   8.687
28993WAT     H187221   5.854   3.322   8.752
28993WAT     H287222   5.982   3.340   8.652
28994WAT      O87223   3.678   0.925   1.856
28994WAT     H187224   3.620   0.990   1.806
28994WAT     H287225   3.705   0.850   1.794
28995WAT      O87226   4.257   5.563   9.257
28995WAT     H187227   4.169   5.593   9.294
28995WAT     H287228   4.322   5.552   9.332
28996WAT      O87229   1.954   5.208   1.805
28996WAT     H187230   2.044   5.246   1.783
28996WAT     H287231   1.886   5.281   1.805
28997WAT      O87232   5.471   9.219   4.623
28997WAT     H187233   5.552   9.276   4.613
28997WAT     H287234   5.427   9.207   4.534
28998WAT      O87235   0.025   9.579   0.862
28998WAT     H187236   0.032   9.678   0.863
28998WAT     H287237  -0.049   9.550   0.922
28999WAT      O87238   9.629   1.293   7.035
28999WAT     H187239   9.568   1.311   7.112
28999WAT     H287240   9.611   1.359   6.962
29000WAT      O87241   0.120   0.995   1.301
29000WAT     H187242   0.118   1.057   1.380
29000WAT     H287243   0.092   1.044   1.219
29001WAT      O87244   5.317   4.681   5.501
29001WAT     H187245   5.348   4.767   5.461
29001WAT     H287246   5.330   4.684   5.601
29002WAT      O87247   2.650   6.206   0.605
29002WAT     H187248   2.661   6.178   0.509
29002WAT     H287249   2.602   6.134   0.655
29003WAT      O87250   2.277   8.463   8.815
29003WAT     H187251   2.280   8.407   8.732
29003WAT     H287252   2.370   8.488   8.842
29004WAT      O87253   2.872   3.833   1.072
29004WAT     H187254   2.784   3.873   1.096
29004WAT     H287255   2.929   3.902   1.027
29005WAT      O87256   5.484   8.687   1.634
29005WAT     H187257   5.573   8.641   1.645
29005WAT     H287258   5.476   8.721   1.541
29006WAT      O87259   2.354   4.338   0.638
29006WAT     H187260   2.316   4.262   0.586
29006WAT     H287261   2.453   4.343   0.624
29007WAT      O87262   0.608   4.510   7.149
29007WAT     H187263   0.565   4.595   7.118
29007WAT     H287264   0.555   4.432   7.117
29008WAT      O87265   9.082   6.003   3.731
29008WAT     H187266   8.986   6.027   3.715
29008WAT     H287267   9.087   5.932   3.801
29009WAT      O87268   8.785   7.005   4.078
29009WAT     H187269   8.855   7.016   4.007
29009WAT     H287270   8.800   7.072   4.150
29010WAT      O87271   3.041   3.732   4.589
29010WAT     H187272   2.961   3.760   4.643
29010WAT     H287273   3.103   3.810   4.579
29011WAT      O87274   6.648   4.135   8.171
29011WAT     H187275   6.624   4.224   8.132
29011WAT     H287276   6.727   4.146   8.231
29012WAT      O87277   8.125   7.852   1.301
29012WAT     H187278   8.076   7.782   1.353
29012WAT     H287279   8.176   7.808   1.227
29013WAT      O87280   1.313   5.222   6.839
29013WAT     H187281   1.400   5.174   6.854
29013WAT     H287282   1.329   5.303   6.782
29014WAT      O87283   5.696   0.020   7.021
29014WAT     H187284   5.755   0.037   6.942
29014WAT     H287285   5.743  -0.040   7.086
29015WAT      O87286   3.960   7.811   2.754
29015WAT     H187287   3.933   7.774   2.843
29015WAT     H287288   3.885   7.802   2.689
29016WAT      O87289   3.556   2.813   8.410
29016WAT     H187290   3.457   2.831   8.412
29016WAT     H287291   3.599   2.859   8.488
29017WAT      O87292   4.600   3.233   8.564
29017WAT     H187293   4.643   3.286   8.637
29017WAT     H287294   4.560   3.149   8.602
29018WAT      O87295   6.670   6.800   5.335
29018WAT     H187296   6.749   6.859   5.346
29018WAT     H287297   6.613   6.805   5.417
29019WAT      O87298   1.416   4.568   0.022
29019WAT     H187299   1.408   4.531   0.115
29019WAT     H287300   1.326   4.569  -0.022
29020WAT      O87301   7.445   4.998   4.266
29020WAT     H187302   7.371   4.966   4.326
29020WAT     H287303   7.432   5.095   4.247
29021WAT      O87304   8.366   3.262   5.031
29021WAT     H187305   8.301   3.333   5.004
29021WAT     H287306   8.363   3.250   5.130
29022WAT      O87307   9.354   3.367   7.109
29022WAT     H187308   9.308   3.447   7.069
29022WAT     H287309   9.298   3.286   7.094
29023WAT      O87310   0.984   5.956   2.542
29023WAT     H187311   0.983   5.880   2.478
29023WAT     H287312   0.897   6.005   2.538
29024WAT      O87313   1.982   5.966   1.309
29024WAT     H187314   1.985   6.043   1.372
29024WAT     H287315   1.890   5.928   1.306
29025WAT      O87316   6.102   1.260   6.797
29025WAT     H187317   6.019   1.312   6.777
29025WAT     H287318   6.147   1.235   6.712
29026WAT      O87319   8.336   3.547   6.781
29026WAT     H187320   8.325   3.579   6.687
29026WAT     H287321   8.431   3.557   6.809
29027WAT      O87322   9.094   8.835   1.543
29027WAT     H187323   9.087   8.861   1.639
29027WAT     H287324   9.087   8.735   1.535
29028WAT      O87325   4.093   6.306   6.558
29028WAT     H187326   4.121   6.240   6.628
29028WAT     H287327   3.997   6.331   6.572
29029WAT      O87328   8.974   7.718   8.834
29029WAT     H187329   8.952   7.664   8.753
29029WAT     H287330   8.978   7.658   8.914
29030WAT      O87331   1.944   8.185   6.156
29030WAT     H187332   1.919   8.156   6.063
29030WAT     H287333   1.944   8.285   6.160
29031WAT      O87334   7.208   2.117   2.672
29031WAT     H187335   7.178   2.123   2.577
29031WAT     H287336   7.133   2.084   2.729
29032WAT      O87337   8.649   6.142   4.477
29032WAT     H187338   8.614   6.078   4.409
29032WAT     H287339   8.581   6.213   4.494
29033WAT      O87340   0.596   0.594   1.520
29033WAT     H187341   0.655   0.536   1.465
29033WAT     H287342   0.612   0.690   1.497
29034WAT      O87343   2.810   3.285   8.554
29034WAT     H187344   2.784   3.341   8.633
29034WAT     H287345   2.769   3.322   8.471
29035WAT      O87346   1.114   1.534   1.418
29035WAT     H187347   1.175   1.555   1.495
29035WAT     H287348   1.042   1.471   1.449
29036WAT      O87349   1.948   7.913   8.372
29036WAT     H187350   1.939   7.832   8.429
29036WAT     H287351   1.986   7.988   8.426
29037WAT      O87352   4.815   8.746   3.167
29037WAT     H187353   4.754   8.778   3.094
29037WAT     H287354   4.801   8.648   3.182
29038WAT      O87355   5.156   6.989   5.114
29038WAT     H187356   5.086   6.947   5.057
29038WAT     H287357   5.247   6.967   5.078
29039WAT      O87358   3.947   5.336   6.584
29039WAT     H187359   3.983   5.404   6.648
29039WAT     H287360   3.850   5.354   6.567
29040WAT      O87361   9.489   8.055   8.365
29040WAT     H187362   9.428   7.980   8.338
29040WAT     H287363   9.517   8.043   8.460
29041WAT      O87364   4.651   2.048   5.865
29041WAT     H187365   4.629   2.037   5.768
29041WAT     H287366   4.741   2.010   5.884
29042WAT      O87367   4.976   3.333   2.850
29042WAT     H187368   5.064   3.373   2.875
29042WAT     H287369   4.926   3.396   2.791
29043WAT      O87370   9.114   2.930   2.463
29043WAT     H187371   9.147   2.875   2.539
29043WAT     H287372   9.043   2.880   2.414
29044WAT      O87373   9.535   0.740   2.533
29044WAT     H187374   9.494   0.683   2.604
29044WAT     H287375   9.466   0.767   2.467
29045WAT      O87376   6.959   8.199   5.489
29045WAT     H187377   6.937   8.197   5.587
29045WAT     H287378   7.050   8.238   5.476
29046WAT      O87379   2.685   7.533   8.760
29046WAT     H187380   2.737   7.617   8.743
29046WAT     H287381   2.733   7.455   8.719
29047WAT      O87382   1.871   2.402   3.914
29047WAT     H187383   1.911   2.383   3.825
29047WAT     H287384   1.800   2.471   3.905
29048WAT      O87385   8.460   7.580   6.399
29048WAT     H187386   8.555   7.610   6.389
29048WAT     H287387   8.457   7.493   6.447
29049WAT      O87388   0.451   1.669   0.428
29049WAT     H187389   0.513   1.738   0.466
29049WAT     H287390   0.504   1.604   0.373
29050WAT      O87391   8.401   4.619   6.364
29050WAT     H187392   8.355   4.558   6.429
29050WAT     H287393   8.449   4.564   6.296
29051WAT      O87394   7.069   7.925   6.043
29051WAT     H187395   6.992   7.867   6.016
29051WAT     H287396   7.142   7.917   5.976
29052WAT      O87397   7.138   5.779   4.306
29052WAT     H187398   7.167   5.831   4.387
29052WAT     H287399   7.202   5.795   4.231
29053WAT      O87400   0.223   1.804   7.087
29053WAT     H187401   0.221   1.796   7.186
29053WAT     H287402   0.310   1.768   7.052
29054WAT      O87403   2.031   5.887   7.817
29054WAT     H187404   2.087   5.951   7.763
29054WAT     H287405   2.052   5.793   7.790
29055WAT      O87406   2.140   1.218   2.169
29055WAT     H187407   2.175   1.156   2.099
29055WAT     H287408   2.177   1.193   2.258
29056WAT      O87409   9.646   7.384   2.565
29056WAT     H187410   9.711   7.381   2.489
29056WAT     H287411   9.580   7.458   2.550
29057WAT      O87412   3.095   3.142   6.854
29057WAT     H187413   3.126   3.122   6.947
29057WAT     H287414   3.146   3.086   6.789
29058WAT      O87415   5.224   8.544   7.884
29058WAT     H187416   5.319   8.574   7.893
29058WAT     H287417   5.175   8.562   7.969
29059WAT      O87418   3.396   1.907   8.108
29059WAT     H187419   3.450   1.936   8.029
29059WAT     H287420   3.428   1.817   8.139
29060WAT      O87421   0.343   6.340   4.980
29060WAT     H187422   0.415   6.272   4.992
29060WAT     H287423   0.381   6.431   4.997
29061WAT      O87424   6.794   2.529   7.757
29061WAT     H187425   6.745   2.568   7.835
29061WAT     H287426   6.883   2.494   7.788
29062WAT      O87427   3.151   2.124   7.369
29062WAT     H187428   3.140   2.222   7.389
29062WAT     H287429   3.194   2.112   7.280
29063WAT      O87430   5.604   2.223   3.511
29063WAT     H187431   5.618   2.321   3.496
29063WAT     H287432   5.681   2.172   3.472
29064WAT      O87433   8.848   7.080   2.743
29064WAT     H187434   8.868   7.170   2.704
29064WAT     H287435   8.841   7.013   2.669
29065WAT      O87436   2.738   2.308   7.162
29065WAT     H187437   2.671   2.280   7.231
29065WAT     H287438   2.692   2.353   7.086
29066WAT      O87439   3.198   7.665   7.703
29066WAT     H187440   3.217   7.661   7.605
29066WAT     H287441   3.125   7.600   7.725
29067WAT      O87442   2.946   6.918   4.864
29067WAT     H187443   2.880   6.852   4.828
29067WAT     H287444   2.907   7.009   4.864
29068WAT      O87445   0.250   3.770   9.571
29068WAT     H187446   0.273   3.752   9.666
29068WAT     H287447   0.334   3.781   9.518
29069WAT      O87448   2.601   7.617   6.316
29069WAT     H187449   2.520   7.659   6.358
29069WAT     H287450   2.593   7.620   6.217
29070WAT      O87451   4.586   6.719   4.842
29070WAT     H187452   4.669   6.770   4.868
29070WAT     H287453   4.512   6.784   4.823
29071WAT      O87454   8.152   8.500   7.674
29071WAT     H187455   8.139   8.403   7.693
29071WAT     H287456   8.084   8.553   7.725
29072WAT      O87457   3.281   6.248   8.194
29072WAT     H187458   3.306   6.153   8.210
29072WAT     H287459   3.271   6.263   8.095
29073WAT      O87460   2.143   9.648   4.596
29073WAT     H187461   2.137   9.624   4.693
29073WAT     H287462   2.236   9.634   4.564
29074WAT      O87463   8.319   5.713   4.194
29074WAT     H187464   8.285   5.648   4.127
29074WAT     H287465   8.306   5.676   4.286
29075WAT      O87466   5.227   1.104   2.172
29075WAT     H187467   5.327   1.095   2.172
29075WAT     H287468   5.198   1.146   2.258
29076WAT      O87469   1.443   8.662   1.610
29076WAT     H187470   1.367   8.722   1.635
29076WAT     H287471   1.420   8.567   1.633
29077WAT      O87472   3.150   1.446   9.321
29077WAT     H187473   3.184   1.425   9.229
29077WAT     H287474   3.213   1.410   9.389
29078WAT      O87475   7.822   6.364   8.443
29078WAT     H187476   7.743   6.355   8.382
29078WAT     H287477   7.817   6.451   8.491
29079WAT      O87478   7.835   2.921   8.629
29079WAT     H187479   7.820   2.940   8.726
29079WAT     H287480   7.891   2.838   8.620
29080WAT      O87481   9.291   9.224   6.808
29080WAT     H187482   9.335   9.220   6.718
29080WAT     H287483   9.352   9.273   6.871
29081WAT      O87484   9.295   9.749   4.010
29081WAT     H187485   9.348   9.691   4.072
29081WAT     H287486   9.241   9.815   4.064
29082WAT      O87487   9.654   2.999   7.836
29082WAT     H187488   9.674   3.095   7.817
29082WAT     H287489   9.634   2.987   7.934
29083WAT      O87490   9.726   6.968   1.299
29083WAT     H187491   9.747   7.045   1.360
29083WAT     H287492   9.721   7.001   1.205
29084WAT      O87493   9.416   3.476   7.590
29084WAT     H187494   9.487   3.544   7.569
29084WAT     H287495   9.363   3.506   7.669
29085WAT      O87496   4.009   6.784   8.527
29085WAT     H187497   4.069   6.827   8.595
29085WAT     H287498   4.064   6.738   8.458
29086WAT      O87499   2.717   8.201   4.980
29086WAT     H187500   2.673   8.187   5.069
29086WAT     H287501   2.685   8.131   4.916
29087WAT      O87502   0.166   5.077   4.321
29087WAT     H187503   0.095   5.142   4.347
29087WAT     H287504   0.256   5.119   4.334
29088WAT      O87505   8.320   4.033   3.304
29088WAT     H187506   8.259   3.954   3.294
29088WAT     H287507   8.304   4.096   3.227
29089WAT      O87508   9.428   9.793   6.381
29089WAT     H187509   9.352   9.813   6.443
29089WAT     H287510   9.410   9.707   6.333
29090WAT      O87511   6.528   1.632   9.419
29090WAT     H187512   6.494   1.626   9.326
29090WAT     H287513   6.628   1.632   9.418
29091WAT      O87514   1.672   3.420   8.964
29091WAT     H187515   1.654   3.513   8.931
29091WAT     H287516   1.743   3.378   8.908
29092WAT      O87517   1.380   6.155   6.014
29092WAT     H187518   1.326   6.203   6.083
29092WAT     H287519   1.471   6.197   6.008
29093WAT      O87520   1.396   2.817   4.903
29093WAT     H187521   1.359   2.789   4.814
29093WAT     H287522   1.422   2.914   4.898
29094WAT      O87523   1.276   8.706   5.770
29094WAT     H187524   1.363   8.659   5.783
29094WAT     H287525   1.288   8.804   5.784
29095WAT      O87526   9.585   4.893   8.811
29095WAT     H187527   9.650   4.928   8.879
29095WAT     H287528   9.502   4.949   8.813
29096WAT      O87529   0.845   0.201   6.079
29096WAT     H187530   0.786   0.153   6.145
29096WAT     H287531   0.795   0.278   6.040
29097WAT      O87532   8.848   6.019   6.364
29097WAT     H187533   8.891   6.087   6.304
29097WAT     H287534   8.778   5.970   6.313
29098WAT      O87535   9.234   1.230   5.564
29098WAT     H187536   9.325   1.237   5.522
29098WAT     H287537   9.175   1.303   5.530
29099WAT      O87538   6.406   5.369   5.488
29099WAT     H187539   6.421   5.317   5.572
29099WAT     H287540   6.328   5.330   5.438
29100WAT      O87541   3.922   6.690   6.506
29100WAT     H187542   3.944   6.624   6.434
29100WAT     H287543   3.822   6.694   6.517
29101WAT      O87544   3.945   8.693   6.619
29101WAT     H187545   3.976   8.747   6.541
29101WAT     H287546   4.020   8.636   6.652
29102WAT      O87547   5.438   2.648   3.576
29102WAT     H187548   5.533   2.654   3.605
29102WAT     H287549   5.420   2.556   3.539
29103WAT      O87550   1.700   4.934   7.555
29103WAT     H187551   1.668   4.902   7.644
29103WAT     H287552   1.796   4.912   7.544
29104WAT      O87553   4.683   8.432   9.819
29104WAT     H187554   4.752   8.478   9.876
29104WAT     H287555   4.605   8.493   9.807
29105WAT      O87556   5.110   5.072   3.763
29105WAT     H187557   5.053   5.053   3.683
29105WAT     H287558   5.190   5.124   3.736
29106WAT      O87559   7.127   9.228   1.543
29106WAT     H187560   7.058   9.156   1.534
29106WAT     H287561   7.086   9.316   1.518
29107WAT      O87562   2.436   1.716   7.994
29107WAT     H187563   2.460   1.789   8.057
29107WAT     H287564   2.459   1.627   8.035
29108WAT      O87565   6.617   7.609   6.648
29108WAT     H187566   6.519   7.630   6.645
29108WAT     H287567   6.644   7.590   6.742
29109WAT      O87568   0.282   4.963   2.475
29109WAT     H187569   0.263   5.014   2.558
29109WAT     H287570   0.356   4.897   2.492
29110WAT      O87571   7.165   6.217   0.179
29110WAT     H187572   7.182   6.141   0.242
29110WAT     H287573   7.074   6.255   0.196
29111WAT      O87574   4.264   3.357   6.511
29111WAT     H187575   4.191   3.381   6.447
29111WAT     H287576   4.223   3.333   6.599
29112WAT      O87577   8.458   9.198   5.790
29112WAT     H187578   8.360   9.181   5.781
29112WAT     H287579   8.483   9.279   5.737
29113WAT      O87580   0.915   5.598   3.662
29113WAT     H187581   0.936   5.636   3.572
29113WAT     H287582   0.992   5.543   3.694
29114WAT      O87583   5.486   4.496   1.890
29114WAT     H187584   5.481   4.542   1.979
29114WAT     H287585   5.447   4.556   1.820
29115WAT      O87586   0.478   4.739   1.469
29115WAT     H187587   0.535   4.729   1.388
29115WAT     H287588   0.393   4.688   1.457
29116WAT      O87589   3.308   2.246   8.449
29116WAT     H187590   3.329   2.244   8.547
29116WAT     H287591   3.376   2.193   8.399
29117WAT      O87592   1.646   3.748   1.821
29117WAT     H187593   1.583   3.785   1.753
29117WAT     H287594   1.687   3.664   1.786
29118WAT      O87595   8.110   4.295   0.521
29118WAT     H187596   8.167   4.262   0.445
29118WAT     H287597   8.071   4.217   0.570
29119WAT      O87598   9.450   5.820   5.760
29119WAT     H187599   9.442   5.721   5.750
29119WAT     H287600   9.531   5.852   5.711
29120WAT      O87601   5.085   0.572   3.555
29120WAT     H187602   5.046   0.613   3.637
29120WAT     H287603   5.111   0.477   3.574
29121WAT      O87604   2.165   0.295   6.956
29121WAT     H187605   2.071   0.315   6.929
29121WAT     H287606   2.215   0.257   6.878
29122WAT      O87607   4.310   1.811   3.048
29122WAT     H187608   4.380   1.801   2.977
29122WAT     H287609   4.342   1.877   3.116
29123WAT      O87610   1.783   5.270   8.599
29123WAT     H187611   1.714   5.249   8.530
29123WAT     H287612   1.738   5.282   8.688
29124WAT      O87613   6.864   2.015   4.418
29124WAT     H187614   6.916   1.939   4.458
29124WAT     H287615   6.926   2.092   4.402
29125WAT      O87616   8.803   1.010   5.600
29125WAT     H187617   8.743   0.957   5.539
29125WAT     H287618   8.759   1.019   5.689
29126WAT      O87619   5.735   2.555   9.516
29126WAT     H187620   5.770   2.465   9.491
29126WAT     H287621   5.753   2.571   9.613
29127WAT      O87622   5.848   4.198   6.659
29127WAT     H187623   5.753   4.230   6.657
29127WAT     H287624   5.852   4.110   6.706
29128WAT      O87625   2.426   1.288   4.756
29128WAT     H187626   2.354   1.354   4.737
29128WAT     H287627   2.516   1.330   4.740
29129WAT      O87628   2.290   0.560   8.795
29129WAT     H187629   2.207   0.616   8.806
29129WAT     H287630   2.356   0.587   8.865
29130WAT      O87631   1.214   1.049   5.413
29130WAT     H187632   1.207   0.976   5.345
29130WAT     H287633   1.303   1.094   5.404
29131WAT      O87634   8.003   6.858   5.903
29131WAT     H187635   8.019   6.849   5.805
29131WAT     H287636   7.909   6.889   5.919
29132WAT      O87637   2.377   0.564   9.388
29132WAT     H187638   2.339   0.530   9.302
29132WAT     H287639   2.402   0.661   9.378
29133WAT      O87640   6.622   1.445   1.670
29133WAT     H187641   6.540   1.388   1.677
29133WAT     H287642   6.703   1.386   1.662
29134WAT      O87643   8.197   5.854   2.248
29134WAT     H187644   8.182   5.855   2.346
29134WAT     H287645   8.116   5.890   2.202
29135WAT      O87646   8.015   2.470   6.774
29135WAT     H187647   7.951   2.408   6.729
29135WAT     H287648   7.965   2.547   6.814
29136WAT      O87649   0.426   6.638   2.793
29136WAT     H187650   0.410   6.710   2.726
29136WAT     H287651   0.500   6.578   2.761
29137WAT      O87652   2.559   2.411   3.627
29137WAT     H187653   2.491   2.341   3.645
29137WAT     H287654   2.547   2.447   3.535
29138WAT      O87655   4.426   3.279   4.895
29138WAT     H187656   4.384   3.300   4.984
29138WAT     H287657   4.509   3.334   4.883
29139WAT      O87658   7.410   6.734   7.992
29139WAT     H187659   7.496   6.755   7.946
29139WAT     H287660   7.384   6.810   8.052
29140WAT      O87661   1.064   2.631   7.129
29140WAT     H187662   1.046   2.625   7.227
29140WAT     H287663   0.994   2.688   7.086
29141WAT      O87664   6.621   2.450   8.251
29141WAT     H187665   6.688   2.524   8.246
29141WAT     H287666   6.657   2.377   8.310
29142WAT      O87667   5.887   3.568   9.524
29142WAT     H187668   5.852   3.519   9.443
29142WAT     H287669   5.813   3.579   9.591
29143WAT      O87670   0.379   9.052   2.282
29143WAT     H187671   0.452   9.081   2.343
29143WAT     H287672   0.330   9.133   2.248
29144WAT      O87673   2.143   5.792   0.968
29144WAT     H187674   2.094   5.712   0.932
29144WAT     H287675   2.117   5.873   0.914
29145WAT      O87676   9.165   3.533   1.622
29145WAT     H187677   9.086   3.560   1.567
29145WAT     H287678   9.203   3.613   1.668
29146WAT      O87679   1.641   9.712   5.162
29146WAT     H187680   1.620   9.745   5.254
29146WAT     H287681   1.590   9.765   5.094
29147WAT      O87682   1.335   3.318   1.478
29147WAT     H187683   1.362   3.404   1.522
29147WAT     H287684   1.311   3.251   1.547
29148WAT      O87685   9.171   0.998   6.949
29148WAT     H187686   9.152   0.904   6.976
29148WAT     H287687   9.196   1.051   7.029
29149WAT      O87688   8.095   0.107   5.782
29149WAT     H187689   8.078   0.037   5.852
29149WAT     H287690   8.012   0.160   5.767
29150WAT      O87691   8.842   2.067   7.527
29150WAT     H187692   8.834   2.167   7.536
29150WAT     H287693   8.922   2.045   7.472
29151WAT      O87694   3.295   8.129   9.635
29151WAT     H187695   3.221   8.164   9.578
29151WAT     H287696   3.259   8.098   9.723
29152WAT      O87697   7.558   5.419   3.607
29152WAT     H187698   7.527   5.329   3.580
29152WAT     H287699   7.520   5.488   3.546
29153WAT      O87700   7.136   0.884   3.362
29153WAT     H187701   7.117   0.838   3.448
29153WAT     H287702   7.072   0.853   3.292
29154WAT      O87703   5.804   8.169   7.844
29154WAT     H187704   5.842   8.167   7.936
29154WAT     H287705   5.712   8.208   7.847
29155WAT      O87706   2.329   6.028   5.743
29155WAT     H187707   2.282   6.114   5.763
29155WAT     H287708   2.415   6.047   5.697
29156WAT      O87709   2.511   3.097   9.835
29156WAT     H187710   2.603   3.126   9.861
29156WAT     H287711   2.514   3.050   9.746
29157WAT      O87712   9.320   8.040   3.783
29157WAT     H187713   9.278   8.129   3.801
29157WAT     H287714   9.334   7.992   3.870
29158WAT      O87715   9.181   5.332   9.406
29158WAT     H187716   9.113   5.361   9.473
29158WAT     H287717   9.262   5.297   9.453
29159WAT      O87718   9.399   3.916   2.164
29159WAT     H187719   9.328   3.977   2.131
29159WAT     H287720   9.357   3.833   2.202
29160WAT      O87721   0.112   5.086   9.431
29160WAT     H187722   0.157   5.033   9.359
29160WAT     H287723   0.077   5.171   9.393
29161WAT      O87724   6.215   0.804   8.860
29161WAT     H187725   6.257   0.765   8.779
29161WAT     H287726   6.201   0.731   8.928
29162WAT      O87727   6.616   3.440   5.293
29162WAT     H187728   6.620   3.441   5.393
29162WAT     H287729   6.573   3.523   5.260
29163WAT      O87730   1.701   7.330   1.719
29163WAT     H187731   1.727   7.303   1.812
29163WAT     H287732   1.758   7.281   1.653
29164WAT      O87733   3.970   7.011   3.804
29164WAT     H187734   3.962   7.036   3.707
29164WAT     H287735   4.050   6.953   3.817
29165WAT      O87736   2.220   9.132   2.802
29165WAT     H187737   2.205   9.185   2.719
29165WAT     H287738   2.318   9.131   2.824
29166WAT      O87739   9.625   1.885   7.950
29166WAT     H187740   9.662   1.896   7.858
29166WAT     H287741   9.527   1.866   7.944
29167WAT      O87742   4.070   5.819   2.179
29167WAT     H187743   3.993   5.883   2.186
29167WAT     H287744   4.039   5.733   2.138
29168WAT      O87745   9.756   4.671   2.276
29168WAT     H187746   9.717   4.582   2.299
29168WAT     H287747   9.813   4.704   2.351
29169WAT      O87748   9.184   4.084   2.082
29169WAT     H187749   9.138   4.137   2.153
29169WAT     H287750   9.146   4.109   1.992
29170WAT      O87751   6.681   1.167   6.194
29170WAT     H187752   6.718   1.245   6.144
29170WAT     H287753   6.745   1.090   6.190
29171WAT      O87754   9.161   3.271   5.633
29171WAT     H187755   9.080   3.258   5.577
29171WAT     H287756   9.142   3.245   5.727
29172WAT      O87757   9.245   2.062   7.935
29172WAT     H187758   9.171   2.059   7.867
29172WAT     H287759   9.316   1.995   7.910
29173WAT      O87760   6.733   2.445   4.801
29173WAT     H187761   6.706   2.541   4.813
29173WAT     H287762   6.696   2.391   4.877
29174WAT      O87763   5.597   0.679   1.042
29174WAT     H187764   5.543   0.729   1.109
29174WAT     H287765   5.563   0.585   1.036
29175WAT      O87766   5.780   7.701   2.430
29175WAT     H187767   5.748   7.648   2.509
29175WAT     H287768   5.876   7.726   2.444
29176WAT      O87769   1.476   2.340   7.448
29176WAT     H187770   1.540   2.277   7.403
29176WAT     H287771   1.498   2.434   7.422
29177WAT      O87772   3.912   8.181   8.672
29177WAT     H187773   3.917   8.274   8.634
29177WAT     H287774   3.990   8.128   8.639
29178WAT      O87775   2.753   3.405   8.310
29178WAT     H187776   2.789   3.497   8.323
29178WAT     H287777   2.810   3.356   8.244
29179WAT      O87778   6.428   3.349   8.954
29179WAT     H187779   6.388   3.294   9.027
29179WAT     H287780   6.464   3.434   8.993
29180WAT      O87781   0.344   7.078   2.361
29180WAT     H187782   0.345   7.046   2.266
29180WAT     H287783   0.251   7.073   2.397
29181WAT      O87784   0.793   6.138   6.034
29181WAT     H187785   0.833   6.216   6.082
29181WAT     H287786   0.833   6.132   5.943
29182WAT      O87787   1.349   7.601   8.944
29182WAT     H187788   1.280   7.600   9.017
29182WAT     H287789   1.312   7.556   8.863
29183WAT      O87790   5.593   3.044   1.638
29183WAT     H187791   5.557   3.077   1.725
29183WAT     H287792   5.520   2.999   1.586
29184WAT      O87793   4.645   2.470   0.837
29184WAT     H187794   4.683   2.383   0.806
29184WAT     H287795   4.547   2.473   0.817
29185WAT      O87796   4.802   8.386   9.119
29185WAT     H187797   4.871   8.429   9.178
29185WAT     H287798   4.776   8.449   9.046
29186WAT      O87799   4.695   9.775   8.419
29186WAT     H187800   4.664   9.852   8.475
29186WAT     H287801   4.731   9.809   8.332
29187WAT      O87802   9.474   9.412   8.217
29187WAT     H187803   9.555   9.354   8.206
29187WAT     H287804   9.503   9.507   8.229
29188WAT      O87805   7.393   4.916   5.775
29188WAT     H187806   7.468   4.968   5.735
29188WAT     H287807   7.397   4.921   5.874
29189WAT      O87808   1.168   3.187   6.154
29189WAT     H187809   1.108   3.165   6.230
29189WAT     H287810   1.150   3.125   6.078
29190WAT      O87811   1.680   0.218   6.916
29190WAT     H187812   1.656   0.164   6.996
29190WAT     H287813   1.605   0.280   6.893
29191WAT      O87814   0.745   8.994   1.810
29191WAT     H187815   0.680   9.017   1.882
29191WAT     H287816   0.697   8.986   1.723
29192WAT      O87817   8.895   6.350   2.939
29192WAT     H187818   8.975   6.394   2.978
29192WAT     H287819   8.823   6.419   2.924
29193WAT      O87820   3.540   1.227   7.701
29193WAT     H187821   3.456   1.252   7.749
29193WAT     H287822   3.595   1.309   7.686
29194WAT      O87823   1.901   4.841   6.103
29194WAT     H187824   1.802   4.854   6.097
29194WAT     H287825   1.943   4.868   6.016
29195WAT      O87826   6.037   0.364   1.284
29195WAT     H187827   6.074   0.425   1.214
29195WAT     H287828   5.943   0.338   1.261
29196WAT      O87829   2.803   6.986   5.673
29196WAT     H187830   2.721   6.940   5.705
29196WAT     H287831   2.878   6.920   5.665
29197WAT      O87832   2.225   0.669   5.043
29197WAT     H187833   2.154   0.692   5.110
29197WAT     H287834   2.282   0.596   5.079
29198WAT      O87835   3.482   7.705   6.189
29198WAT     H187836   3.562   7.677   6.135
29198WAT     H287837   3.475   7.805   6.189
29199WAT      O87838   6.722   3.565   1.863
29199WAT     H187839   6.701   3.544   1.768
29199WAT     H287840   6.821   3.565   1.876
29200WAT      O87841   9.886   6.667   1.429
29200WAT     H187842   9.820   6.596   1.456
29200WAT     H287843   9.852   6.715   1.349
29201WAT      O87844   0.189   7.411   2.352
29201WAT     H187845   0.259   7.426   2.421
29201WAT     H287846   0.228   7.359   2.276
29202WAT      O87847   4.306   6.659   9.753
29202WAT     H187848   4.209   6.637   9.752
29202WAT     H287849   4.353   6.601   9.820
29203WAT      O87850   4.755   2.958   7.322
29203WAT     H187851   4.664   2.985   7.288
29203WAT     H287852   4.747   2.926   7.416
29204WAT      O87853   6.342   6.656   2.130
29204WAT     H187854   6.267   6.683   2.190
29204WAT     H287855   6.427   6.701   2.159
29205WAT      O87856   3.266   3.808   1.530
29205WAT     H187857   3.290   3.807   1.433
29205WAT     H287858   3.228   3.719   1.556
29206WAT      O87859   6.576   4.231   0.319
29206WAT     H187860   6.537   4.142   0.344
29206WAT     H287861   6.675   4.227   0.326
29207WAT      O87862   2.639   2.512   0.724
29207WAT     H187863   2.571   2.568   0.771
29207WAT     H287864   2.677   2.563   0.647
29208WAT      O87865   1.277   7.021   4.729
29208WAT     H187866   1.373   6.991   4.735
29208WAT     H287867   1.221   6.947   4.692
29209WAT      O87868   4.338   7.664   7.387
29209WAT     H187869   4.288   7.671   7.474
29209WAT     H287870   4.436   7.680   7.404
29210WAT      O87871   9.407   2.529   0.915
29210WAT     H187872   9.352   2.567   0.840
29210WAT     H287873   9.441   2.439   0.889
29211WAT      O87874   9.201   2.037   1.870
29211WAT     H187875   9.293   2.074   1.858
29211WAT     H287876   9.138   2.082   1.808
29212WAT      O87877   5.951   4.738   9.793
29212WAT     H187878   5.913   4.827   9.820
29212WAT     H287879   6.016   4.708   9.861
29213WAT      O87880   2.183   3.100   6.871
29213WAT     H187881   2.157   3.092   6.775
29213WAT     H287882   2.283   3.091   6.880
29214WAT      O87883   2.921   2.050   9.562
29214WAT     H187884   2.979   2.132   9.559
29214WAT     H287885   2.920   2.014   9.655
29215WAT      O87886   9.457   5.414   5.190
29215WAT     H187887   9.505   5.362   5.120
29215WAT     H287888   9.418   5.496   5.150
29216WAT      O87889   3.045   3.454   7.793
29216WAT     H187890   2.968   3.464   7.730
29216WAT     H287891   3.111   3.389   7.754
29217WAT      O87892   8.454   2.090   0.268
29217WAT     H187893   8.527   2.129   0.324
29217WAT     H287894   8.403   2.024   0.323
29218WAT      O87895   1.220   3.647   1.810
29218WAT     H187896   1.179   3.647   1.719
29218WAT     H287897   1.148   3.646   1.879
29219WAT      O87898   9.438   9.778   9.430
29219WAT     H187899   9.342   9.807   9.430
29219WAT     H287900   9.470   9.771   9.336
29220WAT      O87901   7.513   7.966   5.822
29220WAT     H187902   7.516   8.064   5.838
29220WAT     H287903   7.419   7.933   5.834
29221WAT      O87904   0.145   6.750   3.141
29221WAT     H187905   0.111   6.843   3.129
29221WAT     H287906   0.100   6.707   3.219
29222WAT      O87907   7.774   3.185   7.584
29222WAT     H187908   7.869   3.200   7.611
29222WAT     H287909   7.731   3.272   7.562
29223WAT      O87910   1.959   3.058   6.205
29223WAT     H187911   1.945   3.153   6.233
29223WAT     H287912   1.895   3.036   6.132
29224WAT      O87913   8.878   2.881   1.742
29224WAT     H187914   8.817   2.816   1.788
29224WAT     H287915   8.867   2.873   1.643
29225WAT      O87916   8.252   3.814   2.894
29225WAT     H187917   8.171   3.786   2.946
29225WAT     H287918   8.334   3.788   2.945
29226WAT      O87919   6.491   0.262   9.180
29226WAT     H187920   6.546   0.186   9.144
29226WAT     H287921   6.483   0.252   9.279
29227WAT      O87922   6.104   1.048   2.487
29227WAT     H187923   6.132   1.108   2.412
29227WAT     H287924   6.146   1.080   2.572
29228WAT      O87925   8.686   6.912   1.814
29228WAT     H187926   8.673   6.945   1.720
29228WAT     H287927   8.671   6.813   1.816
29229WAT      O87928   9.189   7.622   3.688
29229WAT     H187929   9.272   7.669   3.658
29229WAT     H287930   9.200   7.523   3.675
29230WAT      O87931   0.997   1.145   6.491
29230WAT     H187932   1.060   1.155   6.568
29230WAT     H287933   0.907   1.117   6.525
29231WAT      O87934   2.488   7.347   5.638
29231WAT     H187935   2.485   7.250   5.664
29231WAT     H287936   2.435   7.360   5.554
29232WAT      O87937   1.914   4.098   4.312
29232WAT     H187938   1.817   4.120   4.303
29232WAT     H287939   1.959   4.169   4.366
29233WAT      O87940   2.123   3.795   6.702
29233WAT     H187941   2.190   3.754   6.640
29233WAT     H287942   2.139   3.893   6.708
29234WAT      O87943   3.140   5.308   6.302
29234WAT     H187944   3.139   5.364   6.385
29234WAT     H287945   3.094   5.221   6.319
29235WAT      O87946   9.869   4.631   9.497
29235WAT     H187947   9.791   4.646   9.436
29235WAT     H287948   9.950   4.607   9.443
29236WAT      O87949   3.124   6.849   2.367
29236WAT     H187950   3.221   6.866   2.349
29236WAT     H287951   3.102   6.879   2.460
29237WAT      O87952   2.432   3.689   9.808
29237WAT     H187953   2.493   3.768   9.804
29237WAT     H287954   2.449   3.639   9.894
29238WAT      O87955   6.599   3.751   0.384
29238WAT     H187956   6.540   3.671   0.394
29238WAT     H287957   6.612   3.795   0.473
29239WAT      O87958   4.869   8.085   8.542
29239WAT     H187959   4.831   8.075   8.633
29239WAT     H287960   4.965   8.055   8.542
29240WAT      O87961   2.495   6.825   4.782
29240WAT     H187962   2.470   6.909   4.733
29240WAT     H287963   2.421   6.758   4.771
29241WAT      O87964   0.860   4.742   1.232
29241WAT     H187965   0.942   4.687   1.218
29241WAT     H287966   0.884   4.825   1.283
29242WAT      O87967   7.184   9.109   7.962
29242WAT     H187968   7.165   9.182   8.028
29242WAT     H287969   7.209   9.149   7.874
29243WAT      O87970   6.875   9.822   6.767
29243WAT     H187971   6.848   9.791   6.676
29243WAT     H287972   6.899   9.919   6.764
29244WAT      O87973   9.128   4.330   0.243
29244WAT     H187974   9.052   4.383   0.281
29244WAT     H287975   9.204   4.331   0.308
29245WAT      O87976   9.580   2.978   8.939
29245WAT     H187977   9.666   2.948   8.898
29245WAT     H287978   9.577   3.078   8.940
29246WAT      O87979   2.338   8.907   0.410
29246WAT     H187980   2.259   8.927   0.353
29246WAT     H287981   2.315   8.836   0.477
29247WAT      O87982   1.395   4.946   9.213
29247WAT     H187983   1.450   4.973   9.133
29247WAT     H287984   1.302   4.927   9.184
29248WAT      O87985   2.729   1.478   1.275
29248WAT     H187986   2.773   1.389   1.278
29248WAT     H287987   2.708   1.509   1.368
29249WAT      O87988   3.444   3.404   0.301
29249WAT     H187989   3.414   3.371   0.391
29249WAT     H287990   3.496   3.488   0.313
29250WAT      O87991   0.353   8.096   6.770
29250WAT     H187992   0.359   7.998   6.748
29250WAT     H287993   0.417   8.146   6.711
29251WAT      O87994   0.999   8.652   6.928
29251WAT     H187995   1.006   8.742   6.887
29251WAT     H287996   1.090   8.616   6.945
29252WAT      O87997   3.166   4.853   1.203
29252WAT     H187998   3.131   4.938   1.242
29252WAT     H287999   3.136   4.845   1.107
29253WAT      O88000   9.679   3.893   5.345
29253WAT     H188001   9.602   3.943   5.385
29253WAT     H288002   9.645   3.816   5.290
29254WAT      O88003   7.335   9.374   9.344
29254WAT     H188004   7.430   9.400   9.358
29254WAT     H288005   7.324   9.277   9.364
29255WAT      O88006   8.589   7.140   6.418
29255WAT     H188007   8.557   7.205   6.487
29255WAT     H288008   8.610   7.189   6.334
29256WAT      O88009   6.599   7.740   5.456
29256WAT     H188010   6.524   7.804   5.436
29256WAT     H288011   6.625   7.747   5.552
29257WAT      O88012   4.869   2.575   4.366
29257WAT     H188013   4.927   2.506   4.408
29257WAT     H288014   4.789   2.591   4.424
29258WAT      O88015   2.369   7.438   5.411
29258WAT     H188016   2.402   7.364   5.353
29258WAT     H288017   2.348   7.518   5.355
29259WAT      O88018   8.265   7.640   1.611
29259WAT     H188019   8.175   7.646   1.654
29259WAT     H288020   8.278   7.547   1.576
29260WAT      O88021   9.486   6.540   9.511
29260WAT     H188022   9.521   6.570   9.422
29260WAT     H288023   9.402   6.589   9.532
29261WAT      O88024   4.587   1.485   8.572
29261WAT     H188025   4.647   1.557   8.607
29261WAT     H288026   4.632   1.397   8.581
29262WAT      O88027   3.807   4.351   2.260
29262WAT     H188028   3.814   4.381   2.356
29262WAT     H288029   3.736   4.281   2.252
29263WAT      O88030   2.533   7.773   3.595
29263WAT     H188031   2.503   7.863   3.628
29263WAT     H288032   2.614   7.744   3.646
29264WAT      O88033   0.470   2.749   8.904
29264WAT     H188034   0.454   2.800   8.988
29264WAT     H288035   0.569   2.739   8.890
29265WAT      O88036   1.528   6.301   1.830
29265WAT     H188037   1.520   6.399   1.809
29265WAT     H288038   1.531   6.289   1.929
29266WAT      O88039   2.861   2.113   1.521
29266WAT     H188040   2.959   2.096   1.516
29266WAT     H288041   2.813   2.048   1.461
29267WAT      O88042   9.345   3.269   0.362
29267WAT     H188043   9.261   3.308   0.325
29267WAT     H288044   9.367   3.184   0.313
29268WAT      O88045   8.426   6.039   2.918
29268WAT     H188046   8.521   6.066   2.901
29268WAT     H288047   8.378   6.030   2.830
29269WAT      O88048   8.883   3.582   3.406
29269WAT     H188049   8.924   3.528   3.479
29269WAT     H288050   8.943   3.659   3.384
29270WAT      O88051   4.596   0.419   7.337
29270WAT     H188052   4.602   0.370   7.250
29270WAT     H288053   4.559   0.357   7.407
29271WAT      O88054   6.369   8.912   6.237
29271WAT     H188055   6.399   8.844   6.171
29271WAT     H288056   6.330   8.990   6.189
29272WAT      O88057   9.276   1.125   2.602
29272WAT     H188058   9.222   1.083   2.675
29272WAT     H288059   9.289   1.222   2.623
29273WAT      O88060   0.682   5.548   6.677
29273WAT     H188061   0.614   5.601   6.625
29273WAT     H288062   0.708   5.599   6.759
29274WAT      O88063   6.320   1.649   4.865
29274WAT     H188064   6.252   1.722   4.854
29274WAT     H288065   6.366   1.633   4.778
29275WAT      O88066   4.918   1.599   5.055
29275WAT     H188067   4.845   1.535   5.031
29275WAT     H288068   4.921   1.673   4.988
29276WAT      O88069   5.379   3.713   2.509
29276WAT     H188070   5.424   3.670   2.431
29276WAT     H288071   5.289   3.747   2.482
29277WAT      O88072   3.537   4.773   4.754
29277WAT     H188073   3.443   4.795   4.779
29277WAT     H288074   3.600   4.826   4.809
29278WAT      O88075   8.256   5.162   2.533
29278WAT     H188076   8.345   5.194   2.564
29278WAT     H288077   8.208   5.236   2.486
29279WAT      O88078   4.783   9.489   1.323
29279WAT     H188079   4.842   9.505   1.244
29279WAT     H288080   4.770   9.391   1.335
29280WAT      O88081   8.834   1.090   5.199
29280WAT     H188082   8.766   1.112   5.269
29280WAT     H288083   8.848   1.169   5.138
29281WAT      O88084   2.465   7.236   3.963
29281WAT     H188085   2.420   7.311   4.012
29281WAT     H288086   2.402   7.197   3.896
29282WAT      O88087   2.352   5.681   8.381
29282WAT     H188088   2.396   5.591   8.379
29282WAT     H288089   2.259   5.672   8.418
29283WAT      O88090   7.129   8.353   8.221
29283WAT     H188091   7.203   8.397   8.170
29283WAT     H288092   7.162   8.324   8.310
29284WAT      O88093   9.629   2.857   2.609
29284WAT     H188094   9.573   2.936   2.636
29284WAT     H288095   9.576   2.773   2.621
29285WAT      O88096   7.605   7.174   9.831
29285WAT     H188097   7.698   7.209   9.845
29285WAT     H288098   7.549   7.199   9.910
29286WAT      O88099   0.704   5.430   9.231
29286WAT     H188100   0.622   5.481   9.205
29286WAT     H288101   0.722   5.443   9.329
29287WAT      O88102   8.958   0.136   2.114
29287WAT     H188103   8.971   0.060   2.178
29287WAT     H288104   8.987   0.108   2.023
29288WAT      O88105   8.882   4.426   7.408
29288WAT     H188106   8.899   4.523   7.427
29288WAT     H288107   8.966   4.383   7.374
29289WAT      O88108   6.241   4.235   1.082
29289WAT     H188109   6.198   4.213   1.170
29289WAT     H288110   6.249   4.335   1.073
29290WAT      O88111   5.195   2.319   3.283
29290WAT     H188112   5.269   2.253   3.297
29290WAT     H288113   5.119   2.298   3.346
29291WAT      O88114   3.798   9.099   3.032
29291WAT     H188115   3.819   9.008   3.068
29291WAT     H288116   3.699   9.113   3.033
29292WAT      O88117   7.474   7.269   9.624
29292WAT     H188118   7.380   7.235   9.632
29292WAT     H288119   7.529   7.232   9.699
29293WAT      O88120   1.218   9.769   0.521
29293WAT     H188121   1.318   9.765   0.532
29293WAT     H288122   1.175   9.762   0.611
29294WAT      O88123   5.024   9.796   2.964
29294WAT     H188124   5.121   9.810   2.944
29294WAT     H288125   4.971   9.806   2.880
29295WAT      O88126   7.123   0.800   0.334
29295WAT     H188127   7.070   0.877   0.370
29295WAT     H288128   7.133   0.809   0.235
29296WAT      O88129   4.942   1.334   5.158
29296WAT     H188130   4.974   1.429   5.158
29296WAT     H288131   4.847   1.330   5.190
29297WAT      O88132   6.432   8.489   1.351
29297WAT     H188133   6.361   8.544   1.394
29297WAT     H288134   6.407   8.471   1.256
29298WAT      O88135   3.772   1.853   4.187
29298WAT     H188136   3.805   1.763   4.159
29298WAT     H288137   3.806   1.922   4.122
29299WAT      O88138   7.967   1.208   7.218
29299WAT     H188139   7.955   1.306   7.229
29299WAT     H288140   7.880   1.166   7.189
29300WAT      O88141   9.150   4.838   3.464
29300WAT     H188142   9.052   4.855   3.476
29300WAT     H288143   9.163   4.765   3.397
29301WAT      O88144   6.958   4.761   0.323
29301WAT     H188145   7.044   4.813   0.322
29301WAT     H288146   6.916   4.768   0.413
29302WAT      O88147   9.039   5.176   4.722
29302WAT     H188148   9.120   5.223   4.686
29302WAT     H288149   8.993   5.234   4.789
29303WAT      O88150   3.696   0.108   1.067
29303WAT     H188151   3.642   0.170   1.124
29303WAT     H288152   3.637   0.038   1.028
29304WAT      O88153   0.198   8.613   1.126
29304WAT     H188154   0.292   8.621   1.159
29304WAT     H288155   0.180   8.683   1.057
29305WAT      O88156   3.080   9.025   4.172
29305WAT     H188157   3.082   9.068   4.081
29305WAT     H288158   3.021   9.079   4.233
29306WAT      O88159   1.319   8.153   2.468
29306WAT     H188160   1.307   8.251   2.452
29306WAT     H288161   1.320   8.136   2.567
29307WAT      O88162   2.123   1.783   5.724
29307WAT     H188163   2.084   1.837   5.649
29307WAT     H288164   2.218   1.811   5.740
29308WAT      O88165   5.453   7.293   0.650
29308WAT     H188166   5.385   7.274   0.579
29308WAT     H288167   5.407   7.309   0.737
29309WAT      O88168   3.038   9.723   3.856
29309WAT     H188169   2.955   9.743   3.908
29309WAT     H288170   3.014   9.674   3.773
29310WAT      O88171   2.637   5.753   6.136
29310WAT     H188172   2.595   5.842   6.116
29310WAT     H288173   2.597   5.683   6.077
29311WAT      O88174   9.309   7.509   2.208
29311WAT     H188175   9.244   7.524   2.282
29311WAT     H288176   9.401   7.495   2.245
29312WAT      O88177   3.841   3.482   7.624
29312WAT     H188178   3.775   3.498   7.698
29312WAT     H288179   3.865   3.386   7.622
29313WAT      O88180   2.660   5.346   7.771
29313WAT     H188181   2.560   5.345   7.775
29313WAT     H288182   2.696   5.401   7.847
29314WAT      O88183   7.929   1.104   2.904
29314WAT     H188184   7.935   1.014   2.860
29314WAT     H288185   7.836   1.139   2.896
29315WAT      O88186   9.319   4.627   8.153
29315WAT     H188187   9.291   4.532   8.142
29315WAT     H288188   9.288   4.661   8.241
29316WAT      O88189   9.405   5.731   9.517
29316WAT     H188190   9.354   5.746   9.602
29316WAT     H288191   9.342   5.721   9.441
29317WAT      O88192   2.529   3.237   5.782
29317WAT     H188193   2.452   3.183   5.747
29317WAT     H288194   2.496   3.297   5.855
29318WAT      O88195   6.585   1.618   6.654
29318WAT     H188196   6.557   1.554   6.583
29318WAT     H288197   6.605   1.707   6.614
29319WAT      O88198   7.882   2.833   8.909
29319WAT     H188199   7.960   2.794   8.859
29319WAT     H288200   7.804   2.771   8.902
29320WAT      O88201   3.662   2.339   1.666
29320WAT     H188202   3.589   2.378   1.722
29320WAT     H288203   3.700   2.411   1.607
29321WAT      O88204   5.038   6.940   2.396
29321WAT     H188205   4.941   6.939   2.420
29321WAT     H288206   5.068   6.846   2.378
29322WAT      O88207   4.309   1.842   0.742
29322WAT     H188208   4.387   1.784   0.769
29322WAT     H288209   4.297   1.915   0.810
29323WAT      O88210   4.253   5.383   0.673
29323WAT     H188211   4.272   5.407   0.578
29323WAT     H288212   4.293   5.452   0.733
29324WAT      O88213   7.210   2.507   0.490
29324WAT     H188214   7.246   2.530   0.580
29324WAT     H288215   7.168   2.588   0.448
29325WAT      O88216   6.125   8.530   6.979
29325WAT     H188217   6.180   8.515   6.896
29325WAT     H288218   6.112   8.442   7.025
29326WAT      O88219   6.869   4.903   9.003
29326WAT     H188220   6.851   4.823   8.945
29326WAT     H288221   6.963   4.934   8.989
29327WAT      O88222   6.112   0.473   0.248
29327WAT     H188223   6.195   0.461   0.302
29327WAT     H288224   6.129   0.539   0.175
29328WAT      O88225   7.625   7.661   5.920
29328WAT     H188226   7.666   7.666   6.011
29328WAT     H288227   7.697   7.649   5.852
29329WAT      O88228   4.262   9.455   1.540
29329WAT     H188229   4.299   9.534   1.588
29329WAT     H288230   4.327   9.379   1.545
29330WAT      O88231   3.208   9.149   2.497
29330WAT     H188232   3.141   9.219   2.520
29330WAT     H288233   3.231   9.156   2.400
29331WAT      O88234   4.246   1.190   0.051
29331WAT     H188235   4.204   1.270   0.007
29331WAT     H288236   4.211   1.181   0.144
29332WAT      O88237   9.669   8.431   2.874
29332WAT     H188238   9.620   8.348   2.900
29332WAT     H288239   9.623   8.511   2.914
29333WAT      O88240   3.764   3.458   0.443
29333WAT     H188241   3.719   3.511   0.371
29333WAT     H288242   3.793   3.369   0.407
29334WAT      O88243   5.964   6.661   8.384
29334WAT     H188244   5.977   6.720   8.304
29334WAT     H288245   5.867   6.640   8.395
29335WAT      O88246   6.597   8.459   0.619
29335WAT     H188247   6.586   8.549   0.662
29335WAT     H288248   6.506   8.422   0.598
29336WAT      O88249   1.469   9.788   4.968
29336WAT     H188250   1.455   9.879   4.928
29336WAT     H288251   1.448   9.718   4.900
29337WAT      O88252   0.291   9.781   8.146
29337WAT     H188253   0.326   9.874   8.139
29337WAT     H288254   0.307   9.746   8.239
29338WAT      O88255   9.291   1.986   5.435
29338WAT     H188256   9.373   1.995   5.491
29338WAT     H288257   9.288   1.894   5.394
29339WAT      O88258   6.407   0.506   2.911
29339WAT     H188259   6.462   0.440   2.961
29339WAT     H288260   6.344   0.552   2.974
29340WAT      O88261   0.568   3.623   5.093
29340WAT     H188262   0.499   3.635   5.164
29340WAT     H288263   0.535   3.662   5.007
29341WAT      O88264   9.199   9.609   8.475
29341WAT     H188265   9.285   9.626   8.523
29341WAT     H288266   9.171   9.514   8.488
29342WAT      O88267   3.054   1.622   9.663
29342WAT     H188268   3.153   1.612   9.671
29342WAT     H288269   3.032   1.662   9.574
29343WAT      O88270   8.693   8.827   7.850
29343WAT     H188271   8.635   8.887   7.794
29343WAT     H288272   8.704   8.739   7.804
29344WAT      O88273   8.477   3.894   5.003
29344WAT     H188274   8.500   3.923   5.096
29344WAT     H288275   8.401   3.949   4.969
29345WAT      O88276   4.092   4.100   3.273
29345WAT     H188277   4.015   4.140   3.223
29345WAT     H288278   4.059   4.057   3.357
29346WAT      O88279   6.647   8.335   3.166
29346WAT     H188280   6.578   8.263   3.172
29346WAT     H288281   6.601   8.424   3.154
29347WAT      O88282   1.289   2.283   1.795
29347WAT     H188283   1.354   2.359   1.788
29347WAT     H288284   1.333   2.206   1.841
29348WAT      O88285   9.215   3.570   0.813
29348WAT     H188286   9.294   3.629   0.827
29348WAT     H288287   9.242   3.474   0.822
29349WAT      O88288   9.086   0.108   8.340
29349WAT     H188289   9.175   0.070   8.312
29349WAT     H288290   9.013   0.044   8.314
29350WAT      O88291   4.004   0.998   5.457
29350WAT     H188292   3.968   0.920   5.508
29350WAT     H288293   3.953   1.080   5.482
29351WAT      O88294   1.956   1.460   6.463
29351WAT     H188295   2.050   1.429   6.449
29351WAT     H288296   1.957   1.551   6.504
29352WAT      O88297   1.539   6.245   0.228
29352WAT     H188298   1.520   6.330   0.277
29352WAT     H288299   1.465   6.180   0.243
29353WAT      O88300   8.544   6.645   5.336
29353WAT     H188301   8.557   6.730   5.284
29353WAT     H288302   8.617   6.581   5.312
29354WAT      O88303   0.016   8.004   0.939
29354WAT     H188304  -0.043   8.016   1.018
29354WAT     H288305  -0.017   8.062   0.864
29355WAT      O88306   5.035   0.134   1.618
29355WAT     H188307   5.049   0.210   1.555
29355WAT     H288308   4.951   0.085   1.594
29356WAT      O88309   6.129   1.394   4.509
29356WAT     H188310   6.056   1.375   4.443
29356WAT     H288311   6.208   1.336   4.488
29357WAT      O88312   5.075   7.332   3.071
29357WAT     H188313   5.114   7.388   2.998
29357WAT     H288314   5.056   7.240   3.036
29358WAT      O88315   4.365   9.602   7.560
29358WAT     H188316   4.355   9.517   7.508
29358WAT     H288317   4.338   9.587   7.655
29359WAT      O88318   2.831   3.205   9.147
29359WAT     H188319   2.804   3.282   9.205
29359WAT     H288320   2.819   3.120   9.197
29360WAT      O88321   5.064   5.857   3.794
29360WAT     H188322   5.162   5.835   3.792
29360WAT     H288323   5.052   5.954   3.772
29361WAT      O88324   0.440   9.663   7.199
29361WAT     H188325   0.457   9.761   7.185
29361WAT     H288326   0.437   9.617   7.111
29362WAT      O88327   8.834   5.602   3.688
29362WAT     H188328   8.916   5.606   3.631
29362WAT     H288329   8.820   5.690   3.734
29363WAT      O88330   7.464   7.761   8.022
29363WAT     H188331   7.519   7.766   8.105
29363WAT     H288332   7.429   7.668   8.010
29364WAT      O88333   8.274   3.265   3.701
29364WAT     H188334   8.200   3.221   3.753
29364WAT     H288335   8.270   3.235   3.606
29365WAT      O88336   9.881   0.648   3.440
29365WAT     H188337   9.959   0.649   3.502
29365WAT     H288338   9.849   0.742   3.425
29366WAT      O88339   4.882   6.327   7.480
29366WAT     H188340   4.850   6.330   7.386
29366WAT     H288341   4.837   6.252   7.529
29367WAT      O88342   3.597   9.420   7.207
29367WAT     H188343   3.675   9.433   7.269
29367WAT     H288344   3.600   9.489   7.135
29368WAT      O88345   4.910   4.365   0.128
29368WAT     H188346   4.915   4.278   0.175
29368WAT     H288347   5.002   4.393   0.100
29369WAT      O88348   3.628   2.587   8.738
29369WAT     H188349   3.672   2.671   8.769
29369WAT     H288350   3.671   2.555   8.654
29370WAT      O88351   8.116   6.150   5.131
29370WAT     H188352   8.201   6.137   5.080
29370WAT     H288353   8.138   6.188   5.221
29371WAT      O88354   8.163   4.593   7.977
29371WAT     H188355   8.072   4.613   8.015
29371WAT     H288356   8.231   4.595   8.050
29372WAT      O88357   9.063   1.664   6.066
29372WAT     H188358   9.080   1.573   6.030
29372WAT     H288359   8.981   1.702   6.023
29373WAT      O88360   4.849   7.092   6.186
29373WAT     H188361   4.914   7.094   6.263
29373WAT     H288362   4.771   7.034   6.211
29374WAT      O88363   6.625   3.173   7.194
29374WAT     H188364   6.571   3.096   7.229
29374WAT     H288365   6.711   3.138   7.157
29375WAT      O88366   3.276   9.682   8.613
29375WAT     H188367   3.369   9.649   8.596
29375WAT     H288368   3.214   9.644   8.545
29376WAT      O88369   9.612   4.817   4.755
29376WAT     H188370   9.562   4.903   4.765
29376WAT     H288371   9.547   4.742   4.743
29377WAT      O88372   1.110   6.003   2.011
29377WAT     H188373   1.071   6.064   1.943
29377WAT     H288374   1.044   5.932   2.034
29378WAT      O88375   4.050   7.265   8.139
29378WAT     H188376   4.021   7.214   8.058
29378WAT     H288377   4.103   7.205   8.199
29379WAT      O88378   6.935   5.915   0.474
29379WAT     H188379   6.944   5.879   0.568
29379WAT     H288380   6.913   5.840   0.412
29380WAT      O88381   1.466   0.167   3.215
29380WAT     H188382   1.481   0.209   3.305
29380WAT     H288383   1.554   0.157   3.168
29381WAT      O88384   5.119   0.037   7.585
29381WAT     H188385   5.023   0.012   7.576
29381WAT     H288386   5.176  -0.043   7.569
29382WAT      O88387   6.507   2.951   7.290
29382WAT     H188388   6.599   2.916   7.304
29382WAT     H288389   6.441   2.885   7.327
29383WAT      O88390   8.454   8.021   7.050
29383WAT     H188391   8.480   8.098   7.109
29383WAT     H288392   8.392   8.054   6.978
29384WAT      O88393   8.405   3.874   2.152
29384WAT     H188394   8.482   3.937   2.144
29384WAT     H288395   8.421   3.794   2.094
29385WAT      O88396   9.869   2.466   9.777
29385WAT     H188397   9.877   2.462   9.678
29385WAT     H288398   9.838   2.377   9.812
29386WAT      O88399   2.390   0.552   5.995
29386WAT     H188400   2.303   0.579   5.954
29386WAT     H288401   2.461   0.619   5.971
29387WAT      O88402   3.878   0.755   7.537
29387WAT     H188403   3.848   0.850   7.540
29387WAT     H288404   3.960   0.748   7.480
29388WAT      O88405   0.942   3.241   0.657
29388WAT     H188406   0.843   3.248   0.666
29388WAT     H288407   0.985   3.259   0.745
29389WAT      O88408   4.857   3.024   4.734
29389WAT     H188409   4.787   3.049   4.667
29389WAT     H288410   4.947   3.031   4.691
29390WAT      O88411   5.823   6.687   3.095
29390WAT     H188412   5.787   6.598   3.123
29390WAT     H288413   5.751   6.757   3.105
29391WAT      O88414   5.222   3.565   4.471
29391WAT     H188415   5.248   3.661   4.460
29391WAT     H288416   5.255   3.513   4.392
29392WAT      O88417   8.091   9.698   1.952
29392WAT     H188418   8.131   9.767   2.012
29392WAT     H288419   8.087   9.733   1.858
29393WAT      O88420   9.659   3.611   7.066
29393WAT     H188421   9.607   3.695   7.050
29393WAT     H288422   9.754   3.635   7.087
29394WAT      O88423   4.169   4.084   2.679
29394WAT     H188424   4.264   4.105   2.658
29394WAT     H288425   4.111   4.109   2.601
29395WAT      O88426   7.287   1.592   8.090
29395WAT     H188427   7.382   1.617   8.069
29395WAT     H288428   7.228   1.672   8.080
29396WAT      O88429   6.880   5.787   4.283
29396WAT     H188430   6.979   5.771   4.285
29396WAT     H288431   6.836   5.718   4.226
29397WAT      O88432   8.060   4.836   7.246
29397WAT     H188433   8.118   4.762   7.210
29397WAT     H288434   8.078   4.920   7.194
29398WAT      O88435   4.027   3.858   2.739
29398WAT     H188436   4.031   3.830   2.643
29398WAT     H288437   4.088   3.936   2.753
29399WAT      O88438   6.527   4.434   1.767
29399WAT     H188439   6.523   4.474   1.676
29399WAT     H288440   6.485   4.496   1.833
29400WAT      O88441   6.248   7.894   8.620
29400WAT     H188442   6.187   7.840   8.678
29400WAT     H288443   6.232   7.870   8.524
29401WAT      O88444   6.601   9.058   4.233
29401WAT     H188445   6.636   8.992   4.166
29401WAT     H288446   6.523   9.107   4.194
29402WAT      O88447   1.161   2.901   1.185
29402WAT     H188448   1.222   2.890   1.264
29402WAT     H288449   1.081   2.956   1.212
29403WAT      O88450   3.150   8.351   4.290
29403WAT     H188451   3.085   8.394   4.353
29403WAT     H288452   3.242   8.384   4.309
29404WAT      O88453   1.966   6.705   3.248
29404WAT     H188454   1.896   6.655   3.299
29404WAT     H288455   2.044   6.644   3.231
29405WAT      O88456   7.529   7.675   3.271
29405WAT     H188457   7.622   7.709   3.285
29405WAT     H288458   7.518   7.644   3.177
29406WAT      O88459   9.425   0.595   7.827
29406WAT     H188460   9.343   0.537   7.831
29406WAT     H288461   9.465   0.602   7.918
29407WAT      O88462   5.960   1.641   1.452
29407WAT     H188463   6.000   1.623   1.362
29407WAT     H288464   5.901   1.722   1.447
29408WAT      O88465   6.004   7.344   5.327
29408WAT     H188466   5.991   7.247   5.303
29408WAT     H288467   5.951   7.365   5.409
29409WAT      O88468   6.261   5.798   4.360
29409WAT     H188469   6.335   5.770   4.298
29409WAT     H288470   6.174   5.764   4.325
29410WAT      O88471   0.963   5.753   2.330
29410WAT     H188472   0.897   5.827   2.317
29410WAT     H288473   0.948   5.683   2.261
29411WAT      O88474   7.223   5.067   2.683
29411WAT     H188475   7.290   5.044   2.754
29411WAT     H288476   7.136   5.089   2.726
29412WAT      O88477   5.819   5.658   9.073
29412WAT     H188478   5.877   5.721   9.022
29412WAT     H288479   5.875   5.606   9.139
29413WAT      O88480   7.672   4.144   5.272
29413WAT     H188481   7.657   4.141   5.371
29413WAT     H288482   7.716   4.230   5.248
29414WAT      O88483   1.765   8.903   4.495
29414WAT     H188484   1.678   8.907   4.446
29414WAT     H288485   1.754   8.848   4.578
29415WAT      O88486   3.317   0.673   2.735
29415WAT     H188487   3.370   0.753   2.707
29415WAT     H288488   3.236   0.665   2.678
29416WAT      O88489   3.569   8.080   9.576
29416WAT     H188490   3.614   8.073   9.665
29416WAT     H288491   3.470   8.081   9.588
29417WAT      O88492   9.044   3.600   4.110
29417WAT     H188493   9.079   3.522   4.058
29417WAT     H288494   9.068   3.685   4.064
29418WAT      O88495   4.175   2.406   6.475
29418WAT     H188496   4.271   2.381   6.482
29418WAT     H288497   4.120   2.323   6.466
29419WAT      O88498   5.491   8.769   3.865
29419WAT     H188499   5.507   8.863   3.835
29419WAT     H288500   5.503   8.763   3.964
29420WAT      O88501   0.130   1.215   7.291
29420WAT     H188502   0.076   1.256   7.217
29420WAT     H288503   0.082   1.227   7.378
29421WAT      O88504   7.544   7.802   9.742
29421WAT     H188505   7.567   7.840   9.652
29421WAT     H288506   7.533   7.702   9.734
29422WAT      O88507   6.383   4.424   8.769
29422WAT     H188508   6.393   4.524   8.764
29422WAT     H288509   6.369   4.397   8.864
29423WAT      O88510   1.327   2.796   3.601
29423WAT     H188511   1.318   2.848   3.686
29423WAT     H288512   1.288   2.705   3.613
29424WAT      O88513   4.068   1.468   0.060
29424WAT     H188514   4.056   1.472  -0.039
29424WAT     H288515   3.979   1.476   0.105
29425WAT      O88516   9.316   8.824   7.385
29425WAT     H188517   9.222   8.817   7.352
29425WAT     H288518   9.368   8.886   7.326
29426WAT      O88519   2.494   2.675   0.172
29426WAT     H188520   2.471   2.772   0.175
29426WAT     H288521   2.460   2.630   0.255
29427WAT      O88522   6.109   6.855   4.681
29427WAT     H188523   6.106   6.845   4.780
29427WAT     H288524   6.155   6.777   4.640
29428WAT      O88525   3.076   8.631   8.831
29428WAT     H188526   3.002   8.697   8.842
29428WAT     H288527   3.038   8.542   8.808
29429WAT      O88528   4.541   0.673   1.627
29429WAT     H188529   4.516   0.579   1.653
29429WAT     H288530   4.464   0.715   1.578
29430WAT      O88531   0.564   4.317   0.697
29430WAT     H188532   0.602   4.370   0.621
29430WAT     H288533   0.464   4.319   0.692
29431WAT      O88534   5.139   6.323   7.976
29431WAT     H188535   5.210   6.312   7.906
29431WAT     H288536   5.177   6.302   8.066
29432WAT      O88537   7.836   8.019   0.479
29432WAT     H188538   7.821   8.113   0.447
29432WAT     H288539   7.846   7.959   0.400
29433WAT      O88540   0.519   0.573   5.081
29433WAT     H188541   0.453   0.503   5.055
29433WAT     H288542   0.517   0.648   5.015
29434WAT      O88543   3.945   7.692   3.855
29434WAT     H188544   3.967   7.710   3.759
29434WAT     H288545   3.949   7.594   3.873
29435WAT      O88546   0.949   1.734   7.426
29435WAT     H188547   1.000   1.813   7.459
29435WAT     H288548   0.908   1.685   7.503
29436WAT      O88549   0.397   0.420   7.782
29436WAT     H188550   0.348   0.348   7.830
29436WAT     H288551   0.415   0.391   7.688
29437WAT      O88552   3.313   0.806   7.025
29437WAT     H188553   3.302   0.803   6.926
29437WAT     H288554   3.391   0.750   7.052
29438WAT      O88555   5.371   9.161   6.204
29438WAT     H188556   5.328   9.115   6.283
29438WAT     H288557   5.303   9.221   6.161
29439WAT      O88558   4.487   2.748   1.901
29439WAT     H188559   4.438   2.779   1.982
29439WAT     H288560   4.433   2.768   1.819
29440WAT      O88561   3.745   3.920   1.546
29440WAT     H188562   3.666   3.870   1.582
29440WAT     H288563   3.778   3.875   1.463
29441WAT      O88564   5.330   5.426   1.466
29441WAT     H188565   5.277   5.458   1.544
29441WAT     H288566   5.423   5.463   1.471
29442WAT      O88567   1.184   4.921   8.205
29442WAT     H188568   1.186   4.822   8.189
29442WAT     H288569   1.207   4.969   8.120
29443WAT      O88570   7.984   7.515   1.276
29443WAT     H188571   8.078   7.486   1.257
29443WAT     H288572   7.982   7.569   1.360
29444WAT      O88573   9.367   9.315   7.949
29444WAT     H188574   9.311   9.339   8.028
29444WAT     H288575   9.447   9.375   7.944
29445WAT      O88576   3.432   2.035   6.518
29445WAT     H188577   3.428   2.128   6.482
29445WAT     H288578   3.350   1.985   6.490
29446WAT      O88579   9.061   5.059   6.818
29446WAT     H188580   9.079   5.099   6.908
29446WAT     H288581   8.977   5.006   6.821
29447WAT      O88582   3.617   8.914   3.300
29447WAT     H188583   3.550   8.908   3.226
29447WAT     H288584   3.688   8.846   3.285
29448WAT      O88585   0.403   6.413   8.632
29448WAT     H188586   0.366   6.504   8.611
29448WAT     H288587   0.489   6.400   8.584
29449WAT      O88588   3.573   6.197   3.177
29449WAT     H188589   3.491   6.221   3.229
29449WAT     H288590   3.633   6.277   3.169
29450WAT      O88591   7.466   3.257   6.420
29450WAT     H188592   7.516   3.171   6.408
29450WAT     H288593   7.369   3.239   6.431
29451WAT      O88594   2.126   0.496   4.154
29451WAT     H188595   2.121   0.470   4.251
29451WAT     H288596   2.165   0.420   4.101
29452WAT      O88597   9.513   6.418   0.836
29452WAT     H188598   9.537   6.489   0.903
29452WAT     H288599   9.582   6.417   0.763
29453WAT      O88600   2.839   3.609   6.432
29453WAT     H188601   2.750   3.584   6.395
29453WAT     H288602   2.912   3.575   6.372
29454WAT      O88603   8.629   5.635   7.152
29454WAT     H188604   8.578   5.597   7.230
29454WAT     H288605   8.572   5.631   7.070
29455WAT      O88606   0.336   6.941   2.125
29455WAT     H188607   0.318   6.971   2.032
29455WAT     H288608   0.377   6.849   2.123
29456WAT      O88609   8.627   5.960   2.245
29456WAT     H188610   8.709   5.989   2.195
29456WAT     H288611   8.585   5.883   2.197
29457WAT      O88612   4.687   7.414   1.453
29457WAT     H188613   4.675   7.486   1.385
29457WAT     H288614   4.776   7.424   1.497
29458WAT      O88615   3.078   3.596   8.610
29458WAT     H188616   3.122   3.506   8.603
29458WAT     H288617   3.027   3.601   8.696
29459WAT      O88618   7.081   6.620   6.504
29459WAT     H188619   6.999   6.564   6.518
29459WAT     H288620   7.091   6.640   6.407
29460WAT      O88621   4.855   1.680   0.364
29460WAT     H188622   4.872   1.595   0.414
29460WAT     H288623   4.914   1.683   0.283
29461WAT      O88624   8.614   8.799   0.777
29461WAT     H188625   8.711   8.818   0.790
29461WAT     H288626   8.574   8.767   0.862
29462WAT      O88627   9.196   7.356   2.674
29462WAT     H188628   9.160   7.363   2.767
29462WAT     H288629   9.284   7.309   2.675
29463WAT      O88630   9.239   1.404   3.582
29463WAT     H188631   9.274   1.431   3.493
29463WAT     H288632   9.151   1.358   3.572
29464WAT      O88633   4.713   0.616   0.670
29464WAT     H188634   4.646   0.643   0.739
29464WAT     H288635   4.771   0.694   0.647
29465WAT      O88636   6.772   1.256   8.106
29465WAT     H188637   6.863   1.230   8.138
29465WAT     H288638   6.753   1.209   8.020
29466WAT      O88639   4.855   9.504   5.780
29466WAT     H188640   4.843   9.517   5.878
29466WAT     H288641   4.900   9.417   5.763
29467WAT      O88642   8.042   8.556   2.866
29467WAT     H188643   7.972   8.628   2.860
29467WAT     H288644   8.112   8.572   2.797
29468WAT      O88645   8.069   8.841   2.527
29468WAT     H188646   7.990   8.783   2.505
29468WAT     H288647   8.085   8.904   2.452
29469WAT      O88648   8.632   5.036   3.178
29469WAT     H188649   8.615   4.937   3.180
29469WAT     H288650   8.544   5.085   3.180
29470WAT      O88651   7.952   1.704   6.542
29470WAT     H188652   7.941   1.715   6.641
29470WAT     H288653   7.885   1.638   6.508
29471WAT      O88654   3.557   4.658   0.478
29471WAT     H188655   3.588   4.598   0.404
29471WAT     H288656   3.595   4.750   0.464
29472WAT      O88657   7.386   5.093   1.888
29472WAT     H188658   7.395   5.174   1.830
29472WAT     H288659   7.325   5.027   1.844
29473WAT      O88660   6.514   0.601   8.436
29473WAT     H188661   6.563   0.513   8.437
29473WAT     H288662   6.564   0.667   8.380
29474WAT      O88663   8.365   8.951   1.489
29474WAT     H188664   8.385   9.017   1.417
29474WAT     H288665   8.397   8.860   1.461
29475WAT      O88666   8.060   4.667   8.297
29475WAT     H188667   7.990   4.670   8.225
29475WAT     H288668   8.017   4.677   8.386
29476WAT      O88669   9.235   0.691   7.444
29476WAT     H188670   9.302   0.714   7.514
29476WAT     H288671   9.192   0.603   7.467
29477WAT      O88672   5.434   9.539   2.714
29477WAT     H188673   5.465   9.599   2.640
29477WAT     H288674   5.397   9.454   2.675
29478WAT      O88675   0.140   6.315   4.565
29478WAT     H188676   0.090   6.389   4.521
29478WAT     H288677   0.151   6.239   4.501
29479WAT      O88678   0.787   6.817   6.606
29479WAT     H188679   0.830   6.898   6.565
29479WAT     H288680   0.809   6.736   6.551
29480WAT      O88681   0.107   7.235   2.057
29480WAT     H188682   0.070   7.230   1.965
29480WAT     H288683   0.072   7.160   2.112
29481WAT      O88684   7.234   0.916   2.220
29481WAT     H188685   7.172   0.924   2.141
29481WAT     H288686   7.286   1.000   2.230
29482WAT      O88687   5.920   7.648   7.955
29482WAT     H188688   5.971   7.563   7.942
29482WAT     H288689   5.831   7.639   7.910
29483WAT      O88690   2.804   3.653   0.057
29483WAT     H188691   2.847   3.621   0.141
29483WAT     H288692   2.770   3.575   0.004
29484WAT      O88693   5.980   3.331   0.918
29484WAT     H188694   6.021   3.374   0.838
29484WAT     H288695   5.922   3.255   0.889
29485WAT      O88696   9.819   8.323   5.824
29485WAT     H188697   9.744   8.380   5.791
29485WAT     H288698   9.803   8.228   5.796
29486WAT      O88699   4.094   2.518   1.826
29486WAT     H188700   4.155   2.441   1.845
29486WAT     H288701   4.145   2.604   1.835
29487WAT      O88702   7.885   6.857   1.776
29487WAT     H188703   7.829   6.782   1.741
29487WAT     H288704   7.981   6.829   1.779
29488WAT      O88705   9.152   9.520   3.398
29488WAT     H188706   9.149   9.593   3.467
29488WAT     H288707   9.132   9.432   3.442
29489WAT      O88708   7.217   7.037   2.775
29489WAT     H188709   7.241   6.940   2.783
29489WAT     H288710   7.213   7.078   2.866
29490WAT      O88711   4.205   1.042   8.504
29490WAT     H188712   4.301   1.015   8.505
29490WAT     H288713   4.151   0.972   8.457
29491WAT      O88714   5.207   2.931   3.700
29491WAT     H188715   5.148   2.956   3.777
29491WAT     H288716   5.277   3.001   3.688
29492WAT      O88717   4.218   5.512   8.607
29492WAT     H188718   4.159   5.559   8.542
29492WAT     H288719   4.313   5.517   8.575
29493WAT      O88720   4.437   9.563   3.044
29493WAT     H188721   4.518   9.617   3.069
29493WAT     H288722   4.423   9.569   2.945
29494WAT      O88723   6.794   6.492   4.385
29494WAT     H188724   6.857   6.532   4.452
29494WAT     H288725   6.843   6.474   4.300
29495WAT      O88726   7.628   4.866   0.634
29495WAT     H188727   7.708   4.807   0.643
29495WAT     H288728   7.560   4.821   0.577
29496WAT      O88729   6.676   4.945   1.984
29496WAT     H188730   6.614   4.882   1.936
29496WAT     H288731   6.722   4.896   2.058
29497WAT      O88732   0.950   8.940   8.838
29497WAT     H188733   0.869   8.996   8.854
29497WAT     H288734   0.993   8.919   8.926
29498WAT      O88735   7.479   6.934   7.029
29498WAT     H188736   7.559   6.884   7.063
29498WAT     H288737   7.484   7.029   7.059
29499WAT      O88738   6.531   6.211   5.595
29499WAT     H188739   6.433   6.194   5.581
29499WAT     H288740   6.547   6.239   5.689
29500WAT      O88741   5.960   6.681   4.001
29500WAT     H188742   5.924   6.605   4.056
29500WAT     H288743   6.033   6.727   4.051
29501WAT      O88744   3.718   6.438   3.067
29501WAT     H188745   3.653   6.403   2.999
29501WAT     H288746   3.805   6.457   3.022
29502WAT      O88747   5.305   9.179   5.818
29502WAT     H188748   5.241   9.215   5.750
29502WAT     H288749   5.383   9.138   5.771
29503WAT      O88750   0.503   9.589   0.564
29503WAT     H188751   0.595   9.591   0.602
29503WAT     H288752   0.436   9.590   0.638
29504WAT      O88753   2.261   4.610   6.572
29504WAT     H188754   2.296   4.613   6.666
29504WAT     H288755   2.163   4.629   6.572
29505WAT      O88756   6.528   8.495   6.254
29505WAT     H188757   6.454   8.536   6.306
29505WAT     H288758   6.490   8.449   6.173
29506WAT      O88759   2.923   8.926   0.917
29506WAT     H188760   2.954   9.018   0.894
29506WAT     H288761   2.946   8.906   1.012
29507WAT      O88762   0.132   5.592   8.361
29507WAT     H188763   0.060   5.555   8.419
29507WAT     H288764   0.099   5.600   8.267
29508WAT      O88765   8.741   1.594   2.967
29508WAT     H188766   8.824   1.628   3.009
29508WAT     H288767   8.738   1.494   2.974
29509WAT      O88768   1.096   0.323   8.040
29509WAT     H188769   1.012   0.339   7.988
29509WAT     H288770   1.106   0.224   8.056
29510WAT      O88771   2.989   2.727   8.307
29510WAT     H188772   2.951   2.708   8.217
29510WAT     H288773   3.008   2.825   8.314
29511WAT      O88774   2.069   0.532   5.881
29511WAT     H188775   2.057   0.622   5.923
29511WAT     H288776   2.139   0.537   5.810
29512WAT      O88777   6.057   9.681   6.384
29512WAT     H188778   5.971   9.646   6.349
29512WAT     H288779   6.107   9.608   6.431
29513WAT      O88780   9.852   2.227   9.298
29513WAT     H188781   9.899   2.159   9.354
29513WAT     H288782   9.906   2.244   9.215
29514WAT      O88783   1.226   8.371   8.785
29514WAT     H188784   1.213   8.278   8.749
29514WAT     H288785   1.270   8.366   8.875
29515WAT      O88786   1.903   3.963   5.471
29515WAT     H188787   1.845   3.947   5.551
29515WAT     H288788   1.987   4.010   5.499
29516WAT      O88789   7.904   2.725   3.122
29516WAT     H188790   7.990   2.775   3.136
29516WAT     H288791   7.920   2.627   3.136
29517WAT      O88792   8.752   2.773   9.566
29517WAT     H188793   8.730   2.856   9.618
29517WAT     H288794   8.804   2.798   9.484
29518WAT      O88795   1.122   5.354   9.469
29518WAT     H188796   1.083   5.330   9.381
29518WAT     H288797   1.166   5.443   9.463
29519WAT      O88798   8.744   8.298   2.614
29519WAT     H188799   8.823   8.240   2.597
29519WAT     H288800   8.676   8.282   2.543
29520WAT      O88801   1.142   9.277   5.306
29520WAT     H188802   1.187   9.190   5.323
29520WAT     H288803   1.180   9.348   5.365
29521WAT      O88804   1.906   0.259   0.507
29521WAT     H188805   1.975   0.237   0.438
29521WAT     H288806   1.912   0.194   0.583
29522WAT      O88807   7.335   6.252   3.639
29522WAT     H188808   7.253   6.259   3.584
29522WAT     H288809   7.415   6.276   3.584
29523WAT      O88810   3.314   5.262   0.170
29523WAT     H188811   3.291   5.171   0.135
29523WAT     H288812   3.265   5.331   0.118
29524WAT      O88813   4.929   3.289   0.888
29524WAT     H188814   4.962   3.195   0.885
29524WAT     H288815   4.907   3.320   0.796
29525WAT      O88816   6.893   5.713   1.505
29525WAT     H188817   6.915   5.775   1.430
29525WAT     H288818   6.931   5.749   1.590
29526WAT      O88819   8.284   4.308   1.349
29526WAT     H188820   8.251   4.395   1.312
29526WAT     H288821   8.381   4.315   1.371
29527WAT      O88822   3.048   2.441   8.984
29527WAT     H188823   2.998   2.370   8.935
29527WAT     H288824   3.035   2.429   9.082
29528WAT      O88825   6.708   9.462   1.788
29528WAT     H188826   6.784   9.437   1.849
29528WAT     H288827   6.697   9.391   1.718
29529WAT      O88828   8.625   7.654   8.688
29529WAT     H188829   8.701   7.589   8.687
29529WAT     H288830   8.603   7.681   8.595
29530WAT      O88831   7.270   9.491   8.842
29530WAT     H188832   7.243   9.461   8.750
29530WAT     H288833   7.356   9.541   8.836
29531WAT      O88834   2.660   5.789   4.243
29531WAT     H188835   2.617   5.796   4.153
29531WAT     H288836   2.723   5.865   4.257
29532WAT      O88837   4.663   4.618   3.395
29532WAT     H188838   4.639   4.608   3.298
29532WAT     H288839   4.586   4.657   3.445
29533WAT      O88840   0.991   4.338   3.033
29533WAT     H188841   0.994   4.244   3.068
29533WAT     H288842   1.082   4.379   3.040
29534WAT      O88843   1.693   8.837   0.123
29534WAT     H188844   1.684   8.872   0.216
29534WAT     H288845   1.740   8.905   0.067
29535WAT      O88846   3.654   2.914   8.657
29535WAT     H188847   3.599   2.948   8.733
29535WAT     H288848   3.751   2.931   8.677
29536WAT      O88849   4.743   9.338   6.831
29536WAT     H188850   4.767   9.354   6.736
29536WAT     H288851   4.811   9.278   6.874
29537WAT      O88852   0.883   1.790   8.918
29537WAT     H188853   0.937   1.792   8.834
29537WAT     H288854   0.892   1.877   8.965
29538WAT      O88855   4.878   4.737   1.680
29538WAT     H188856   4.794   4.712   1.728
29538WAT     H288857   4.932   4.655   1.663
29539WAT      O88858   9.344   9.048   7.868
29539WAT     H188859   9.399   9.009   7.941
29539WAT     H288860   9.342   9.148   7.877
29540WAT      O88861   9.502   2.503   4.971
29540WAT     H188862   9.559   2.449   4.909
29540WAT     H288863   9.417   2.527   4.924
29541WAT      O88864   1.161   6.102   6.621
29541WAT     H188865   1.218   6.022   6.603
29541WAT     H288866   1.126   6.138   6.535
29542WAT      O88867   4.366   4.201   6.720
29542WAT     H188868   4.293   4.201   6.788
29542WAT     H288869   4.450   4.167   6.762
29543WAT      O88870   8.420   4.996   2.238
29543WAT     H188871   8.461   4.954   2.318
29543WAT     H288872   8.447   4.945   2.156
29544WAT      O88873   5.244   1.433   7.594
29544WAT     H188874   5.289   1.346   7.611
29544WAT     H288875   5.277   1.472   7.508
29545WAT      O88876   9.552   6.122   7.482
29545WAT     H188877   9.489   6.100   7.408
29545WAT     H288878   9.535   6.215   7.514
29546WAT      O88879   8.278   8.778   1.000
29546WAT     H188880   8.184   8.761   1.031
29546WAT     H288881   8.341   8.726   1.057
29547WAT      O88882   4.540   2.248   9.627
29547WAT     H188883   4.594   2.174   9.668
29547WAT     H288884   4.496   2.213   9.544
29548WAT      O88885   2.632   1.338   4.000
29548WAT     H188886   2.704   1.288   3.952
29548WAT     H288887   2.559   1.276   4.026
29549WAT      O88888   1.761   7.039   0.948
29549WAT     H188889   1.675   7.090   0.943
29549WAT     H288890   1.829   7.083   0.889
29550WAT      O88891   3.284   1.988   7.630
29550WAT     H188892   3.211   2.001   7.697
29550WAT     H288893   3.253   2.019   7.540
29551WAT      O88894   8.474   5.677   6.951
29551WAT     H188895   8.453   5.756   6.894
29551WAT     H288896   8.390   5.643   6.994
29552WAT      O88897   1.227   6.132   2.922
29552WAT     H188898   1.194   6.226   2.921
29552WAT     H288899   1.237   6.099   2.828
29553WAT      O88900   5.164   7.114   5.674
29553WAT     H188901   5.068   7.094   5.650
29553WAT     H288902   5.220   7.107   5.591
29554WAT      O88903   7.899   5.171   6.590
29554WAT     H188904   7.834   5.239   6.555
29554WAT     H288905   7.874   5.081   6.557
29555WAT      O88906   0.054   1.083   0.138
29555WAT     H188907   0.040   1.167   0.191
29555WAT     H288908   0.081   1.107   0.045
29556WAT      O88909   5.977   8.708   5.130
29556WAT     H188910   5.982   8.804   5.101
29556WAT     H288911   5.903   8.698   5.197
29557WAT      O88912   3.579   7.298   7.650
29557WAT     H188913   3.631   7.355   7.586
29557WAT     H288914   3.513   7.353   7.700
29558WAT      O88915   0.955   4.193   0.792
29558WAT     H188916   0.867   4.214   0.835
29558WAT     H288917   1.027   4.201   0.861
29559WAT      O88918   2.946   1.330   6.875
29559WAT     H188919   2.947   1.430   6.880
29559WAT     H288920   2.934   1.302   6.780
29560WAT      O88921   7.056   9.018   1.231
29560WAT     H188922   7.047   9.117   1.217
29560WAT     H288923   7.153   8.994   1.240
29561WAT      O88924   9.208   2.439   0.224
29561WAT     H188925   9.175   2.519   0.274
29561WAT     H288926   9.165   2.437   0.133
29562WAT      O88927   9.284   6.095   8.343
29562WAT     H188928   9.286   5.995   8.341
29562WAT     H288929   9.281   6.127   8.437
29563WAT      O88930   6.998   6.008   5.369
29563WAT     H188931   6.919   6.067   5.379
29563WAT     H288932   7.024   5.971   5.458
29564WAT      O88933   4.710   5.506   1.979
29564WAT     H188934   4.803   5.539   1.959
29564WAT     H288935   4.715   5.413   2.015
29565WAT      O88936   4.399   9.686   8.025
29565WAT     H188937   4.440   9.769   8.063
29565WAT     H288938   4.316   9.710   7.975
29566WAT      O88939   0.633   4.842   7.641
29566WAT     H188940   0.699   4.768   7.625
29566WAT     H288941   0.595   4.832   7.733
29567WAT      O88942   7.862   1.648   1.633
29567WAT     H188943   7.784   1.618   1.578
29567WAT     H288944   7.937   1.583   1.624
29568WAT      O88945   0.510   2.321   7.374
29568WAT     H188946   0.479   2.230   7.346
29568WAT     H288947   0.593   2.345   7.325
29569WAT      O88948   9.352   6.998   7.207
29569WAT     H188949   9.416   6.923   7.195
29569WAT     H288950   9.391   7.066   7.269
29570WAT      O88951   1.891   0.071   1.802
29570WAT     H188952   1.872   0.005   1.875
29570WAT     H288953   1.813   0.132   1.791
29571WAT      O88954   2.246   2.096   2.403
29571WAT     H188955   2.330   2.066   2.451
29571WAT     H288956   2.191   2.015   2.381
29572WAT      O88957   6.818   2.007   4.077
29572WAT     H188958   6.910   2.041   4.096
29572WAT     H288959   6.824   1.916   4.035
29573WAT      O88960   7.629   8.332   7.961
29573WAT     H188961   7.537   8.295   7.974
29573WAT     H288962   7.622   8.425   7.925
29574WAT      O88963   1.246   5.108   0.826
29574WAT     H188964   1.343   5.095   0.846
29574WAT     H288965   1.199   5.020   0.826
29575WAT      O88966   2.825   5.459   0.927
29575WAT     H188967   2.781   5.549   0.923
29575WAT     H288968   2.813   5.413   0.839
29576WAT      O88969   9.795   2.936   6.282
29576WAT     H188970   9.895   2.931   6.274
29576WAT     H288971   9.770   3.022   6.326
29577WAT      O88972   1.895   3.944   0.870
29577WAT     H188973   1.974   3.994   0.907
29577WAT     H288974   1.816   3.959   0.930
29578WAT      O88975   4.693   7.878   2.791
29578WAT     H188976   4.734   7.798   2.747
29578WAT     H288977   4.669   7.855   2.885
29579WAT      O88978   5.293   9.119   9.397
29579WAT     H188979   5.216   9.125   9.333
29579WAT     H288980   5.284   9.036   9.452
29580WAT      O88981   9.158   1.803   4.774
29580WAT     H188982   9.075   1.833   4.727
29580WAT     H288983   9.195   1.879   4.828
29581WAT      O88984   2.681   6.036   8.672
29581WAT     H188985   2.616   6.111   8.683
29581WAT     H288986   2.632   5.951   8.654
29582WAT      O88987   6.300   2.176   7.046
29582WAT     H188988   6.291   2.172   7.145
29582WAT     H288989   6.375   2.237   7.022
29583WAT      O88990   8.551   2.662   8.350
29583WAT     H188991   8.477   2.693   8.409
29583WAT     H288992   8.514   2.631   8.263
29584WAT      O88993   2.902   9.442   4.190
29584WAT     H188994   2.871   9.457   4.096
29584WAT     H288995   2.833   9.476   4.253
29585WAT      O88996   3.729   7.658   6.403
29585WAT     H188997   3.781   7.595   6.460
29585WAT     H288998   3.710   7.615   6.314
29586WAT      O88999   0.684   0.380   8.459
29586WAT     H189000   0.694   0.357   8.362
29586WAT     H289001   0.663   0.297   8.511
29587WAT      O89002   3.593   6.334   0.326
29587WAT     H189003   3.544   6.249   0.346
29587WAT     H289004   3.526   6.408   0.314
29588WAT      O89005   0.929   8.237   9.163
29588WAT     H189006   1.022   8.205   9.179
29588WAT     H289007   0.918   8.330   9.199
29589WAT      O89008   1.497   2.390   8.697
29589WAT     H189009   1.413   2.439   8.721
29589WAT     H289010   1.498   2.372   8.599
29590WAT      O89011   5.984   1.537   8.522
29590WAT     H189012   5.971   1.546   8.423
29590WAT     H289013   6.009   1.442   8.544
29591WAT      O89014   6.058   2.814   3.781
29591WAT     H189015   6.127   2.756   3.824
29591WAT     H289016   5.989   2.756   3.736
29592WAT      O89017   9.380   4.617   6.254
29592WAT     H189018   9.299   4.568   6.287
29592WAT     H289019   9.353   4.682   6.183
29593WAT      O89020   2.780   5.955   2.659
29593WAT     H189021   2.855   6.013   2.625
29593WAT     H289022   2.818   5.873   2.702
29594WAT      O89023   4.031   1.753   7.602
29594WAT     H189024   3.992   1.795   7.684
29594WAT     H289025   4.118   1.710   7.624
29595WAT      O89026   0.450   6.814   2.578
29595WAT     H189027   0.357   6.811   2.541
29595WAT     H289028   0.511   6.761   2.520
29596WAT      O89029   3.610   9.540   6.115
29596WAT     H189030   3.581   9.570   6.024
29596WAT     H289031   3.546   9.574   6.183
29597WAT      O89032   2.193   2.316   3.979
29597WAT     H189033   2.165   2.231   3.935
29597WAT     H289034   2.196   2.390   3.911
29598WAT      O89035   3.909   9.423   6.467
29598WAT     H189036   3.952   9.348   6.518
29598WAT     H289037   3.979   9.477   6.421
29599WAT      O89038   2.479   5.981   0.362
29599WAT     H189039   2.514   5.956   0.452
29599WAT     H289040   2.546   6.038   0.315
29600WAT      O89041   1.352   4.553   7.607
29600WAT     H189042   1.292   4.489   7.653
29600WAT     H289043   1.312   4.580   7.519
29601WAT      O89044   1.168   1.166   1.507
29601WAT     H189045   1.128   1.160   1.415
29601WAT     H289046   1.239   1.237   1.507
29602WAT      O89047   0.044   2.141   6.678
29602WAT     H189048   0.045   2.105   6.585
29602WAT     H289049   0.100   2.084   6.737
29603WAT      O89050   6.731   8.809   3.845
29603WAT     H189051   6.798   8.735   3.843
29603WAT     H289052   6.760   8.882   3.782
29604WAT      O89053   2.167   8.361   4.968
29604WAT     H189054   2.184   8.305   5.049
29604WAT     H289055   2.180   8.458   4.991
29605WAT      O89056   6.217   2.838   1.335
29605WAT     H189057   6.277   2.903   1.289
29605WAT     H289058   6.177   2.881   1.416
29606WAT      O89059   2.716   1.481   0.509
29606WAT     H189060   2.742   1.396   0.555
29606WAT     H289061   2.681   1.461   0.417
29607WAT      O89062   4.561   7.720   5.439
29607WAT     H189063   4.642   7.672   5.405
29607WAT     H289064   4.549   7.699   5.536
29608WAT      O89065   9.634   1.943   8.632
29608WAT     H189066   9.564   1.872   8.627
29608WAT     H289067   9.678   1.952   8.542
29609WAT      O89068   7.309   0.152   7.914
29609WAT     H189069   7.311   0.148   7.814
29609WAT     H289070   7.249   0.226   7.943
29610WAT      O89071   9.526   8.306   9.644
29610WAT     H189072   9.615   8.262   9.654
29610WAT     H289073   9.513   8.371   9.719
29611WAT      O89074   0.425   7.805   0.892
29611WAT     H189075   0.372   7.762   0.820
29611WAT     H289076   0.379   7.889   0.921
29612WAT      O89077   6.023   6.875   7.942
29612WAT     H189078   5.973   6.958   7.917
29612WAT     H289079   5.984   6.797   7.892
29613WAT      O89080   1.808   6.833   7.814
29613WAT     H189081   1.715   6.836   7.777
29613WAT     H289082   1.844   6.925   7.820
29614WAT      O89083   7.114   8.171   8.656
29614WAT     H189084   7.121   8.204   8.750
29614WAT     H289085   7.036   8.109   8.648
29615WAT      O89086   4.402   3.483   0.233
29615WAT     H189087   4.497   3.504   0.207
29615WAT     H289088   4.357   3.432   0.160
29616WAT      O89089   2.094   3.039   0.809
29616WAT     H189090   1.996   3.046   0.794
29616WAT     H289091   2.142   3.052   0.723
29617WAT      O89092   9.214   6.886   0.903
29617WAT     H189093   9.131   6.881   0.848
29617WAT     H289094   9.292   6.857   0.848
29618WAT      O89095   2.149   9.702   5.905
29618WAT     H189096   2.237   9.686   5.861
29618WAT     H289097   2.103   9.779   5.860
29619WAT      O89098   5.409   8.114   5.555
29619WAT     H189099   5.393   8.052   5.632
29619WAT     H289100   5.341   8.098   5.484
29620WAT      O89101   5.540   7.150   4.398
29620WAT     H189102   5.639   7.149   4.410
29620WAT     H289103   5.517   7.199   4.315
29621WAT      O89104   8.789   4.679   7.676
29621WAT     H189105   8.854   4.749   7.644
29621WAT     H289106   8.714   4.671   7.610
29622WAT      O89107   4.251   1.027   7.683
29622WAT     H189108   4.248   1.013   7.584
29622WAT     H289109   4.221   0.944   7.729
29623WAT      O89110   8.846   7.609   9.624
29623WAT     H189111   8.832   7.513   9.647
29623WAT     H289112   8.909   7.650   9.690
29624WAT      O89113   8.013   7.394   5.738
29624WAT     H189114   7.976   7.302   5.742
29624WAT     H289115   7.969   7.446   5.665
29625WAT      O89116   4.496   2.977   7.264
29625WAT     H189117   4.417   3.032   7.289
29625WAT     H289118   4.472   2.880   7.267
29626WAT      O89119   6.697   7.720   2.555
29626WAT     H189120   6.718   7.747   2.461
29626WAT     H289121   6.743   7.781   2.619
29627WAT      O89122   4.224   0.323   3.231
29627WAT     H189123   4.207   0.418   3.203
29627WAT     H289124   4.310   0.318   3.281
29628WAT      O89125   3.711   2.253   9.784
29628WAT     H189126   3.702   2.328   9.720
29628WAT     H289127   3.807   2.235   9.802
29629WAT      O89128   9.040   1.444   4.833
29629WAT     H189129   8.994   1.467   4.747
29629WAT     H289130   9.119   1.504   4.846
29630WAT      O89131   2.788   9.138   2.627
29630WAT     H189132   2.733   9.216   2.655
29630WAT     H289133   2.741   9.090   2.552
29631WAT      O89134   1.140   7.159   2.334
29631WAT     H189135   1.189   7.246   2.335
29631WAT     H289136   1.074   7.159   2.259
29632WAT      O89137   0.940   1.942   5.213
29632WAT     H189138   1.003   2.000   5.265
29632WAT     H289139   0.896   1.876   5.274
29633WAT      O89140   9.682   3.861   1.076
29633WAT     H189141   9.647   3.839   1.166
29633WAT     H289142   9.698   3.776   1.025
29634WAT      O89143   4.602   2.515   7.830
29634WAT     H189144   4.573   2.607   7.858
29634WAT     H289145   4.529   2.473   7.776
29635WAT      O89146   7.175   4.556   1.652
29635WAT     H189147   7.190   4.478   1.713
29635WAT     H289148   7.263   4.587   1.615
29636WAT      O89149   0.191   5.458   2.024
29636WAT     H189150   0.107   5.512   2.025
29636WAT     H289151   0.167   5.361   2.024
29637WAT      O89152   9.817   4.853   4.937
29637WAT     H189153   9.750   4.845   4.864
29637WAT     H289154   9.774   4.896   5.017
29638WAT      O89155   2.626   2.866   8.230
29638WAT     H189156   2.547   2.927   8.218
29638WAT     H289157   2.625   2.828   8.322
29639WAT      O89158   4.848   0.569   8.288
29639WAT     H189159   4.827   0.471   8.284
29639WAT     H289160   4.765   0.621   8.266
29640WAT      O89161   7.965   1.535   2.649
29640WAT     H189162   7.909   1.550   2.731
29640WAT     H289163   7.977   1.436   2.636
29641WAT      O89164   7.114   9.411   7.263
29641WAT     H189165   7.074   9.370   7.345
29641WAT     H289166   7.048   9.473   7.221
29642WAT      O89167   5.337   7.621   0.040
29642WAT     H189168   5.423   7.589   0.082
29642WAT     H289169   5.295   7.690   0.099
29643WAT      O89170   9.036   0.396   6.166
29643WAT     H189171   9.013   0.409   6.070
29643WAT     H289172   8.997   0.470   6.220
29644WAT      O89173   4.708   8.322   8.163
29644WAT     H189174   4.646   8.260   8.115
29644WAT     H289175   4.798   8.320   8.119
29645WAT      O89176   7.680   5.396   9.725
29645WAT     H189177   7.734   5.395   9.641
29645WAT     H289178   7.732   5.354   9.799
29646WAT      O89179   9.785   2.890   8.754
29646WAT     H189180   9.736   2.804   8.742
29646WAT     H289181   9.763   2.952   8.679
29647WAT      O89182   8.216   9.373   9.694
29647WAT     H189183   8.124   9.371   9.655
29647WAT     H289184   8.277   9.424   9.633
29648WAT      O89185   5.503   5.090   4.010
29648WAT     H189186   5.567   5.093   4.088
29648WAT     H289187   5.555   5.078   3.925
29649WAT      O89188   6.912   2.437   1.210
29649WAT     H189189   6.852   2.406   1.283
29649WAT     H289190   6.859   2.456   1.128
29650WAT      O89191   0.871   3.837   4.300
29650WAT     H189192   0.803   3.821   4.371
29650WAT     H289193   0.959   3.857   4.342
29651WAT      O89194   6.074   8.159   6.728
29651WAT     H189195   6.162   8.193   6.693
29651WAT     H289196   6.003   8.228   6.714
29652WAT      O89197   0.295   1.281   1.598
29652WAT     H189198   0.227   1.211   1.577
29652WAT     H289199   0.271   1.366   1.551
29653WAT      O89200   8.805   3.497   3.836
29653WAT     H189201   8.792   3.588   3.874
29653WAT     H289202   8.833   3.434   3.909
29654WAT      O89203   2.229   4.824   1.309
29654WAT     H189204   2.313   4.869   1.280
29654WAT     H289205   2.177   4.885   1.369
29655WAT      O89206   7.187   7.991   1.402
29655WAT     H189207   7.203   7.925   1.329
29655WAT     H289208   7.274   8.028   1.434
29656WAT      O89209   5.082   3.060   1.341
29656WAT     H189210   5.106   2.969   1.373
29656WAT     H289211   4.987   3.080   1.365
29657WAT      O89212   1.147   4.585   1.702
29657WAT     H189213   1.109   4.516   1.640
29657WAT     H289214   1.246   4.585   1.695
29658WAT      O89215   2.144   9.131   1.266
29658WAT     H189216   2.048   9.104   1.257
29658WAT     H289217   2.180   9.156   1.176
29659WAT      O89218   4.530   0.426   4.767
29659WAT     H189219   4.551   0.463   4.676
29659WAT     H289220   4.607   0.442   4.828
29660WAT      O89221   1.454   8.891   9.351
29660WAT     H189222   1.502   8.806   9.371
29660WAT     H289223   1.440   8.899   9.252
29661WAT      O89224   2.584   2.713   8.821
29661WAT     H189225   2.663   2.768   8.795
29661WAT     H289226   2.612   2.639   8.883
29662WAT      O89227   6.234   8.638   5.013
29662WAT     H189228   6.160   8.656   5.077
29662WAT     H289229   6.322   8.645   5.060
29663WAT      O89230   4.117   8.512   6.312
29663WAT     H189231   4.026   8.554   6.304
29663WAT     H289232   4.180   8.557   6.248
29664WAT      O89233   5.381   5.628   5.001
29664WAT     H189234   5.409   5.616   4.905
29664WAT     H289235   5.305   5.567   5.021
29665WAT      O89236   1.018   2.745   7.499
29665WAT     H189237   1.116   2.727   7.502
29665WAT     H289238   0.972   2.669   7.453
29666WAT      O89239   5.850   1.507   8.268
29666WAT     H189240   5.908   1.546   8.197
29666WAT     H289241   5.779   1.450   8.226
29667WAT      O89242   0.871   9.813   2.688
29667WAT     H189243   0.870   9.865   2.603
29667WAT     H289244   0.787   9.759   2.695
29668WAT      O89245   7.190   9.324   4.650
29668WAT     H189246   7.109   9.347   4.595
29668WAT     H289247   7.271   9.322   4.592
29669WAT      O89248   2.374   0.954   2.484
29669WAT     H189249   2.399   0.932   2.579
29669WAT     H289250   2.409   0.882   2.424
29670WAT      O89251   3.300   0.159   0.426
29670WAT     H189252   3.376   0.097   0.408
29670WAT     H289253   3.263   0.192   0.339
29671WAT      O89254   7.068   2.723   3.491
29671WAT     H189255   7.089   2.747   3.586
29671WAT     H289256   6.993   2.658   3.489
29672WAT      O89257   2.189   8.682   8.431
29672WAT     H189258   2.288   8.692   8.434
29672WAT     H289259   2.163   8.595   8.475
29673WAT      O89260   8.076   6.151   1.936
29673WAT     H189261   8.112   6.195   2.019
29673WAT     H289262   8.145   6.090   1.899
29674WAT      O89263   2.565   1.159   9.275
29674WAT     H189264   2.536   1.175   9.181
29674WAT     H289265   2.493   1.111   9.325
29675WAT      O89266   6.816   2.982   6.547
29675WAT     H189267   6.846   3.038   6.624
29675WAT     H289268   6.895   2.956   6.492
29676WAT      O89269   0.379   4.154   7.552
29676WAT     H189270   0.441   4.173   7.629
29676WAT     H289271   0.286   4.141   7.586
29677WAT      O89272   3.604   4.915   7.902
29677WAT     H189273   3.532   4.969   7.860
29677WAT     H289274   3.636   4.961   7.985
29678WAT      O89275   5.652   4.118   1.989
29678WAT     H189276   5.729   4.163   1.943
29678WAT     H289277   5.627   4.035   1.938
29679WAT      O89278   6.564   1.786   2.832
29679WAT     H189279   6.525   1.873   2.864
29679WAT     H289280   6.647   1.804   2.781
29680WAT      O89281   2.428   5.681   3.834
29680WAT     H189282   2.361   5.728   3.777
29680WAT     H289283   2.462   5.743   3.904
29681WAT      O89284   3.461   4.445   1.697
29681WAT     H189285   3.438   4.525   1.641
29681WAT     H289286   3.524   4.386   1.647
29682WAT      O89287   6.537   5.132   4.308
29682WAT     H189288   6.636   5.126   4.308
29682WAT     H289289   6.507   5.185   4.388
29683WAT      O89290   0.707   9.156   4.600
29683WAT     H189291   0.731   9.231   4.538
29683WAT     H289292   0.763   9.162   4.683
29684WAT      O89293   5.283   2.605   6.046
29684WAT     H189294   5.205   2.606   5.984
29684WAT     H289295   5.345   2.531   6.019
29685WAT      O89296   7.202   6.660   2.161
29685WAT     H189297   7.220   6.738   2.101
29685WAT     H289298   7.144   6.691   2.237
29686WAT      O89299   2.741   9.397   2.761
29686WAT     H189300   2.691   9.482   2.774
29686WAT     H289301   2.837   9.411   2.784
29687WAT      O89302   4.386   7.898   6.519
29687WAT     H189303   4.359   7.983   6.565
29687WAT     H289304   4.465   7.915   6.461
29688WAT      O89305   9.748   5.944   6.671
29688WAT     H189306   9.806   6.021   6.645
29688WAT     H289307   9.803   5.873   6.714
29689WAT      O89308   1.425   6.382   6.895
29689WAT     H189309   1.486   6.432   6.833
29689WAT     H289310   1.449   6.285   6.894
29690WAT      O89311   7.191   8.841   7.710
29690WAT     H189312   7.127   8.854   7.635
29690WAT     H289313   7.142   8.845   7.798
29691WAT      O89314   4.299   2.713   1.444
29691WAT     H189315   4.328   2.617   1.439
29691WAT     H289316   4.201   2.719   1.424
29692WAT      O89317   0.017   7.721   8.507
29692WAT     H189318   0.058   7.747   8.595
29692WAT     H289319  -0.006   7.624   8.509
29693WAT      O89320   0.178   8.955   5.204
29693WAT     H189321   0.190   8.973   5.302
29693WAT     H289322   0.157   8.859   5.190
29694WAT      O89323   4.944   1.911   5.930
29694WAT     H189324   4.896   1.875   5.850
29694WAT     H289325   4.955   1.839   5.999
29695WAT      O89326   6.461   9.570   1.551
29695WAT     H189327   6.527   9.527   1.612
29695WAT     H289328   6.404   9.500   1.508
29696WAT      O89329   2.447   9.712   6.483
29696WAT     H189330   2.484   9.784   6.542
29696WAT     H289331   2.520   9.673   6.427
29697WAT      O89332   0.232   4.635   2.261
29697WAT     H189333   0.291   4.562   2.225
29697WAT     H289334   0.162   4.595   2.320
29698WAT      O89335   8.287   7.127   6.676
29698WAT     H189336   8.270   7.037   6.636
29698WAT     H289337   8.370   7.123   6.732
29699WAT      O89338   5.592   5.539   1.507
29699WAT     H189339   5.611   5.561   1.412
29699WAT     H289340   5.623   5.614   1.565
29700WAT      O89341   1.838   4.060   3.099
29700WAT     H189342   1.878   4.061   3.191
29700WAT     H289343   1.876   4.135   3.045
29701WAT      O89344   5.111   0.896   4.559
29701WAT     H189345   5.074   0.957   4.629
29701WAT     H289346   5.189   0.939   4.515
29702WAT      O89347   5.805   7.002   9.762
29702WAT     H189348   5.776   6.969   9.672
29702WAT     H289349   5.888   7.057   9.752
29703WAT      O89350   6.480   1.698   5.095
29703WAT     H189351   6.427   1.677   5.013
29703WAT     H289352   6.423   1.684   5.176
29704WAT      O89353   4.082   7.603   0.463
29704WAT     H189354   4.164   7.661   0.462
29704WAT     H289355   4.029   7.618   0.380
29705WAT      O89356   1.160   2.872   6.415
29705WAT     H189357   1.094   2.811   6.459
29705WAT     H289358   1.247   2.869   6.464
29706WAT      O89359   2.491   1.717   6.417
29706WAT     H189360   2.499   1.783   6.492
29706WAT     H289361   2.473   1.766   6.332
29707WAT      O89362   1.268   8.162   9.442
29707WAT     H189363   1.198   8.170   9.513
29707WAT     H289364   1.356   8.140   9.485
29708WAT      O89365   0.638   8.589   3.273
29708WAT     H189366   0.677   8.618   3.360
29708WAT     H289367   0.553   8.539   3.289
29709WAT      O89368   5.272   7.673   6.081
29709WAT     H189369   5.205   7.613   6.124
29709WAT     H289370   5.257   7.675   5.982
29710WAT      O89371   7.510   9.190   1.151
29710WAT     H189372   7.499   9.256   1.225
29710WAT     H289373   7.588   9.130   1.171
29711WAT      O89374   3.012   0.110   7.899
29711WAT     H189375   3.079   0.037   7.916
29711WAT     H289376   3.050   0.173   7.831
29712WAT      O89377   6.876   0.989   7.154
29712WAT     H189378   6.927   0.962   7.235
29712WAT     H289379   6.862   1.088   7.154
29713WAT      O89380   6.333   6.568   2.474
29713WAT     H189381   6.415   6.564   2.531
29713WAT     H289382   6.304   6.663   2.463
29714WAT      O89383   4.100   1.121   5.812
29714WAT     H189384   4.002   1.102   5.801
29714WAT     H289385   4.118   1.145   5.908
29715WAT      O89386   7.004   5.124   1.204
29715WAT     H189387   7.003   5.034   1.247
29715WAT     H289388   6.916   5.142   1.161
29716WAT      O89389   0.609   1.783   9.441
29716WAT     H189390   0.528   1.772   9.499
29716WAT     H289391   0.673   1.708   9.459
29717WAT      O89392   2.094   6.217   4.336
29717WAT     H189393   2.187   6.220   4.300
29717WAT     H289394   2.049   6.133   4.305
29718WAT      O89395   8.016   3.221   5.518
29718WAT     H189396   8.015   3.192   5.614
29718WAT     H289397   7.996   3.142   5.460
29719WAT      O89398   5.899   3.573   6.856
29719WAT     H189399   5.917   3.482   6.818
29719WAT     H289400   5.944   3.642   6.800
29720WAT      O89401   4.205   1.087   4.606
29720WAT     H189402   4.183   1.061   4.511
29720WAT     H289403   4.194   1.186   4.617
29721WAT      O89404   4.283   5.210   5.917
29721WAT     H189405   4.232   5.153   5.981
29721WAT     H289406   4.232   5.218   5.831
29722WAT      O89407   3.525   7.072   5.156
29722WAT     H189408   3.443   7.028   5.191
29722WAT     H289409   3.544   7.155   5.209
29723WAT      O89410   4.750   5.407   3.942
29723WAT     H189411   4.776   5.347   4.018
29723WAT     H289412   4.820   5.403   3.871
29724WAT      O89413   7.336   9.457   5.799
29724WAT     H189414   7.288   9.390   5.743
29724WAT     H289415   7.317   9.549   5.766
29725WAT      O89416   2.903   9.661   7.604
29725WAT     H189417   2.914   9.604   7.685
29725WAT     H289418   2.865   9.750   7.630
29726WAT      O89419   1.940   0.547   3.968
29726WAT     H189420   2.009   0.539   4.040
29726WAT     H289421   1.970   0.615   3.901
29727WAT      O89422   7.529   6.676   8.307
29727WAT     H189423   7.508   6.595   8.252
29727WAT     H289424   7.505   6.659   8.402
29728WAT      O89425   5.731   0.652   2.246
29728WAT     H189426   5.774   0.713   2.179
29728WAT     H289427   5.776   0.563   2.243
29729WAT      O89428   6.432   4.780   8.392
29729WAT     H189429   6.365   4.798   8.464
29729WAT     H289430   6.504   4.720   8.428
29730WAT      O89431   4.136   6.053   9.091
29730WAT     H189432   4.175   5.978   9.039
29730WAT     H289433   4.064   6.098   9.038
29731WAT      O89434   3.885   0.530   7.705
29731WAT     H189435   3.872   0.596   7.632
29731WAT     H289436   3.864   0.573   7.793
29732WAT      O89437   9.043   3.322   1.074
29732WAT     H189438   8.985   3.397   1.044
29732WAT     H289439   9.079   3.274   0.994
29733WAT      O89440   4.065   8.585   1.636
29733WAT     H189441   4.035   8.509   1.693
29733WAT     H289442   4.142   8.556   1.579
29734WAT      O89443   9.367   8.550   3.851
29734WAT     H189444   9.272   8.545   3.880
29734WAT     H289445   9.409   8.459   3.858
29735WAT      O89446   6.804   1.115   7.450
29735WAT     H189447   6.731   1.095   7.385
29735WAT     H289448   6.874   1.044   7.445
29736WAT      O89449   2.683   2.507   8.025
29736WAT     H189450   2.721   2.415   8.024
29736WAT     H289451   2.749   2.571   7.985
29737WAT      O89452   1.445   5.780   5.705
29737WAT     H189453   1.386   5.857   5.684
29737WAT     H289454   1.429   5.750   5.799
29738WAT      O89455   2.947   3.859   9.548
29738WAT     H189456   3.041   3.846   9.580
29738WAT     H289457   2.931   3.956   9.530
29739WAT      O89458   2.892   4.557   2.196
29739WAT     H189459   2.847   4.546   2.107
29739WAT     H289460   2.977   4.504   2.197
29740WAT      O89461   7.668   5.020   9.577
29740WAT     H189462   7.582   5.023   9.628
29740WAT     H289463   7.653   4.974   9.489
29741WAT      O89464   6.640   5.803   7.703
29741WAT     H189465   6.669   5.898   7.710
29741WAT     H289466   6.658   5.770   7.610
29742WAT      O89467   3.470   3.587   1.412
29742WAT     H189468   3.543   3.569   1.347
29742WAT     H289469   3.405   3.652   1.373
29743WAT      O89470   6.639   3.873   8.123
29743WAT     H189471   6.589   3.828   8.198
29743WAT     H289472   6.629   3.972   8.131
29744WAT      O89473   2.943   9.298   6.193
29744WAT     H189474   2.913   9.376   6.139
29744WAT     H289475   2.911   9.308   6.287
29745WAT      O89476   8.298   0.947   4.445
29745WAT     H189477   8.317   0.887   4.523
29745WAT     H289478   8.371   1.016   4.438
29746WAT      O89479   0.781   5.859   1.871
29746WAT     H189480   0.821   5.884   1.783
29746WAT     H289481   0.754   5.762   1.868
29747WAT      O89482   7.200   8.740   7.244
29747WAT     H189483   7.228   8.672   7.177
29747WAT     H289484   7.267   8.814   7.247
29748WAT      O89485   7.411   5.742   2.661
29748WAT     H189486   7.464   5.748   2.576
29748WAT     H289487   7.337   5.676   2.649
29749WAT      O89488   3.636   0.522   3.480
29749WAT     H189489   3.606   0.457   3.411
29749WAT     H289490   3.615   0.487   3.571
29750WAT      O89491   4.430   9.793   0.015
29750WAT     H189492   4.379   9.869   0.054
29750WAT     H289493   4.472   9.821  -0.071
29751WAT      O89494   4.834   9.659   2.468
29751WAT     H189495   4.827   9.569   2.510
29751WAT     H289496   4.931   9.684   2.459
29752WAT      O89497   3.790   7.031   4.471
29752WAT     H189498   3.782   6.953   4.533
29752WAT     H289499   3.793   6.999   4.376
29753WAT      O89500   2.420   1.093   9.489
29753WAT     H189501   2.476   1.037   9.550
29753WAT     H289502   2.328   1.054   9.484
29754WAT      O89503   8.873   0.211   3.781
29754WAT     H189504   8.850   0.147   3.854
29754WAT     H289505   8.920   0.290   3.819
29755WAT      O89506   5.426   6.308   3.535
29755WAT     H189507   5.358   6.337   3.603
29755WAT     H289508   5.449   6.386   3.476
29756WAT      O89509   4.654   5.827   2.542
29756WAT     H189510   4.559   5.827   2.571
29756WAT     H289511   4.674   5.742   2.491
29757WAT      O89512   5.195   2.888   1.985
29757WAT     H189513   5.156   2.969   2.027
29757WAT     H289514   5.123   2.834   1.942
29758WAT      O89515   8.731   2.982   3.476
29758WAT     H189516   8.759   3.021   3.563
29758WAT     H289517   8.635   3.005   3.458
29759WAT      O89518   6.288   9.256   7.105
29759WAT     H189519   6.380   9.234   7.073
29759WAT     H289520   6.255   9.183   7.164
29760WAT      O89521   3.008   8.439   6.557
29760WAT     H189522   2.966   8.349   6.549
29760WAT     H289523   2.984   8.496   6.478
29761WAT      O89524   5.486   2.152   6.806
29761WAT     H189525   5.466   2.098   6.888
29761WAT     H289526   5.403   2.159   6.750
29762WAT      O89527   4.983   0.973   6.099
29762WAT     H189528   5.009   1.043   6.032
29762WAT     H289529   4.885   0.980   6.118
29763WAT      O89530   3.476   6.538   7.935
29763WAT     H189531   3.508   6.632   7.936
29763WAT     H289532   3.539   6.483   7.879
29764WAT      O89533   2.443   6.092   4.949
29764WAT     H189534   2.487   6.006   4.920
29764WAT     H289535   2.512   6.151   4.991
29765WAT      O89536   9.443   6.918   0.311
29765WAT     H189537   9.357   6.940   0.264
29765WAT     H289538   9.425   6.850   0.382
29766WAT      O89539   2.898   2.903   2.221
29766WAT     H189540   2.988   2.873   2.191
29766WAT     H289541   2.865   2.975   2.161
29767WAT      O89542   6.651   3.957   6.414
29767WAT     H189543   6.651   3.857   6.416
29767WAT     H289544   6.718   3.988   6.346
29768WAT      O89545   3.456   9.554   1.572
29768WAT     H189546   3.549   9.583   1.555
29768WAT     H289547   3.456   9.461   1.611
29769WAT      O89548   9.699   8.988   1.527
29769WAT     H189549   9.679   8.983   1.429
29769WAT     H289550   9.692   8.896   1.567
29770WAT      O89551   4.211   5.689   6.466
29770WAT     H189552   4.274   5.656   6.536
29770WAT     H289553   4.237   5.650   6.377
29771WAT      O89554   2.175   1.489   0.273
29771WAT     H189555   2.215   1.461   0.361
29771WAT     H289556   2.248   1.518   0.211
29772WAT      O89557   1.933   7.711   8.955
29772WAT     H189558   1.898   7.671   8.870
29772WAT     H289559   1.873   7.786   8.984
29773WAT      O89560   3.918   9.076   2.625
29773WAT     H189561   3.853   9.008   2.589
29773WAT     H289562   3.873   9.130   2.696
29774WAT      O89563   8.326   6.145   7.013
29774WAT     H189564   8.330   6.224   7.074
29774WAT     H289565   8.388   6.160   6.935
29775WAT      O89566   3.232   8.061  -0.004
29775WAT     H189567   3.166   8.086   0.067
29775WAT     H289568   3.316   8.027   0.039
29776WAT      O89569   0.321   2.213   4.176
29776WAT     H189570   0.332   2.304   4.217
29776WAT     H289571   0.303   2.222   4.078
29777WAT      O89572   2.395   7.853   4.113
29777WAT     H189573   2.310   7.805   4.134
29777WAT     H289574   2.457   7.847   4.191
29778WAT      O89575   5.552   6.809   6.004
29778WAT     H189576   5.515   6.728   5.959
29778WAT     H289577   5.488   6.886   5.994
29779WAT      O89578   9.325   6.894   3.772
29779WAT     H189579   9.308   6.856   3.863
29779WAT     H289580   9.294   6.989   3.769
29780WAT      O89581   6.386   4.188   2.176
29780WAT     H189582   6.338   4.140   2.249
29780WAT     H289583   6.412   4.124   2.104
29781WAT      O89584   6.783   2.525   1.423
29781WAT     H189585   6.733   2.597   1.375
29781WAT     H289586   6.831   2.564   1.501
29782WAT      O89587   8.754   1.908   6.535
29782WAT     H189588   8.818   1.963   6.482
29782WAT     H289589   8.664   1.913   6.494
29783WAT      O89590   9.778   9.021   4.286
29783WAT     H189591   9.836   8.955   4.334
29783WAT     H289592   9.692   9.033   4.336
29784WAT      O89593   8.619   2.219   7.896
29784WAT     H189594   8.594   2.204   7.800
29784WAT     H289595   8.694   2.158   7.921
29785WAT      O89596   5.187   4.525   9.456
29785WAT     H189597   5.141   4.613   9.445
29785WAT     H289598   5.132   4.466   9.515
29786WAT      O89599   6.572   6.535   0.510
29786WAT     H189600   6.634   6.505   0.582
29786WAT     H289601   6.492   6.474   0.506
29787WAT      O89602   7.312   5.424   9.631
29787WAT     H189603   7.258   5.508   9.639
29787WAT     H289604   7.409   5.446   9.645
29788WAT      O89605   5.765   6.071   2.787
29788WAT     H189606   5.824   6.119   2.852
29788WAT     H289607   5.745   6.131   2.710
29789WAT      O89608   0.716   9.094   8.910
29789WAT     H189609   0.712   9.026   8.984
29789WAT     H289610   0.702   9.185   8.948
29790WAT      O89611   0.353   2.577   6.313
29790WAT     H189612   0.347   2.535   6.223
29790WAT     H289613   0.427   2.534   6.365
29791WAT      O89614   0.581   7.056   1.949
29791WAT     H189615   0.617   7.001   1.873
29791WAT     H289616   0.485   7.035   1.963
29792WAT      O89617   9.359   9.454   5.296
29792WAT     H189618   9.294   9.398   5.245
29792WAT     H289619   9.329   9.549   5.296
29793WAT      O89620   2.326   8.388   3.714
29793WAT     H189621   2.270   8.350   3.788
29793WAT     H289622   2.286   8.362   3.626
29794WAT      O89623   3.227   4.065   7.733
29794WAT     H189624   3.182   4.098   7.816
29794WAT     H289625   3.180   4.100   7.653
29795WAT      O89626   7.375   6.136   2.223
29795WAT     H189627   7.444   6.102   2.159
29795WAT     H289628   7.360   6.234   2.206
29796WAT      O89629   3.928   4.838   6.094
29796WAT     H189630   3.967   4.820   6.184
29796WAT     H289631   3.828   4.840   6.100
29797WAT      O89632   2.296   8.111   4.071
29797WAT     H189633   2.366   8.166   4.116
29797WAT     H289634   2.319   8.014   4.081
29798WAT      O89635   2.983   5.146   0.656
29798WAT     H189636   3.047   5.159   0.580
29798WAT     H289637   2.918   5.222   0.658
29799WAT      O89638   7.542   5.782   1.045
29799WAT     H189639   7.629   5.732   1.054
29799WAT     H289640   7.466   5.717   1.052
29800WAT      O89641   3.480   0.236   1.211
29800WAT     H189642   3.468   0.185   1.296
29800WAT     H289643   3.399   0.225   1.154
29801WAT      O89644   8.766   9.823   3.404
29801WAT     H189645   8.764   9.730   3.440
29801WAT     H289646   8.851   9.868   3.432
29802WAT      O89647   0.642   6.512   6.668
29802WAT     H189648   0.684   6.594   6.628
29802WAT     H289649   0.588   6.538   6.748
29803WAT      O89650   9.317   1.301   6.867
29803WAT     H189651   9.323   1.347   6.955
29803WAT     H289652   9.246   1.231   6.870
29804WAT      O89653   9.314   4.278   5.570
29804WAT     H189654   9.375   4.355   5.592
29804WAT     H289655   9.287   4.283   5.474
29805WAT      O89656   7.595   5.317   6.834
29805WAT     H189657   7.562   5.288   6.745
29805WAT     H289658   7.685   5.275   6.851
29806WAT      O89659   2.264   8.373   7.855
29806WAT     H189660   2.334   8.433   7.894
29806WAT     H289661   2.288   8.350   7.761
29807WAT      O89662   9.537   1.159   7.960
29807WAT     H189663   9.458   1.205   8.000
29807WAT     H289664   9.509   1.072   7.921
29808WAT      O89665   4.553   8.807   6.391
29808WAT     H189666   4.591   8.896   6.420
29808WAT     H289667   4.532   8.810   6.293
29809WAT      O89668   1.084   6.680   0.088
29809WAT     H189669   1.095   6.659   0.185
29809WAT     H289670   0.987   6.676   0.063
29810WAT      O89671   7.830   6.407   5.254
29810WAT     H189672   7.922   6.379   5.231
29810WAT     H289673   7.769   6.393   5.176
29811WAT      O89674   5.319   4.810   9.300
29811WAT     H189675   5.288   4.876   9.232
29811WAT     H289676   5.343   4.724   9.254
29812WAT      O89677   9.749   3.566   4.749
29812WAT     H189678   9.651   3.547   4.755
29812WAT     H289679   9.784   3.533   4.661
29813WAT      O89680   3.835   1.876   4.862
29813WAT     H189681   3.810   1.847   4.954
29813WAT     H289682   3.871   1.798   4.811
29814WAT      O89683   1.764   5.784   1.421
29814WAT     H189684   1.716   5.790   1.508
29814WAT     H289685   1.808   5.694   1.413
29815WAT      O89686   3.309   0.755   6.118
29815WAT     H189687   3.355   0.838   6.147
29815WAT     H289688   3.315   0.746   6.019
29816WAT      O89689   4.075   6.620   1.951
29816WAT     H189690   4.136   6.544   1.926
29816WAT     H289691   4.058   6.678   1.872
29817WAT      O89692   2.450   6.917   0.867
29817WAT     H189693   2.479   6.958   0.780
29817WAT     H289694   2.521   6.930   0.936
29818WAT      O89695   1.967   1.110   2.523
29818WAT     H189696   2.045   1.155   2.567
29818WAT     H289697   1.901   1.179   2.496
29819WAT      O89698   0.889   5.531   9.757
29819WAT     H189699   0.921   5.437   9.743
29819WAT     H289700   0.968   5.593   9.761
29820WAT      O89701   2.390   6.833   3.369
29820WAT     H189702   2.367   6.923   3.332
29820WAT     H289703   2.479   6.804   3.335
29821WAT      O89704   8.977   9.748   3.024
29821WAT     H189705   8.975   9.726   2.927
29821WAT     H289706   8.888   9.782   3.053
29822WAT      O89707   7.797   2.102   0.639
29822WAT     H189708   7.836   2.088   0.730
29822WAT     H289709   7.727   2.034   0.621
29823WAT      O89710   0.041   1.083   1.040
29823WAT     H189711  -0.058   1.093   1.042
29823WAT     H289712   0.084   1.173   1.041
29824WAT      O89713   6.509   7.915   9.541
29824WAT     H189714   6.473   7.974   9.468
29824WAT     H289715   6.436   7.895   9.607
29825WAT      O89716   8.131   1.025   6.903
29825WAT     H189717   8.049   1.022   6.847
29825WAT     H289718   8.106   1.039   6.999
29826WAT      O89719   5.815   7.164   4.426
29826WAT     H189720   5.870   7.149   4.508
29826WAT     H289721   5.826   7.259   4.395
29827WAT      O89722   4.804   7.640   9.526
29827WAT     H189723   4.760   7.639   9.436
29827WAT     H289724   4.734   7.648   9.597
29828WAT      O89725   3.031   6.431   1.838
29828WAT     H189726   2.964   6.498   1.806
29828WAT     H289727   3.086   6.470   1.912
29829WAT      O89728   4.328   3.765   5.393
29829WAT     H189729   4.390   3.844   5.383
29829WAT     H289730   4.337   3.727   5.485
29830WAT      O89731   6.015   4.716   3.833
29830WAT     H189732   6.042   4.800   3.880
29830WAT     H289733   5.919   4.724   3.803
29831WAT      O89734   5.354   0.685   3.480
29831WAT     H189735   5.273   0.646   3.525
29831WAT     H289736   5.365   0.643   3.390
29832WAT      O89737   8.378   9.756   7.158
29832WAT     H189738   8.377   9.661   7.191
29832WAT     H289739   8.375   9.818   7.237
29833WAT      O89740   3.247   1.228   7.225
29833WAT     H189741   3.187   1.297   7.265
29833WAT     H289742   3.196   1.174   7.158
29834WAT      O89743   1.212   6.337   0.079
29834WAT     H189744   1.287   6.402   0.085
29834WAT     H289745   1.125   6.386   0.076
29835WAT      O89746   3.842   0.146   8.648
29835WAT     H189747   3.831   0.058   8.602
29835WAT     H289748   3.828   0.220   8.582
29836WAT      O89749   7.842   0.360   4.604
29836WAT     H189750   7.784   0.436   4.635
29836WAT     H289751   7.834   0.350   4.505
29837WAT      O89752   0.238   5.092   3.103
29837WAT     H189753   0.189   5.042   3.032
29837WAT     H289754   0.315   5.037   3.136
29838WAT      O89755   5.697   9.446   5.261
29838WAT     H189756   5.783   9.396   5.272
29838WAT     H289757   5.684   9.509   5.337
29839WAT      O89758   2.695   6.861   9.523
29839WAT     H189759   2.639   6.942   9.544
29839WAT     H289760   2.717   6.861   9.426
29840WAT      O89761   4.004   2.789   2.351
29840WAT     H189762   4.020   2.888   2.353
29840WAT     H289763   3.983   2.758   2.444
29841WAT      O89764   0.749   9.496   1.429
29841WAT     H189765   0.736   9.421   1.365
29841WAT     H289766   0.845   9.499   1.459
29842WAT      O89767   2.138   3.751   3.100
29842WAT     H189768   2.168   3.710   3.186
29842WAT     H289769   2.153   3.850   3.104
29843WAT      O89770   4.113   7.219   0.891
29843WAT     H189771   4.072   7.302   0.853
29843WAT     H289772   4.184   7.245   0.957
29844WAT      O89773   2.259   9.372   7.035
29844WAT     H189774   2.327   9.322   7.088
29844WAT     H289775   2.244   9.462   7.075
29845WAT      O89776   2.226   2.523   6.201
29845WAT     H189777   2.214   2.426   6.179
29845WAT     H289778   2.281   2.567   6.130
29846WAT      O89779   4.643   8.716   5.307
29846WAT     H189780   4.568   8.667   5.351
29846WAT     H289781   4.725   8.658   5.304
29847WAT      O89782   6.863   7.443   0.383
29847WAT     H189783   6.808   7.403   0.456
29847WAT     H289784   6.960   7.434   0.405
29848WAT      O89785   7.132   8.577   1.785
29848WAT     H189786   7.081   8.601   1.703
29848WAT     H289787   7.114   8.645   1.856
29849WAT      O89788   4.274   1.417   4.930
29849WAT     H189789   4.350   1.482   4.938
29849WAT     H289790   4.231   1.428   4.841
29850WAT      O89791   1.285   5.374   9.095
29850WAT     H189792   1.252   5.327   9.013
29850WAT     H289793   1.212   5.379   9.163
29851WAT      O89794   2.679   1.388   4.736
29851WAT     H189795   2.734   1.441   4.671
29851WAT     H289796   2.692   1.425   4.828
29852WAT      O89797   1.035   2.466   1.115
29852WAT     H189798   0.972   2.389   1.119
29852WAT     H289799   1.008   2.535   1.183
29853WAT      O89800   7.681   4.808   7.990
29853WAT     H189801   7.629   4.816   8.075
29853WAT     H289802   7.703   4.899   7.956
29854WAT      O89803   8.389   0.926   9.050
29854WAT     H189804   8.428   0.836   9.069
29854WAT     H289805   8.301   0.916   9.004
29855WAT      O89806   0.297   2.296   5.210
29855WAT     H189807   0.379   2.257   5.168
29855WAT     H289808   0.315   2.316   5.306
29856WAT      O89809   3.811   9.515   2.835
29856WAT     H189810   3.835   9.586   2.769
29856WAT     H289811   3.865   9.525   2.918
29857WAT      O89812   4.926   9.694   8.855
29857WAT     H189813   4.997   9.759   8.828
29857WAT     H289814   4.887   9.651   8.773
29858WAT      O89815   3.623   3.784   7.251
29858WAT     H189816   3.657   3.719   7.319
29858WAT     H289817   3.549   3.838   7.291
29859WAT      O89818   4.367   0.496   5.583
29859WAT     H189819   4.464   0.521   5.594
29859WAT     H289820   4.354   0.458   5.491
29860WAT      O89821   3.602   6.923   8.686
29860WAT     H189822   3.587   6.939   8.588
29860WAT     H289823   3.631   6.829   8.699
29861WAT      O89824   1.362   9.614   2.279
29861WAT     H189825   1.339   9.654   2.367
29861WAT     H289826   1.298   9.646   2.209
29862WAT      O89827   1.355   0.351   2.454
29862WAT     H189828   1.306   0.430   2.490
29862WAT     H289829   1.440   0.381   2.410
29863WAT      O89830   1.993   6.553   4.843
29863WAT     H189831   2.084   6.522   4.871
29863WAT     H289832   1.923   6.498   4.889
29864WAT      O89833   6.620   2.059   0.788
29864WAT     H189834   6.549   2.048   0.718
29864WAT     H289835   6.697   2.110   0.750
29865WAT      O89836   0.110   4.353   7.736
29865WAT     H189837   0.092   4.282   7.668
29865WAT     H289838   0.110   4.443   7.692
29866WAT      O89839   3.120   4.168   8.491
29866WAT     H189840   3.034   4.216   8.510
29866WAT     H289841   3.196   4.232   8.499
29867WAT      O89842   1.261   7.281   1.947
29867WAT     H189843   1.209   7.326   1.875
29867WAT     H289844   1.263   7.182   1.930
29868WAT      O89845   5.499   8.406   5.164
29868WAT     H189846   5.552   8.331   5.204
29868WAT     H289847   5.558   8.486   5.153
29869WAT      O89848   5.566   3.360   3.840
29869WAT     H189849   5.489   3.425   3.839
29869WAT     H289850   5.535   3.273   3.878
29870WAT      O89851   7.311   3.164   8.806
29870WAT     H189852   7.395   3.111   8.820
29870WAT     H289853   7.252   3.116   8.741
29871WAT      O89854   5.223   5.849   9.584
29871WAT     H189855   5.153   5.856   9.512
29871WAT     H289856   5.195   5.904   9.663
29872WAT      O89857   2.968   9.347   2.283
29872WAT     H189858   2.967   9.331   2.382
29872WAT     H289859   2.875   9.344   2.247
29873WAT      O89860   8.615   7.523   1.073
29873WAT     H189861   8.571   7.489   1.157
29873WAT     H289862   8.545   7.551   1.008
29874WAT      O89863   7.953   7.086   4.259
29874WAT     H189864   7.888   7.151   4.219
29874WAT     H289865   8.038   7.087   4.207
29875WAT      O89866   6.503   1.811   0.847
29875WAT     H189867   6.541   1.903   0.836
29875WAT     H289868   6.468   1.800   0.940
29876WAT      O89869   2.416   6.673   2.392
29876WAT     H189870   2.465   6.747   2.438
29876WAT     H289871   2.450   6.585   2.425
29877WAT      O89872   8.026   1.144   2.514
29877WAT     H189873   8.090   1.172   2.442
29877WAT     H289874   8.045   1.196   2.598
29878WAT      O89875   6.241   9.095   6.635
29878WAT     H189876   6.155   9.136   6.606
29878WAT     H289877   6.254   9.008   6.587
29879WAT      O89878   1.178   6.288   6.819
29879WAT     H189879   1.206   6.217   6.755
29879WAT     H289880   1.259   6.329   6.861
29880WAT      O89881   6.510   6.050   3.116
29880WAT     H189882   6.436   5.986   3.094
29880WAT     H289883   6.501   6.080   3.210
29881WAT      O89884   5.814   4.282   8.198
29881WAT     H189885   5.890   4.318   8.144
29881WAT     H289886   5.791   4.190   8.166
29882WAT      O89887   5.697   9.381   4.556
29882WAT     H189888   5.703   9.361   4.458
29882WAT     H289889   5.685   9.480   4.569
29883WAT      O89890   4.175   8.835   9.068
29883WAT     H189891   4.092   8.883   9.097
29883WAT     H289892   4.209   8.780   9.145
29884WAT      O89893   7.195   0.276   2.408
29884WAT     H189894   7.276   0.315   2.365
29884WAT     H289895   7.146   0.347   2.457
29885WAT      O89896   0.394   7.674   6.203
29885WAT     H189897   0.350   7.591   6.238
29885WAT     H289898   0.350   7.702   6.118
29886WAT      O89899   5.215   1.661   0.672
29886WAT     H189900   5.191   1.565   0.652
29886WAT     H289901   5.141   1.703   0.724
29887WAT      O89902   4.399   1.975   2.686
29887WAT     H189903   4.317   1.939   2.641
29887WAT     H289904   4.443   1.902   2.739
29888WAT      O89905   5.752   8.468   3.289
29888WAT     H189906   5.713   8.519   3.213
29888WAT     H289907   5.687   8.465   3.364
29889WAT      O89908   8.052   0.855   5.208
29889WAT     H189909   8.003   0.817   5.287
29889WAT     H289910   7.995   0.924   5.164
29890WAT      O89911   2.808   5.312   6.589
29890WAT     H189912   2.748   5.331   6.666
29890WAT     H289913   2.784   5.224   6.549
29891WAT      O89914   7.525   5.213   2.990
29891WAT     H189915   7.468   5.232   3.070
29891WAT     H289916   7.483   5.142   2.935
29892WAT      O89917   6.630   6.714   0.833
29892WAT     H189918   6.567   6.742   0.905
29892WAT     H289919   6.600   6.752   0.746
29893WAT      O89920   1.061   6.544   4.433
29893WAT     H189921   0.999   6.466   4.433
29893WAT     H289922   1.010   6.628   4.416
29894WAT      O89923   0.374   5.678   3.433
29894WAT     H189924   0.462   5.667   3.480
29894WAT     H289925   0.300   5.673   3.500
29895WAT      O89926   9.578   3.424   6.621
29895WAT     H189927   9.553   3.509   6.573
29895WAT     H289928   9.501   3.361   6.619
29896WAT      O89929   5.533   3.487   8.170
29896WAT     H189930   5.513   3.445   8.081
29896WAT     H289931   5.533   3.586   8.161
29897WAT      O89932   0.636   8.840   9.137
29897WAT     H189933   0.589   8.804   9.056
29897WAT     H289934   0.605   8.791   9.218
29898WAT      O89935   1.740   4.876   2.785
29898WAT     H189936   1.719   4.971   2.808
29898WAT     H289937   1.715   4.859   2.690
29899WAT      O89938   1.267   0.494   0.156
29899WAT     H189939   1.328   0.445   0.093
29899WAT     H289940   1.180   0.446   0.163
29900WAT      O89941   9.349   4.414   1.978
29900WAT     H189942   9.372   4.322   1.948
29900WAT     H289943   9.419   4.478   1.945
29901WAT      O89944   2.151   1.112   6.021
29901WAT     H189945   2.155   1.036   5.955
29901WAT     H289946   2.230   1.171   6.008
29902WAT      O89947   2.728   6.813   8.131
29902WAT     H189948   2.742   6.715   8.116
29902WAT     H289949   2.667   6.849   8.060
29903WAT      O89950   8.784   0.333   7.228
29903WAT     H189951   8.779   0.273   7.148
29903WAT     H289952   8.857   0.400   7.214
29904WAT      O89953   8.176   3.841   9.563
29904WAT     H189954   8.223   3.908   9.621
29904WAT     H289955   8.243   3.782   9.519
29905WAT      O89956   8.873   4.507   5.935
29905WAT     H189957   8.878   4.444   6.012
29905WAT     H289958   8.853   4.599   5.967
29906WAT      O89959   5.140   3.992   5.967
29906WAT     H189960   5.230   3.995   6.011
29906WAT     H289961   5.146   4.030   5.875
29907WAT      O89962   9.476   9.027   0.100
29907WAT     H189963   9.491   9.075   0.187
29907WAT     H289964   9.518   8.937   0.105
29908WAT      O89965   5.626   1.248   8.637
29908WAT     H189966   5.654   1.344   8.639
29908WAT     H289967   5.578   1.228   8.552
29909WAT      O89968   7.906   1.610   8.496
29909WAT     H189969   7.906   1.600   8.595
29909WAT     H289970   7.900   1.707   8.472
29910WAT      O89971   3.643   9.701   4.377
29910WAT     H189972   3.642   9.681   4.279
29910WAT     H289973   3.627   9.617   4.428
29911WAT      O89974   3.468   2.868   9.285
29911WAT     H189975   3.401   2.794   9.284
29911WAT     H289976   3.495   2.888   9.191
29912WAT      O89977   3.564   5.563   2.876
29912WAT     H189978   3.651   5.599   2.909
29912WAT     H289979   3.520   5.510   2.948
29913WAT      O89980   9.176   9.290   2.830
29913WAT     H189981   9.170   9.310   2.732
29913WAT     H289982   9.107   9.343   2.879
29914WAT      O89983   7.282   7.649   4.804
29914WAT     H189984   7.309   7.555   4.783
29914WAT     H289985   7.202   7.674   4.749
29915WAT      O89986   7.103   0.215   9.602
29915WAT     H189987   7.007   0.241   9.593
29915WAT     H289988   7.118   0.124   9.564
29916WAT      O89989   4.469   1.206   9.283
29916WAT     H189990   4.464   1.126   9.223
29916WAT     H289991   4.561   1.213   9.322
29917WAT      O89992   8.281   7.342   2.434
29917WAT     H189993   8.320   7.296   2.514
29917WAT     H289994   8.182   7.324   2.431
29918WAT      O89995   6.038   9.532   5.278
29918WAT     H189996   6.017   9.630   5.271
29918WAT     H289997   5.981   9.491   5.349
29919WAT      O89998   4.696   0.225   2.943
29919WAT     H189999   4.751   0.147   2.914
29919WAT     H290000   4.635   0.253   2.868
29920WAT      O90001   9.480   3.923   7.417
29920WAT     H190002   9.381   3.925   7.401
29920WAT     H290003   9.527   3.929   7.329
29921WAT      O90004   7.378   5.722   8.055
29921WAT     H190005   7.458   5.760   8.103
29921WAT     H290006   7.372   5.761   7.964
29922WAT      O90007   9.808   4.943   7.606
29922WAT     H190008   9.735   4.935   7.537
29922WAT     H290009   9.769   4.932   7.697
29923WAT      O90010   3.226   8.395   1.665
29923WAT     H190011   3.248   8.323   1.599
29923WAT     H290012   3.241   8.361   1.758
29924WAT      O90013   2.635   2.094   8.028
29924WAT     H190014   2.567   2.033   8.070
29924WAT     H290015   2.593   2.142   7.951
29925WAT      O90016   8.274   4.525   6.577
29925WAT     H190017   8.229   4.439   6.601
29925WAT     H290018   8.294   4.577   6.660
29926WAT      O90019   8.691   2.640   4.727
29926WAT     H190020   8.750   2.619   4.650
29926WAT     H290021   8.637   2.559   4.752
29927WAT      O90022   6.420   9.043   7.323
29927WAT     H190023   6.475   8.960   7.311
29927WAT     H290024   6.325   9.024   7.298
29928WAT      O90025   4.898   7.020   5.638
29928WAT     H190026   4.825   6.995   5.702
29928WAT     H290027   4.956   6.941   5.623
29929WAT      O90028   2.251   2.764   4.070
29929WAT     H190029   2.268   2.691   4.004
29929WAT     H290030   2.252   2.727   4.163
29930WAT      O90031   6.202   7.235   1.277
29930WAT     H190032   6.204   7.161   1.345
29930WAT     H290033   6.219   7.322   1.322
29931WAT      O90034   6.183   1.529   7.625
29931WAT     H190035   6.204   1.588   7.703
29931WAT     H290036   6.097   1.556   7.583
29932WAT      O90037   1.510   2.523   6.962
29932WAT     H190038   1.501   2.483   6.871
29932WAT     H290039   1.443   2.596   6.974
29933WAT      O90040   2.745   0.717   9.006
29933WAT     H190041   2.808   0.730   8.930
29933WAT     H290042   2.743   0.799   9.063
29934WAT      O90043   5.742   2.304   8.593
29934WAT     H190044   5.795   2.221   8.612
29934WAT     H290045   5.655   2.278   8.551
29935WAT      O90046   1.133   4.979   8.832
29935WAT     H190047   1.067   4.932   8.773
29935WAT     H290048   1.123   4.947   8.926
29936WAT      O90049   6.424   4.969   6.355
29936WAT     H190050   6.511   4.982   6.403
29936WAT     H290051   6.436   4.900   6.283
29937WAT      O90052   5.484   9.470   8.332
29937WAT     H190053   5.563   9.531   8.331
29937WAT     H290054   5.514   9.377   8.310
29938WAT      O90055   0.582   0.588   9.322
29938WAT     H190056   0.601   0.514   9.388
29938WAT     H290057   0.613   0.560   9.231
29939WAT      O90058   8.580   4.684   6.566
29939WAT     H190059   8.534   4.661   6.480
29939WAT     H290060   8.528   4.646   6.643
29940WAT      O90061   0.338   1.006   9.798
29940WAT     H190062   0.425   1.035   9.759
29940WAT     H290063   0.267   1.072   9.775
29941WAT      O90064   7.430   3.476   1.281
29941WAT     H190065   7.475   3.565   1.291
29941WAT     H290066   7.472   3.427   1.204
29942WAT      O90067   6.259   7.849   6.067
29942WAT     H190068   6.247   7.807   6.157
29942WAT     H290069   6.206   7.799   6.000
29943WAT      O90070   5.944   9.344   6.837
29943WAT     H190071   5.936   9.259   6.888
29943WAT     H290072   5.896   9.418   6.886
29944WAT      O90073   5.868   4.913   2.080
29944WAT     H190074   5.912   4.999   2.109
29944WAT     H290075   5.832   4.866   2.160
29945WAT      O90076   5.380   0.234   6.544
29945WAT     H190077   5.325   0.239   6.461
29945WAT     H290078   5.474   0.262   6.523
29946WAT      O90079   3.081   4.977   6.298
29946WAT     H190080   3.062   4.897   6.355
29946WAT     H290081   3.176   5.006   6.311
29947WAT      O90082   3.900   9.016   9.386
29947WAT     H190083   3.938   9.014   9.479
29947WAT     H290084   3.846   9.099   9.374
29948WAT      O90085   9.826   8.614   9.074
29948WAT     H190086   9.891   8.609   9.150
29948WAT     H290087   9.768   8.532   9.075
29949WAT      O90088   4.166   9.558   0.184
29949WAT     H190089   4.096   9.615   0.140
29949WAT     H290090   4.252   9.566   0.134
29950WAT      O90091   1.159   1.257   1.203
29950WAT     H190092   1.209   1.171   1.198
29950WAT     H290093   1.208   1.321   1.261
29951WAT      O90094   4.117   0.087   5.053
29951WAT     H190095   4.062   0.006   5.072
29951WAT     H290096   4.131   0.096   4.955
29952WAT      O90097   8.214   4.115   7.000
29952WAT     H190098   8.305   4.099   7.039
29952WAT     H290099   8.192   4.213   7.008
29953WAT      O90100   5.147   9.306   7.292
29953WAT     H190101   5.075   9.268   7.235
29953WAT     H290102   5.225   9.243   7.293
29954WAT      O90103   1.682   0.834   2.488
29954WAT     H190104   1.642   0.826   2.397
29954WAT     H290105   1.630   0.778   2.552
29955WAT      O90106   1.601   8.286   8.493
29955WAT     H190107   1.511   8.304   8.454
29955WAT     H290108   1.607   8.330   8.583
29956WAT      O90109   5.346   5.505   0.181
29956WAT     H190110   5.373   5.427   0.237
29956WAT     H290111   5.369   5.590   0.229
29957WAT      O90112   9.702   5.077   9.377
29957WAT     H190113   9.785   5.122   9.411
29957WAT     H290114   9.691   5.098   9.280
29958WAT      O90115   4.038   0.492   5.862
29958WAT     H190116   4.084   0.576   5.831
29958WAT     H290117   4.104   0.418   5.868
29959WAT      O90118   6.616   7.690   3.923
29959WAT     H190119   6.599   7.607   3.870
29959WAT     H290120   6.714   7.708   3.928
29960WAT      O90121   0.221   6.661   4.933
29960WAT     H190122   0.195   6.728   5.002
29960WAT     H290123   0.242   6.708   4.847
29961WAT      O90124   8.897   0.269   3.288
29961WAT     H190125   8.941   0.242   3.373
29961WAT     H290126   8.947   0.228   3.211
29962WAT      O90127   1.144   2.340   8.426
29962WAT     H190128   1.183   2.431   8.419
29962WAT     H290129   1.215   2.275   8.454
29963WAT      O90130   5.207   4.635   8.982
29963WAT     H190131   5.159   4.719   9.006
29963WAT     H290132   5.251   4.597   9.064
29964WAT      O90133   3.288   2.159   6.220
29964WAT     H190134   3.201   2.175   6.174
29964WAT     H290135   3.326   2.071   6.193
29965WAT      O90136   3.587   4.919   8.390
29965WAT     H190137   3.504   4.950   8.437
29965WAT     H290138   3.623   4.839   8.437
29966WAT      O90139   6.861   1.242   3.579
29966WAT     H190140   6.821   1.176   3.516
29966WAT     H290141   6.918   1.194   3.646
29967WAT      O90142   9.292   9.443   6.406
29967WAT     H190143   9.342   9.484   6.330
29967WAT     H290144   9.223   9.380   6.371
29968WAT      O90145   1.940   6.771   0.561
29968WAT     H190146   1.847   6.734   0.572
29968WAT     H290147   1.934   6.870   0.545
29969WAT      O90148   8.413   1.258   7.288
29969WAT     H190149   8.418   1.353   7.258
29969WAT     H290150   8.506   1.221   7.296
29970WAT      O90151   4.190   7.219   5.356
29970WAT     H190152   4.255   7.269   5.415
29970WAT     H290153   4.215   7.122   5.355
29971WAT      O90154   6.985   7.240   8.942
29971WAT     H190155   7.034   7.210   9.024
29971WAT     H290156   6.896   7.277   8.968
29972WAT      O90157   8.099   7.121   1.259
29972WAT     H190158   8.115   7.023   1.270
29972WAT     H290159   8.174   7.162   1.208
29973WAT      O90160   9.099   9.638   9.801
29973WAT     H190161   9.175   9.575   9.813
29973WAT     H290162   9.085   9.655   9.704
29974WAT      O90163   3.809   7.840   2.171
29974WAT     H190164   3.808   7.763   2.108
29974WAT     H290165   3.901   7.879   2.175
29975WAT      O90166   9.029   0.903   2.346
29975WAT     H190167   9.112   0.959   2.336
29975WAT     H290168   9.032   0.854   2.433
29976WAT      O90169   7.242   7.135   9.604
29976WAT     H190170   7.234   7.046   9.558
29976WAT     H290171   7.181   7.137   9.684
29977WAT      O90172   5.667   1.113   1.152
29977WAT     H190173   5.729   1.170   1.099
29977WAT     H290174   5.576   1.116   1.112
29978WAT      O90175   9.693   1.463   5.952
29978WAT     H190176   9.671   1.395   5.882
29978WAT     H290177   9.633   1.542   5.943
29979WAT      O90178   9.642   3.983   0.846
29979WAT     H190179   9.662   3.948   0.938
29979WAT     H290180   9.672   3.916   0.779
29980WAT      O90181   5.137   3.979   6.516
29980WAT     H190182   5.141   3.981   6.616
29980WAT     H290183   5.226   4.004   6.479
29981WAT      O90184   5.860   0.446   1.631
29981WAT     H190185   5.954   0.426   1.661
29981WAT     H290186   5.818   0.362   1.597
29982WAT      O90187   7.458   4.745   9.834
29982WAT     H190188   7.483   4.828   9.784
29982WAT     H290189   7.361   4.749   9.859
29983WAT      O90190   9.314   1.787   1.897
29983WAT     H190191   9.394   1.831   1.937
29983WAT     H290192   9.243   1.855   1.882
29984WAT      O90193   4.429   8.493   0.289
29984WAT     H190194   4.333   8.482   0.313
29984WAT     H290195   4.486   8.444   0.356
29985WAT      O90196   6.577   0.468   0.823
29985WAT     H190197   6.635   0.548   0.837
29985WAT     H290198   6.634   0.390   0.799
29986WAT      O90199   4.913   3.756   7.231
29986WAT     H190200   4.969   3.704   7.167
29986WAT     H290201   4.959   3.761   7.319
29987WAT      O90202   1.408   7.030   4.361
29987WAT     H190203   1.400   7.124   4.394
29987WAT     H290204   1.499   6.995   4.380
29988WAT      O90205   8.925   7.809   0.491
29988WAT     H190206   8.930   7.869   0.411
29988WAT     H290207   8.837   7.762   0.492
29989WAT      O90208   0.354   8.490   4.149
29989WAT     H190209   0.274   8.430   4.155
29989WAT     H290210   0.348   8.560   4.220
29990WAT      O90211   2.726   9.622   2.144
29990WAT     H190212   2.813   9.652   2.184
29990WAT     H290213   2.712   9.668   2.057
29991WAT      O90214   3.779   6.061   8.467
29991WAT     H190215   3.694   6.110   8.490
29991WAT     H290216   3.769   6.018   8.378
29992WAT      O90217   9.052   8.540   9.192
29992WAT     H190218   9.042   8.471   9.263
29992WAT     H290219   9.009   8.625   9.221
29993WAT      O90220   9.831   0.659   8.037
29993WAT     H190221   9.918   0.702   8.060
29993WAT     H290222   9.848   0.580   7.977
29994WAT      O90223   3.988   0.442   8.141
29994WAT     H190224   3.923   0.516   8.161
29994WAT     H290225   4.026   0.407   8.227
29995WAT      O90226   5.073   8.359   5.085
29995WAT     H190227   5.113   8.360   4.993
29995WAT     H290228   4.982   8.400   5.082
29996WAT      O90229   1.574   7.420   0.436
29996WAT     H190230   1.628   7.398   0.517
29996WAT     H290231   1.481   7.385   0.447
29997WAT      O90232   2.181   9.606   6.149
29997WAT     H190233   2.150   9.638   6.060
29997WAT     H290234   2.251   9.668   6.184
29998WAT      O90235   2.572   8.341   6.768
29998WAT     H190236   2.607   8.422   6.721
29998WAT     H290237   2.541   8.274   6.701
29999WAT      O90238   8.341   0.697   9.734
29999WAT     H190239   8.436   0.707   9.704
29999WAT     H290240   8.281   0.744   9.669
30000WAT      O90241   0.944   5.383   1.190
30000WAT     H190242   0.930   5.481   1.176
30000WAT     H290243   0.858   5.342   1.221
30001WAT      O90244   7.469   6.110   5.185
30001WAT     H190245   7.538   6.073   5.123
30001WAT     H290246   7.514   6.149   5.265
30002WAT      O90247   2.848   7.321   5.877
30002WAT     H190248   2.867   7.294   5.971
30002WAT     H290249   2.768   7.380   5.873
30003WAT      O90250   3.638   1.521   4.023
30003WAT     H190251   3.732   1.554   4.035
30003WAT     H290252   3.580   1.561   4.094
30004WAT      O90253   1.077   5.701   9.684
30004WAT     H190254   1.140   5.769   9.719
30004WAT     H290255   1.025   5.738   9.607
30005WAT      O90256   6.131   2.676   9.076
30005WAT     H190257   6.179   2.634   8.999
30005WAT     H290258   6.157   2.631   9.161
30006WAT      O90259   5.548   1.189   5.914
30006WAT     H190260   5.456   1.173   5.951
30006WAT     H290261   5.599   1.103   5.913
30007WAT      O90262   9.496   2.279   8.017
30007WAT     H190263   9.595   2.286   8.010
30007WAT     H290264   9.469   2.289   8.112
30008WAT      O90265   0.588   7.456   2.216
30008WAT     H190266   0.647   7.399   2.274
30008WAT     H290267   0.504   7.406   2.195
30009WAT      O90268   5.950   7.918   7.427
30009WAT     H190269   5.899   7.980   7.368
30009WAT     H290270   5.912   7.826   7.420
30010WAT      O90271   6.958   0.543   7.455
30010WAT     H190272   6.977   0.641   7.455
30010WAT     H290273   6.881   0.524   7.394
30011WAT      O90274   0.119   8.267   4.116
30011WAT     H190275   0.059   8.268   4.036
30011WAT     H290276   0.157   8.175   4.128
30012WAT      O90277   5.995   2.757   2.137
30012WAT     H190278   6.026   2.843   2.097
30012WAT     H290279   6.032   2.748   2.230
30013WAT      O90280   4.801   8.488   3.998
30013WAT     H190281   4.783   8.422   3.925
30013WAT     H290282   4.891   8.529   3.985
30014WAT      O90283   3.624   6.237   7.252
30014WAT     H190284   3.595   6.145   7.227
30014WAT     H290285   3.671   6.234   7.341
30015WAT      O90286   3.744   5.827   1.591
30015WAT     H190287   3.793   5.754   1.638
30015WAT     H290288   3.728   5.801   1.496
30016WAT      O90289   0.608   3.782   6.061
30016WAT     H190290   0.631   3.835   5.980
30016WAT     H290291   0.692   3.747   6.103
30017WAT      O90292   7.510   1.893   9.601
30017WAT     H190293   7.559   1.977   9.625
30017WAT     H290294   7.420   1.916   9.564
30018WAT      O90295   6.400   2.965   4.610
30018WAT     H190296   6.396   3.035   4.539
30018WAT     H290297   6.405   3.008   4.699
30019WAT      O90298   1.079   6.997   2.536
30019WAT     H190299   0.983   6.967   2.529
30019WAT     H290300   1.101   7.057   2.459
30020WAT      O90301   0.548   9.641   4.944
30020WAT     H190302   0.462   9.609   4.983
30020WAT     H290303   0.605   9.562   4.919
30021WAT      O90304   6.733   1.092   2.025
30021WAT     H190305   6.774   1.119   1.938
30021WAT     H290306   6.799   1.041   2.080
30022WAT      O90307   0.197   0.624   9.082
30022WAT     H190308   0.139   0.691   9.036
30022WAT     H290309   0.257   0.670   9.147
30023WAT      O90310   9.369   2.272   3.766
30023WAT     H190311   9.389   2.182   3.727
30023WAT     H290312   9.438   2.295   3.835
30024WAT      O90313   1.675   3.542   4.789
30024WAT     H190314   1.770   3.512   4.779
30024WAT     H290315   1.662   3.581   4.880
30025WAT      O90316   0.490   6.897   3.000
30025WAT     H190317   0.465   6.890   3.097
30025WAT     H290318   0.432   6.964   2.955
30026WAT      O90319   3.672   4.857   5.176
30026WAT     H190320   3.609   4.909   5.234
30026WAT     H290321   3.766   4.881   5.200
30027WAT      O90322   3.504   1.379   1.755
30027WAT     H190323   3.548   1.334   1.677
30027WAT     H290324   3.462   1.465   1.725
30028WAT      O90325   7.161   3.000   5.902
30028WAT     H190326   7.124   3.072   5.961
30028WAT     H290327   7.098   2.982   5.827
30029WAT      O90328   8.223   1.346   7.515
30029WAT     H190329   8.273   1.364   7.430
30029WAT     H290330   8.288   1.320   7.587
30030WAT      O90331   9.356   3.575   7.311
30030WAT     H190332   9.320   3.625   7.390
30030WAT     H290333   9.429   3.514   7.340
30031WAT      O90334   8.832   4.596   3.991
30031WAT     H190335   8.738   4.617   3.963
30031WAT     H290336   8.887   4.579   3.909
30032WAT      O90337   0.211   6.932   0.565
30032WAT     H190338   0.226   7.017   0.616
30032WAT     H290339   0.207   6.855   0.629
30033WAT      O90340   7.188   6.605   7.008
30033WAT     H190341   7.236   6.549   7.075
30033WAT     H290342   7.152   6.547   6.935
30034WAT      O90343   3.296   0.745   9.181
30034WAT     H190344   3.345   0.762   9.095
30034WAT     H290345   3.198   0.735   9.161
30035WAT      O90346   5.189   3.157   3.163
30035WAT     H190347   5.235   3.243   3.140
30035WAT     H290348   5.140   3.123   3.082
30036WAT      O90349   4.686   4.255   3.674
30036WAT     H190350   4.588   4.256   3.657
30036WAT     H290351   4.704   4.263   3.772
30037WAT      O90352   4.372   0.826   5.951
30037WAT     H190353   4.424   0.897   5.904
30037WAT     H290354   4.324   0.770   5.883
30038WAT      O90355   2.102   2.724   3.375
30038WAT     H190356   2.181   2.690   3.426
30038WAT     H290357   2.031   2.753   3.440
30039WAT      O90358   4.152   5.974   0.441
30039WAT     H190359   4.084   5.905   0.465
30039WAT     H290360   4.119   6.029   0.364
30040WAT      O90361   9.090   5.612   3.542
30040WAT     H190362   9.180   5.597   3.583
30040WAT     H290363   9.087   5.570   3.452
30041WAT      O90364   3.742   7.296   1.959
30041WAT     H190365   3.703   7.369   1.902
30041WAT     H290366   3.728   7.318   2.055
30042WAT      O90367   4.046   5.920   1.340
30042WAT     H190368   4.116   5.853   1.314
30042WAT     H290369   4.090   5.996   1.388
30043WAT      O90370   2.884   8.208   8.147
30043WAT     H190371   2.823   8.218   8.069
30043WAT     H290372   2.838   8.243   8.229
30044WAT      O90373   6.846   4.725   4.524
30044WAT     H190374   6.927   4.780   4.544
30044WAT     H290375   6.799   4.704   4.609
30045WAT      O90376   0.315   9.476   4.526
30045WAT     H190377   0.249   9.515   4.590
30045WAT     H290378   0.407   9.507   4.550
30046WAT      O90379   1.017   1.137   0.521
30046WAT     H190380   0.954   1.159   0.596
30046WAT     H290381   1.110   1.164   0.547
30047WAT      O90382   9.782   3.437   4.489
30047WAT     H190383   9.690   3.425   4.452
30047WAT     H290384   9.833   3.500   4.430
30048WAT      O90385   3.774   9.800   6.284
30048WAT     H190386   3.805   9.752   6.203
30048WAT     H290387   3.674   9.791   6.292
30049WAT      O90388   5.266   0.749   5.274
30049WAT     H190389   5.189   0.765   5.336
30049WAT     H290390   5.261   0.812   5.198
30050WAT      O90391   1.141   0.228   1.432
30050WAT     H190392   1.059   0.175   1.454
30050WAT     H290393   1.147   0.241   1.333
30051WAT      O90394   8.580   9.593   1.128
30051WAT     H190395   8.625   9.578   1.216
30051WAT     H290396   8.483   9.570   1.135
30052WAT      O90397   7.216   4.697   7.398
30052WAT     H190398   7.129   4.675   7.440
30052WAT     H290399   7.272   4.750   7.461
30053WAT      O90400   5.052   6.495   2.509
30053WAT     H190401   5.064   6.401   2.541
30053WAT     H290402   4.977   6.538   2.561
30054WAT      O90403   9.446   9.253   2.416
30054WAT     H190404   9.363   9.208   2.452
30054WAT     H290405   9.421   9.340   2.374
30055WAT      O90406   3.581   8.942   6.338
30055WAT     H190407   3.501   8.991   6.373
30055WAT     H290408   3.639   8.915   6.415
30056WAT      O90409   2.778   8.599   8.144
30056WAT     H190410   2.731   8.513   8.122
30056WAT     H290411   2.876   8.582   8.151
30057WAT      O90412   5.434   5.204   8.882
30057WAT     H190413   5.391   5.286   8.917
30057WAT     H290414   5.516   5.184   8.935
30058WAT      O90415   7.540   0.896   5.966
30058WAT     H190416   7.549   0.908   5.867
30058WAT     H290417   7.470   0.958   6.001
30059WAT      O90418   8.434   3.399   3.381
30059WAT     H190419   8.415   3.497   3.379
30059WAT     H290420   8.374   3.355   3.449
30060WAT      O90421   9.056   7.411   9.554
30060WAT     H190422   8.990   7.487   9.554
30060WAT     H290423   9.063   7.373   9.646
30061WAT      O90424   5.923   2.792   2.947
30061WAT     H190425   5.862   2.850   3.001
30061WAT     H290426   6.003   2.845   2.919
30062WAT      O90427   7.257   3.826   6.549
30062WAT     H190428   7.265   3.870   6.638
30062WAT     H290429   7.335   3.765   6.535
30063WAT      O90430   5.885   0.376   2.403
30063WAT     H190431   5.974   0.354   2.441
30063WAT     H290432   5.896   0.415   2.311
30064WAT      O90433   2.529   4.720   3.774
30064WAT     H190434   2.533   4.673   3.686
30064WAT     H290435   2.618   4.717   3.818
30065WAT      O90436   7.929   2.311   0.548
30065WAT     H190437   7.889   2.225   0.579
30065WAT     H290438   7.930   2.377   0.624
30066WAT      O90439   7.585   6.211   1.025
30066WAT     H190440   7.539   6.259   0.950
30066WAT     H290441   7.520   6.198   1.100
30067WAT      O90442   3.694   4.962   6.366
30067WAT     H190443   3.715   5.052   6.326
30067WAT     H290444   3.666   4.899   6.293
30068WAT      O90445   9.151   5.010   1.444
30068WAT     H190446   9.064   5.052   1.419
30068WAT     H290447   9.183   4.952   1.370
30069WAT      O90448   6.366   8.217   6.521
30069WAT     H190449   6.407   8.191   6.434
30069WAT     H290450   6.439   8.244   6.585
30070WAT      O90451   0.863   9.401   7.189
30070WAT     H190452   0.948   9.431   7.146
30070WAT     H290453   0.812   9.480   7.222
30071WAT      O90454   0.308   2.846   4.363
30071WAT     H190455   0.274   2.768   4.415
30071WAT     H290456   0.407   2.840   4.354
30072WAT      O90457   7.249   4.664   8.375
30072WAT     H190458   7.170   4.724   8.389
30072WAT     H290459   7.227   4.597   8.303
30073WAT      O90460   7.889   4.697   2.113
30073WAT     H190461   7.797   4.659   2.117
30073WAT     H290462   7.936   4.679   2.200
30074WAT      O90463   7.094   0.545   2.452
30074WAT     H190464   7.015   0.602   2.473
30074WAT     H290465   7.156   0.595   2.392
30075WAT      O90466   9.406   9.822   4.463
30075WAT     H190467   9.430   9.897   4.524
30075WAT     H290468   9.312   9.792   4.482
30076WAT      O90469   7.227   4.872   0.271
30076WAT     H190470   7.294   4.830   0.333
30076WAT     H290471   7.263   4.959   0.237
30077WAT      O90472   6.113   5.535   8.429
30077WAT     H190473   6.056   5.495   8.357
30077WAT     H290474   6.068   5.616   8.466
30078WAT      O90475   0.507   0.206   9.161
30078WAT     H190476   0.422   0.259   9.164
30078WAT     H290477   0.508   0.140   9.237
30079WAT      O90478   4.179   1.933   3.515
30079WAT     H190479   4.134   1.961   3.430
30079WAT     H290480   4.187   2.012   3.576
30080WAT      O90481   6.226   4.810   7.972
30080WAT     H190482   6.249   4.713   7.972
30080WAT     H290483   6.135   4.823   7.932
30081WAT      O90484   3.667   5.080   6.644
30081WAT     H190485   3.689   5.021   6.567
30081WAT     H290486   3.749   5.096   6.699
30082WAT      O90487   8.113   0.560   4.216
30082WAT     H190488   8.051   0.634   4.190
30082WAT     H290489   8.204   0.597   4.232
30083WAT      O90490   8.808   1.664   0.935
30083WAT     H190491   8.869   1.696   1.008
30083WAT     H290492   8.750   1.739   0.904
30084WAT      O90493   1.453   2.108   2.109
30084WAT     H190494   1.531   2.050   2.086
30084WAT     H290495   1.485   2.201   2.130
30085WAT      O90496   1.407   2.031   2.948
30085WAT     H190497   1.408   1.957   2.881
30085WAT     H290498   1.423   1.994   3.039
30086WAT      O90499   8.486   9.396   1.509
30086WAT     H190500   8.394   9.436   1.507
30086WAT     H290501   8.548   9.453   1.456
30087WAT      O90502   2.533   4.283   1.227
30087WAT     H190503   2.631   4.301   1.235
30087WAT     H290504   2.497   4.330   1.146
30088WAT      O90505   1.841   5.488   7.734
30088WAT     H190506   1.873   5.573   7.693
30088WAT     H290507   1.883   5.410   7.688
30089WAT      O90508   0.446   3.498   4.532
30089WAT     H190509   0.518   3.567   4.543
30089WAT     H290510   0.480   3.409   4.564
30090WAT      O90511   3.469   6.226   2.353
30090WAT     H190512   3.471   6.144   2.411
30090WAT     H290513   3.502   6.304   2.405
30091WAT      O90514   1.955   4.937   1.104
30091WAT     H190515   1.897   4.940   1.023
30091WAT     H290516   2.044   4.899   1.080
30092WAT      O90517   6.046   4.976   8.302
30092WAT     H190518   6.033   4.972   8.401
30092WAT     H290519   6.134   4.936   8.278
30093WAT      O90520   9.212   1.243   3.235
30093WAT     H190521   9.221   1.215   3.139
30093WAT     H290522   9.177   1.167   3.288
30094WAT      O90523   8.163   8.934   6.428
30094WAT     H190524   8.084   8.896   6.380
30094WAT     H290525   8.246   8.912   6.377
30095WAT      O90526   1.595   0.777   3.622
30095WAT     H190527   1.518   0.757   3.561
30095WAT     H290528   1.657   0.842   3.577
30096WAT      O90529   0.828   6.196   2.602
30096WAT     H190530   0.839   6.203   2.701
30096WAT     H290531   0.732   6.175   2.581
30097WAT      O90532   1.658   4.635   3.898
30097WAT     H190533   1.604   4.578   3.835
30097WAT     H290534   1.658   4.730   3.864
30098WAT      O90535   9.163   7.235   0.776
30098WAT     H190536   9.260   7.236   0.752
30098WAT     H290537   9.151   7.278   0.866
30099WAT      O90538   6.314   8.340   7.681
30099WAT     H190539   6.404   8.298   7.682
30099WAT     H290540   6.246   8.272   7.653
30100WAT      O90541   7.904   8.269   4.582
30100WAT     H190542   7.875   8.206   4.653
30100WAT     H290543   7.966   8.222   4.519
30101WAT      O90544   5.225   8.655   1.329
30101WAT     H190545   5.133   8.686   1.354
30101WAT     H290546   5.252   8.579   1.389
30102WAT      O90547   1.730   9.255   3.983
30102WAT     H190548   1.772   9.304   4.060
30102WAT     H290549   1.732   9.313   3.902
30103WAT      O90550   0.145   9.573   4.706
30103WAT     H190551   0.080   9.647   4.694
30103WAT     H290552   0.143   9.541   4.801
30104WAT      O90553   7.791   2.456   9.786
30104WAT     H190554   7.799   2.408   9.698
30104WAT     H290555   7.788   2.554   9.770
30105WAT      O90556   3.071   4.177   7.950
30105WAT     H190557   3.040   4.164   8.044
30105WAT     H290558   2.992   4.169   7.888
30106WAT      O90559   8.130   6.737   5.414
30106WAT     H190560   8.041   6.732   5.460
30106WAT     H290561   8.198   6.776   5.476
30107WAT      O90562   9.036   5.020   9.476
30107WAT     H190563   9.117   5.055   9.523
30107WAT     H290564   9.064   4.952   9.408
30108WAT      O90565   0.789   2.550   0.768
30108WAT     H190566   0.769   2.532   0.672
30108WAT     H290567   0.753   2.474   0.824
30109WAT      O90568   4.874   4.457   5.483
30109WAT     H190569   4.845   4.391   5.414
30109WAT     H290570   4.798   4.477   5.545
30110WAT      O90571   3.222   3.370   8.617
30110WAT     H190572   3.169   3.325   8.545
30110WAT     H290573   3.235   3.306   8.693
30111WAT      O90574   8.050   9.596   3.763
30111WAT     H190575   8.098   9.677   3.729
30111WAT     H290576   8.016   9.613   3.855
30112WAT      O90577   0.895   2.040   3.496
30112WAT     H190578   0.891   1.971   3.568
30112WAT     H290579   0.925   2.127   3.534
30113WAT      O90580   6.585   0.751   9.624
30113WAT     H190581   6.678   0.713   9.631
30113WAT     H290582   6.558   0.752   9.528
30114WAT      O90583   3.012   5.210   1.548
30114WAT     H190584   2.990   5.287   1.489
30114WAT     H290585   3.056   5.243   1.632
30115WAT      O90586   8.064   5.283   4.354
30115WAT     H190587   7.984   5.330   4.317
30115WAT     H290588   8.096   5.331   4.435
30116WAT      O90589   3.445   7.427   3.271
30116WAT     H190590   3.512   7.501   3.274
30116WAT     H290591   3.455   7.370   3.353
30117WAT      O90592   2.074   0.172   5.573
30117WAT     H190593   2.114   0.101   5.515
30117WAT     H290594   2.031   0.241   5.516
30118WAT      O90595   0.609   9.181   0.904
30118WAT     H190596   0.696   9.213   0.941
30118WAT     H290597   0.627   9.123   0.824
30119WAT      O90598   0.517   0.817   0.920
30119WAT     H190599   0.460   0.892   0.954
30119WAT     H290600   0.460   0.754   0.868
30120WAT      O90601   8.846   2.914   8.705
30120WAT     H190602   8.858   2.822   8.741
30120WAT     H290603   8.889   2.920   8.614
30121WAT      O90604   1.273   4.540   5.074
30121WAT     H190605   1.347   4.594   5.034
30121WAT     H290606   1.227   4.593   5.145
30122WAT      O90607   7.705   1.162   0.790
30122WAT     H190608   7.750   1.076   0.766
30122WAT     H290609   7.668   1.204   0.707
30123WAT      O90610   4.802   5.130   6.634
30123WAT     H190611   4.821   5.180   6.550
30123WAT     H290612   4.814   5.192   6.712
30124WAT      O90613   3.427   8.233   7.153
30124WAT     H190614   3.502   8.274   7.205
30124WAT     H290615   3.427   8.268   7.060
30125WAT      O90616   9.397   6.279   9.587
30125WAT     H190617   9.439   6.238   9.668
30125WAT     H290618   9.447   6.362   9.562
30126WAT      O90619   8.613   0.703   4.146
30126WAT     H190620   8.578   0.633   4.084
30126WAT     H290621   8.713   0.701   4.146
30127WAT      O90622   3.981   6.759   5.819
30127WAT     H190623   4.081   6.752   5.810
30127WAT     H290624   3.957   6.850   5.853
30128WAT      O90625   2.514   5.566   6.794
30128WAT     H190626   2.502   5.600   6.701
30128WAT     H290627   2.607   5.586   6.826
30129WAT      O90628   2.467   6.310   0.134
30129WAT     H190629   2.401   6.321   0.208
30129WAT     H290630   2.531   6.237   0.158
30130WAT      O90631   0.380   6.679   2.167
30130WAT     H190632   0.404   6.668   2.263
30130WAT     H290633   0.399   6.594   2.118
30131WAT      O90634   7.021   1.167   3.796
30131WAT     H190635   7.076   1.084   3.793
30131WAT     H290636   7.079   1.246   3.816
30132WAT      O90637   3.251   8.368   5.317
30132WAT     H190638   3.268   8.394   5.222
30132WAT     H290639   3.159   8.331   5.326
30133WAT      O90640   8.155   8.890   5.693
30133WAT     H190641   8.101   8.974   5.693
30133WAT     H290642   8.198   8.877   5.604
30134WAT      O90643   0.911   5.914   6.134
30134WAT     H190644   0.865   5.989   6.087
30134WAT     H290645   0.906   5.831   6.079
30135WAT      O90646   8.471   5.029   7.576
30135WAT     H190647   8.570   5.034   7.584
30135WAT     H290648   8.446   4.942   7.532
30136WAT      O90649   4.529   6.434   8.249
30136WAT     H190650   4.518   6.431   8.149
30136WAT     H290651   4.521   6.342   8.286
30137WAT      O90652   7.908   9.312   3.040
30137WAT     H190653   7.953   9.247   2.980
30137WAT     H290654   7.831   9.267   3.087
30138WAT      O90655   5.963   4.908   6.564
30138WAT     H190656   6.000   5.001   6.561
30138WAT     H290657   6.038   4.842   6.569
30139WAT      O90658   7.500   7.826   8.469
30139WAT     H190659   7.401   7.831   8.455
30139WAT     H290660   7.545   7.802   8.383
30140WAT      O90661   1.112   2.550   4.376
30140WAT     H190662   1.039   2.491   4.411
30140WAT     H290663   1.180   2.494   4.328
30141WAT      O90664   9.881   9.452   1.986
30141WAT     H190665   9.853   9.383   1.920
30141WAT     H290666   9.825   9.444   2.069
30142WAT      O90667   3.887   0.827   5.923
30142WAT     H190668   3.931   0.835   6.012
30142WAT     H290669   3.812   0.762   5.928
30143WAT      O90670   7.122   4.171   2.968
30143WAT     H190671   7.089   4.264   2.957
30143WAT     H290672   7.057   4.119   3.024
30144WAT      O90673   4.631   0.654   6.558
30144WAT     H190674   4.729   0.671   6.572
30144WAT     H290675   4.580   0.685   6.639
30145WAT      O90676   2.423   4.574   9.553
30145WAT     H190677   2.373   4.650   9.512
30145WAT     H290678   2.500   4.609   9.606
30146WAT      O90679   4.494   3.778   4.881
30146WAT     H190680   4.554   3.787   4.802
30146WAT     H290681   4.491   3.865   4.930
30147WAT      O90682   4.843   0.350   0.212
30147WAT     H190683   4.812   0.432   0.260
30147WAT     H290684   4.804   0.348   0.120
30148WAT      O90685   6.464   6.567   3.885
30148WAT     H190686   6.477   6.492   3.951
30148WAT     H290687   6.515   6.647   3.914
30149WAT      O90688   1.387   5.883   9.202
30149WAT     H190689   1.375   5.910   9.297
30149WAT     H290690   1.305   5.836   9.170
30150WAT      O90691   1.825   0.445   6.604
30150WAT     H190692   1.733   0.408   6.592
30150WAT     H290693   1.891   0.386   6.558
30151WAT      O90694   2.806   8.434   3.850
30151WAT     H190695   2.785   8.439   3.752
30151WAT     H290696   2.829   8.525   3.884
30152WAT      O90697   9.398   0.270   7.608
30152WAT     H190698   9.346   0.333   7.551
30152WAT     H290699   9.378   0.176   7.581
30153WAT      O90700   7.237   4.580   2.672
30153WAT     H190701   7.293   4.502   2.702
30153WAT     H290702   7.296   4.658   2.654
30154WAT      O90703   1.427   8.173   9.890
30154WAT     H190704   1.519   8.182   9.929
30154WAT     H290705   1.386   8.264   9.881
30155WAT      O90706   4.438   7.770   4.004
30155WAT     H190707   4.401   7.759   3.912
30155WAT     H290708   4.370   7.816   4.061
30156WAT      O90709   9.461   3.588   4.782
30156WAT     H190710   9.475   3.669   4.839
30156WAT     H290711   9.376   3.597   4.731
30157WAT      O90712   6.283   6.919   3.255
30157WAT     H190713   6.340   6.981   3.200
30157WAT     H290714   6.231   6.859   3.194
30158WAT      O90715   1.769   0.123   5.000
30158WAT     H190716   1.699   0.101   5.069
30158WAT     H290717   1.733   0.102   4.909
30159WAT      O90718   0.640   4.219   8.138
30159WAT     H190719   0.704   4.294   8.124
30159WAT     H290720   0.549   4.255   8.159
30160WAT      O90721   5.621   2.223   2.694
30160WAT     H190722   5.576   2.278   2.624
30160WAT     H290723   5.585   2.247   2.784
30161WAT      O90724   7.288   8.844   0.284
30161WAT     H190725   7.331   8.766   0.329
30161WAT     H290726   7.235   8.896   0.351
30162WAT      O90727   2.219   6.364   9.210
30162WAT     H190728   2.284   6.403   9.275
30162WAT     H290729   2.139   6.424   9.203
30163WAT      O90730   7.806   8.132   3.007
30163WAT     H190731   7.708   8.116   3.001
30163WAT     H290732   7.837   8.115   3.100
30164WAT      O90733   0.497   0.813   4.951
30164WAT     H190734   0.431   0.876   4.992
30164WAT     H290735   0.521   0.845   4.859
30165WAT      O90736   4.887   3.342   1.593
30165WAT     H190737   4.930   3.412   1.536
30165WAT     H290738   4.849   3.270   1.535
30166WAT      O90739   0.229   1.928   5.172
30166WAT     H190740   0.192   1.979   5.095
30166WAT     H290741   0.329   1.934   5.172
30167WAT      O90742   5.382   2.491   6.708
30167WAT     H190743   5.387   2.479   6.807
30167WAT     H290744   5.339   2.410   6.667
30168WAT      O90745   3.945   7.492   3.133
30168WAT     H190746   3.952   7.526   3.227
30168WAT     H290747   3.900   7.403   3.134
30169WAT      O90748   0.120   3.194   6.229
30169WAT     H190749   0.077   3.221   6.143
30169WAT     H290750   0.199   3.137   6.209
30170WAT      O90751   5.322   4.039   9.884
30170WAT     H190752   5.273   4.024   9.970
30170WAT     H290753   5.296   3.968   9.819
30171WAT      O90754   7.491   6.888   1.872
30171WAT     H190755   7.525   6.796   1.854
30171WAT     H290756   7.442   6.922   1.791
30172WAT      O90757   7.329   9.689   0.278
30172WAT     H190758   7.333   9.755   0.352
30172WAT     H290759   7.420   9.675   0.240
30173WAT      O90760   4.247   9.245   2.327
30173WAT     H190761   4.195   9.165   2.357
30173WAT     H290762   4.184   9.314   2.292
30174WAT      O90763   2.178   5.882   9.281
30174WAT     H190764   2.250   5.899   9.214
30174WAT     H290765   2.169   5.961   9.341
30175WAT      O90766   8.896   5.165   2.174
30175WAT     H190767   8.814   5.179   2.118
30175WAT     H290768   8.869   5.136   2.266
30176WAT      O90769   3.306   1.231   1.852
30176WAT     H190770   3.314   1.190   1.942
30176WAT     H290771   3.381   1.297   1.839
30177WAT      O90772   6.839   3.896   0.902
30177WAT     H190773   6.814   3.910   0.997
30177WAT     H290774   6.756   3.884   0.847
30178WAT      O90775   5.837   1.784   0.695
30178WAT     H190776   5.911   1.716   0.693
30178WAT     H290777   5.870   1.870   0.655
30179WAT      O90778   7.893   3.168   9.771
30179WAT     H190779   7.860   3.174   9.676
30179WAT     H290780   7.910   3.260   9.805
30180WAT      O90781   2.674   2.323   4.221
30180WAT     H190782   2.646   2.359   4.132
30180WAT     H290783   2.604   2.260   4.255
30181WAT      O90784   9.008   6.146   6.901
30181WAT     H190785   9.066   6.072   6.867
30181WAT     H290786   9.037   6.232   6.859
30182WAT      O90787   2.106   6.007   2.507
30182WAT     H190788   2.058   6.094   2.497
30182WAT     H290789   2.103   5.977   2.602
30183WAT      O90790   1.569   6.500   1.197
30183WAT     H190791   1.659   6.540   1.214
30183WAT     H290792   1.573   6.446   1.112
30184WAT      O90793   4.539   3.429   4.662
30184WAT     H190794   4.442   3.434   4.687
30184WAT     H290795   4.591   3.498   4.711
30185WAT      O90796   4.412   7.889   8.475
30185WAT     H190797   4.335   7.827   8.493
30185WAT     H290798   4.376   7.980   8.453
30186WAT      O90799   7.543   0.050   1.193
30186WAT     H190800   7.616   0.007   1.141
30186WAT     H290801   7.500   0.122   1.137
30187WAT      O90802   0.586   1.284   3.200
30187WAT     H190803   0.649   1.259   3.274
30187WAT     H290804   0.529   1.205   3.178
30188WAT      O90805   7.708   7.938   6.009
30188WAT     H190806   7.633   7.929   5.944
30188WAT     H290807   7.748   7.848   6.028
30189WAT      O90808   8.396   0.843   4.690
30189WAT     H190809   8.355   0.892   4.767
30189WAT     H290810   8.494   0.861   4.688
30190WAT      O90811   3.082   0.400   9.013
30190WAT     H190812   3.162   0.408   8.954
30190WAT     H290813   3.088   0.314   9.065
30191WAT      O90814   7.453   5.534   2.198
30191WAT     H190815   7.460   5.447   2.246
30191WAT     H290816   7.437   5.518   2.101
30192WAT      O90817   5.288   6.512   0.285
30192WAT     H190818   5.210   6.548   0.234
30192WAT     H290819   5.339   6.449   0.227
30193WAT      O90820   5.601   0.727   3.953
30193WAT     H190821   5.593   0.703   4.050
30193WAT     H290822   5.617   0.644   3.900
30194WAT      O90823   1.628   2.623   5.985
30194WAT     H190824   1.649   2.528   6.009
30194WAT     H290825   1.705   2.662   5.935
30195WAT      O90826   8.883   2.169   4.385
30195WAT     H190827   8.810   2.153   4.451
30195WAT     H290828   8.927   2.257   4.404
30196WAT      O90829   3.199   3.148   7.503
30196WAT     H190830   3.256   3.224   7.534
30196WAT     H290831   3.117   3.184   7.458
30197WAT      O90832   3.843   8.247   3.372
30197WAT     H190833   3.922   8.299   3.339
30197WAT     H290834   3.772   8.246   3.301
30198WAT      O90835   9.762   5.134   6.839
30198WAT     H190836   9.777   5.231   6.820
30198WAT     H290837   9.669   5.109   6.813
30199WAT      O90838   5.562   9.195   8.260
30199WAT     H190839   5.637   9.203   8.195
30199WAT     H290840   5.595   9.153   8.345
30200WAT      O90841   7.840   4.322   5.084
30200WAT     H190842   7.861   4.412   5.122
30200WAT     H290843   7.771   4.330   5.013
30201WAT      O90844   9.524   8.607   3.031
30201WAT     H190845   9.441   8.553   3.043
30201WAT     H290846   9.569   8.620   3.119
30202WAT      O90847   2.023   3.027   1.086
30202WAT     H190848   2.101   2.987   1.133
30202WAT     H290849   2.046   3.042   0.990
30203WAT      O90850   5.296   3.471   6.065
30203WAT     H190851   5.288   3.375   6.088
30203WAT     H290852   5.370   3.513   6.119
30204WAT      O90853   1.132   7.659   7.414
30204WAT     H190854   1.059   7.635   7.349
30204WAT     H290855   1.157   7.578   7.466
30205WAT      O90856   4.242   3.105   6.355
30205WAT     H190857   4.147   3.113   6.386
30205WAT     H290858   4.301   3.160   6.415
30206WAT      O90859   1.048   0.048   6.684
30206WAT     H190860   1.012  -0.007   6.608
30206WAT     H290861   1.079  -0.013   6.757
30207WAT      O90862   0.174   6.435   5.473
30207WAT     H190863   0.100   6.484   5.520
30207WAT     H290864   0.153   6.428   5.375
30208WAT      O90865   2.983   1.649   9.384
30208WAT     H190866   3.035   1.730   9.411
30208WAT     H290867   3.046   1.576   9.360
30209WAT      O90868   9.031   4.576   6.810
30209WAT     H190869   9.099   4.552   6.741
30209WAT     H290870   8.939   4.557   6.775
30210WAT      O90871   9.096   5.830   6.399
30210WAT     H190872   9.028   5.872   6.339
30210WAT     H290873   9.120   5.740   6.365
30211WAT      O90874   3.618   6.831   1.306
30211WAT     H190875   3.575   6.831   1.396
30211WAT     H290876   3.550   6.813   1.236
30212WAT      O90877   7.463   9.049   4.478
30212WAT     H190878   7.438   9.041   4.381
30212WAT     H290879   7.512   9.135   4.493
30213WAT      O90880   6.043   7.384   3.638
30213WAT     H190881   5.955   7.431   3.633
30213WAT     H290882   6.033   7.290   3.605
30214WAT      O90883   6.680   7.057   4.594
30214WAT     H190884   6.650   7.115   4.670
30214WAT     H290885   6.780   7.048   4.595
30215WAT      O90886   3.374   3.823   1.271
30215WAT     H190887   3.332   3.806   1.183
30215WAT     H290888   3.457   3.878   1.259
30216WAT      O90889   2.632   6.003   4.440
30216WAT     H190890   2.696   6.017   4.365
30216WAT     H290891   2.683   6.002   4.527
30217WAT      O90892   8.494   5.520   3.943
30217WAT     H190893   8.419   5.476   3.993
30217WAT     H290894   8.456   5.580   3.873
30218WAT      O90895   2.897   8.517   3.536
30218WAT     H190896   2.800   8.516   3.560
30218WAT     H290897   2.921   8.605   3.495
30219WAT      O90898   8.971   9.447   2.957
30219WAT     H190899   8.928   9.535   2.977
30219WAT     H290900   8.983   9.396   3.042
30220WAT      O90901   3.253   3.335   7.696
30220WAT     H190902   3.308   3.255   7.721
30220WAT     H290903   3.311   3.415   7.692
30221WAT      O90904   7.835   6.093   6.799
30221WAT     H190905   7.872   6.139   6.880
30221WAT     H290906   7.751   6.138   6.770
30222WAT      O90907   4.157   1.917   4.584
30222WAT     H190908   4.073   1.959   4.549
30222WAT     H290909   4.187   1.965   4.666
30223WAT      O90910   6.566   2.442   0.091
30223WAT     H190911   6.593   2.471  -0.001
30223WAT     H290912   6.518   2.516   0.137
30224WAT      O90913   3.850   9.289   7.190
30224WAT     H190914   3.810   9.279   7.099
30224WAT     H290915   3.949   9.283   7.184
30225WAT      O90916   0.389   6.716   6.452
30225WAT     H190917   0.354   6.801   6.413
30225WAT     H290918   0.329   6.640   6.427
30226WAT      O90919   7.756   2.574   6.213
30226WAT     H190920   7.791   2.502   6.273
30226WAT     H290921   7.708   2.643   6.268
30227WAT      O90922   1.065   8.754   0.254
30227WAT     H190923   1.064   8.849   0.222
30227WAT     H290924   1.117   8.747   0.338
30228WAT      O90925   8.584   6.346   9.103
30228WAT     H190926   8.672   6.300   9.115
30228WAT     H290927   8.539   6.356   9.192
30229WAT      O90928   2.937   4.790   3.536
30229WAT     H190929   2.837   4.788   3.542
30229WAT     H290930   2.967   4.883   3.516
30230WAT      O90931   5.003   5.076   9.124
30230WAT     H190932   5.015   5.172   9.148
30230WAT     H290933   4.992   5.068   9.025
30231WAT      O90934   4.258   0.891   7.088
30231WAT     H190935   4.281   0.907   7.184
30231WAT     H290936   4.243   0.979   7.042
30232WAT      O90937   9.865   5.920   1.325
30232WAT     H190938   9.835   5.828   1.350
30232WAT     H290939   9.846   5.936   1.228
30233WAT      O90940   7.109   0.317   3.795
30233WAT     H190941   7.172   0.373   3.850
30233WAT     H290942   7.083   0.236   3.846
30234WAT      O90943   4.020   9.625   8.826
30234WAT     H190944   4.072   9.588   8.749
30234WAT     H290945   4.084   9.659   8.896
30235WAT      O90946   8.538   2.926   0.427
30235WAT     H190947   8.573   2.974   0.508
30235WAT     H290948   8.444   2.897   0.444
30236WAT      O90949   0.398   8.109   1.799
30236WAT     H190950   0.356   8.035   1.746
30236WAT     H290951   0.496   8.092   1.807
30237WAT      O90952   5.101   2.583   3.318
30237WAT     H190953   5.143   2.496   3.292
30237WAT     H290954   5.137   2.656   3.260
30238WAT      O90955   3.719   7.214   8.522
30238WAT     H190956   3.629   7.193   8.482
30238WAT     H290957   3.789   7.158   8.477
30239WAT      O90958   6.912   8.238   0.973
30239WAT     H190959   6.983   8.308   0.974
30239WAT     H290960   6.948   8.154   0.933
30240WAT      O90961   9.151   4.395   9.752
30240WAT     H190962   9.250   4.409   9.745
30240WAT     H290963   9.111   4.404   9.661
30241WAT      O90964   3.317   3.220   4.765
30241WAT     H190965   3.339   3.133   4.721
30241WAT     H290966   3.396   3.281   4.760
30242WAT      O90967   2.613   9.465   7.465
30242WAT     H190968   2.668   9.539   7.503
30242WAT     H290969   2.554   9.500   7.393
30243WAT      O90970   1.721   1.444   8.028
30243WAT     H190971   1.791   1.416   7.963
30243WAT     H290972   1.657   1.507   7.983
30244WAT      O90973   0.738   7.300   6.504
30244WAT     H190974   0.746   7.358   6.423
30244WAT     H290975   0.791   7.216   6.490
30245WAT      O90976   7.897   4.138   0.686
30245WAT     H190977   7.865   4.193   0.764
30245WAT     H290978   7.940   4.054   0.720
30246WAT      O90979   0.371   8.157   7.531
30246WAT     H190980   0.298   8.115   7.478
30246WAT     H290981   0.459   8.119   7.502
30247WAT      O90982   7.851   0.802   6.337
30247WAT     H190983   7.874   0.727   6.399
30247WAT     H290984   7.774   0.776   6.279
30248WAT      O90985   7.750   6.591   1.932
30248WAT     H190986   7.705   6.632   2.012
30248WAT     H290987   7.698   6.613   1.850
30249WAT      O90988   9.578   1.649   1.311
30249WAT     H190989   9.550   1.737   1.349
30249WAT     H290990   9.505   1.582   1.325
30250WAT      O90991   4.581   6.019   2.876
30250WAT     H190992   4.504   5.979   2.925
30250WAT     H290993   4.558   6.112   2.848
30251WAT      O90994   9.321   1.348   7.144
30251WAT     H190995   9.343   1.409   7.220
30251WAT     H290996   9.340   1.253   7.171
30252WAT      O90997   4.929   4.804   1.014
30252WAT     H190998   5.021   4.841   1.013
30252WAT     H290999   4.904   4.775   1.106
30253WAT      O91000   2.710   3.232   3.546
30253WAT     H191001   2.722   3.326   3.576
30253WAT     H291002   2.618   3.220   3.509
30254WAT      O91003   4.207   2.662   7.360
30254WAT     H191004   4.147   2.740   7.342
30254WAT     H291005   4.296   2.679   7.319
30255WAT      O91006   9.304   0.729   1.738
30255WAT     H191007   9.377   0.766   1.796
30255WAT     H291008   9.245   0.803   1.706
30256WAT      O91009   2.134   2.085   9.383
30256WAT     H191010   2.199   2.064   9.456
30256WAT     H291011   2.056   2.023   9.389
30257WAT      O91012   2.666   8.352   1.903
30257WAT     H191013   2.609   8.428   1.872
30257WAT     H291014   2.761   8.383   1.911
30258WAT      O91015   5.255   5.976   0.158
30258WAT     H191016   5.297   5.887   0.177
30258WAT     H291017   5.184   5.965   0.089
30259WAT      O91018   6.904   4.014   2.190
30259WAT     H191019   6.916   3.915   2.200
30259WAT     H291020   6.900   4.038   2.093
30260WAT      O91021   1.182   8.737   8.243
30260WAT     H191022   1.204   8.725   8.146
30260WAT     H291023   1.131   8.657   8.276
30261WAT      O91024   3.768   3.558   7.346
30261WAT     H191025   3.799   3.558   7.441
30261WAT     H291026   3.834   3.510   7.289
30262WAT      O91027   1.034   0.205   3.151
30262WAT     H191028   1.102   0.190   3.223
30262WAT     H291029   1.001   0.117   3.118
30263WAT      O91030   3.129   6.186   1.446
30263WAT     H191031   3.070   6.177   1.365
30263WAT     H291032   3.209   6.127   1.434
30264WAT      O91033   0.267   6.405   8.130
30264WAT     H191034   0.354   6.358   8.141
30264WAT     H291035   0.258   6.475   8.201
30265WAT      O91036   5.163   9.460   4.426
30265WAT     H191037   5.195   9.471   4.520
30265WAT     H291038   5.109   9.376   4.420
30266WAT      O91039   7.165   2.491   1.665
30266WAT     H191040   7.231   2.480   1.740
30266WAT     H291041   7.202   2.554   1.597
30267WAT      O91042   0.870   1.222   5.294
30267WAT     H191043   0.877   1.178   5.205
30267WAT     H291044   0.796   1.180   5.347
30268WAT      O91045   8.680   5.452   4.541
30268WAT     H191046   8.682   5.549   4.518
30268WAT     H291047   8.669   5.441   4.639
30269WAT      O91048   8.786   3.400   0.931
30269WAT     H191049   8.745   3.380   0.842
30269WAT     H291050   8.713   3.415   0.998
30270WAT      O91051   4.370   2.454   0.773
30270WAT     H191052   4.359   2.415   0.681
30270WAT     H291053   4.287   2.437   0.826
30271WAT      O91054   2.908   7.930   4.705
30271WAT     H191055   2.875   7.860   4.642
30271WAT     H291056   2.933   8.012   4.654
30272WAT      O91057   7.622   6.053   7.849
30272WAT     H191058   7.701   6.016   7.801
30272WAT     H291059   7.542   5.995   7.832
30273WAT      O91060   7.515   7.838   8.894
30273WAT     H191061   7.502   7.791   8.981
30273WAT     H291062   7.613   7.858   8.882
30274WAT      O91063   5.847   2.419   0.027
30274WAT     H191064   5.749   2.401   0.015
30274WAT     H291065   5.861   2.471   0.111
30275WAT      O91066   2.131   8.679   2.381
30275WAT     H191067   2.067   8.610   2.347
30275WAT     H291068   2.214   8.633   2.414
30276WAT      O91069   2.829   4.739   4.910
30276WAT     H191070   2.755   4.735   4.843
30276WAT     H291071   2.818   4.822   4.966
30277WAT      O91072   6.321   3.460   3.480
30277WAT     H191073   6.302   3.540   3.424
30277WAT     H291074   6.299   3.377   3.428
30278WAT      O91075   0.072   1.722   1.177
30278WAT     H191076   0.112   1.701   1.266
30278WAT     H291077   0.010   1.800   1.186
30279WAT      O91078   6.858   6.915   6.734
30279WAT     H191079   6.956   6.901   6.725
30279WAT     H291080   6.834   7.008   6.706
30280WAT      O91081   6.402   1.486   0.976
30280WAT     H191082   6.423   1.440   0.889
30280WAT     H291083   6.345   1.425   1.032
30281WAT      O91084   2.247   4.891   5.980
30281WAT     H191085   2.195   4.884   5.895
30281WAT     H291086   2.201   4.953   6.043
30282WAT      O91087   3.050   6.129   9.541
30282WAT     H191088   3.012   6.133   9.633
30282WAT     H291089   3.125   6.064   9.538
30283WAT      O91090   4.617   9.846   9.038
30283WAT     H191091   4.641   9.749   9.032
30283WAT     H291092   4.641   9.879   9.130
30284WAT      O91093   7.203   5.566   9.885
30284WAT     H191094   7.221   5.664   9.887
30284WAT     H291095   7.287   5.516   9.907
30285WAT      O91096   1.868   6.970   8.614
30285WAT     H191097   1.941   6.904   8.631
30285WAT     H291098   1.800   6.931   8.552
30286WAT      O91099   3.212   4.493   0.503
30286WAT     H191100   3.268   4.411   0.513
30286WAT     H291101   3.221   4.529   0.410
30287WAT      O91102   0.407   9.433   7.365
30287WAT     H191103   0.501   9.400   7.357
30287WAT     H291104   0.392   9.508   7.300
30288WAT      O91105   4.392   8.014   7.501
30288WAT     H191106   4.297   8.010   7.530
30288WAT     H291107   4.447   7.951   7.556
30289WAT      O91108   9.072   1.323   6.070
30289WAT     H191109   9.034   1.262   6.140
30289WAT     H291110   9.170   1.334   6.085
30290WAT      O91111   6.371   2.640   3.267
30290WAT     H191112   6.456   2.629   3.320
30290WAT     H291113   6.331   2.729   3.288
30291WAT      O91114   5.060   2.380   6.895
30291WAT     H191115   5.044   2.477   6.879
30291WAT     H291116   4.974   2.335   6.918
30292WAT      O91117   1.189   4.732   7.854
30292WAT     H191118   1.173   4.819   7.902
30292WAT     H291119   1.259   4.746   7.785
30293WAT      O91120   8.296   1.517   8.745
30293WAT     H191121   8.349   1.509   8.661
30293WAT     H291122   8.288   1.613   8.771
30294WAT      O91123   2.392   2.915   5.445
30294WAT     H191124   2.400   2.875   5.354
30294WAT     H291125   2.396   3.015   5.438
30295WAT      O91126   5.340   3.174   9.805
30295WAT     H191127   5.324   3.196   9.708
30295WAT     H291128   5.254   3.143   9.846
30296WAT      O91129   9.575   4.300   1.815
30296WAT     H191130   9.650   4.281   1.752
30296WAT     H291131   9.498   4.241   1.794
30297WAT      O91132   7.325   3.418   3.025
30297WAT     H191133   7.248   3.408   3.088
30297WAT     H291134   7.379   3.498   3.052
30298WAT      O91135   4.563   8.452   2.190
30298WAT     H191136   4.660   8.475   2.182
30298WAT     H291137   4.516   8.478   2.106
30299WAT      O91138   5.731   9.343   6.250
30299WAT     H191139   5.632   9.351   6.242
30299WAT     H291140   5.755   9.309   6.341
30300WAT      O91141   4.148   9.362   0.622
30300WAT     H191142   4.187   9.371   0.531
30300WAT     H291143   4.205   9.412   0.687
30301WAT      O91144   5.824   9.580   6.328
30301WAT     H191145   5.766   9.501   6.310
30301WAT     H291146   5.785   9.660   6.283
30302WAT      O91147   3.850   0.400   5.205
30302WAT     H191148   3.922   0.362   5.148
30302WAT     H291149   3.817   0.485   5.164
30303WAT      O91150   3.804   1.597   5.737
30303WAT     H191151   3.830   1.667   5.670
30303WAT     H291152   3.873   1.525   5.737
30304WAT      O91153   4.047   2.022   4.973
30304WAT     H191154   4.091   2.101   4.929
30304WAT     H291155   3.973   1.988   4.915
30305WAT      O91156   5.666   8.875   2.499
30305WAT     H191157   5.728   8.929   2.555
30305WAT     H291158   5.612   8.814   2.558
30306WAT      O91159   2.842   1.445   5.881
30306WAT     H191160   2.915   1.378   5.896
30306WAT     H291161   2.792   1.460   5.966
30307WAT      O91162   8.933   6.747   4.947
30307WAT     H191163   8.885   6.822   4.900
30307WAT     H291164   8.985   6.694   4.881
30308WAT      O91165   0.839   1.900   0.585
30308WAT     H191166   0.872   1.993   0.606
30308WAT     H291167   0.861   1.840   0.661
30309WAT      O91168   1.786   6.201   4.031
30309WAT     H191169   1.695   6.186   4.069
30309WAT     H291170   1.831   6.276   4.081
30310WAT      O91171   5.307   0.803   0.445
30310WAT     H191172   5.312   0.721   0.388
30310WAT     H291173   5.233   0.861   0.413
30311WAT      O91174   7.423   8.542   1.735
30311WAT     H191175   7.464   8.468   1.682
30311WAT     H291176   7.324   8.540   1.725
30312WAT      O91177   8.580   8.397   5.894
30312WAT     H191178   8.637   8.411   5.976
30312WAT     H291179   8.494   8.446   5.905
30313WAT      O91180   8.478   0.750   5.330
30313WAT     H191181   8.412   0.820   5.303
30313WAT     H291182   8.454   0.663   5.288
30314WAT      O91183   7.931   2.053   9.307
30314WAT     H191184   7.905   2.140   9.348
30314WAT     H291185   7.917   2.057   9.208
30315WAT      O91186   8.847   2.668   2.165
30315WAT     H191187   8.761   2.634   2.204
30315WAT     H291188   8.870   2.755   2.207
30316WAT      O91189   1.987   0.983   1.846
30316WAT     H191190   1.952   1.034   1.924
30316WAT     H291191   2.042   0.906   1.878
30317WAT      O91192   2.819   3.010   4.241
30317WAT     H191193   2.885   3.042   4.173
30317WAT     H291194   2.814   3.076   4.316
30318WAT      O91195   5.405   6.373   3.140
30318WAT     H191196   5.425   6.400   3.234
30318WAT     H291197   5.455   6.289   3.118
30319WAT      O91198   0.601   9.167   6.890
30319WAT     H191199   0.613   9.144   6.793
30319WAT     H291200   0.541   9.100   6.933
30320WAT      O91201   9.845   3.283   5.404
30320WAT     H191202   9.923   3.340   5.430
30320WAT     H291203   9.760   3.328   5.432
30321WAT      O91204   2.242   2.115   0.820
30321WAT     H191205   2.341   2.099   0.820
30321WAT     H291206   2.223   2.206   0.856
30322WAT      O91207   1.885   5.613   5.325
30322WAT     H191208   1.851   5.524   5.294
30322WAT     H291209   1.955   5.646   5.262
30323WAT      O91210   6.379   0.218   4.847
30323WAT     H191211   6.370   0.261   4.757
30323WAT     H291212   6.301   0.244   4.904
30324WAT      O91213   1.676   2.955   8.225
30324WAT     H191214   1.723   2.982   8.141
30324WAT     H291215   1.578   2.949   8.207
30325WAT      O91216   0.461   8.193   3.974
30325WAT     H191217   0.435   8.203   4.070
30325WAT     H291218   0.551   8.148   3.969
30326WAT      O91219   7.521   5.563   9.055
30326WAT     H191220   7.497   5.658   9.073
30326WAT     H291221   7.593   5.560   8.986
30327WAT      O91222   5.969   4.087   7.204
30327WAT     H191223   6.025   4.046   7.277
30327WAT     H291224   5.906   4.018   7.169
30328WAT      O91225   1.039   1.226   3.465
30328WAT     H191226   0.956   1.223   3.411
30328WAT     H291227   1.022   1.186   3.555
30329WAT      O91228   3.297   0.093   8.735
30329WAT     H191229   3.299  -0.000   8.699
30329WAT     H291230   3.301   0.090   8.835
30330WAT      O91231   1.123   9.594   1.042
30330WAT     H191232   1.178   9.628   1.117
30330WAT     H291233   1.149   9.640   0.957
30331WAT      O91234   5.153   5.281   3.529
30331WAT     H191235   5.161   5.370   3.573
30331WAT     H291236   5.129   5.294   3.433
30332WAT      O91237   3.848   3.211   0.382
30332WAT     H191238   3.845   3.191   0.284
30332WAT     H291239   3.862   3.126   0.434
30333WAT      O91240   9.435   5.388   7.662
30333WAT     H191241   9.510   5.369   7.725
30333WAT     H291242   9.357   5.425   7.712
30334WAT      O91243   0.913   6.415   4.979
30334WAT     H191244   0.937   6.511   4.963
30334WAT     H291245   0.836   6.410   5.043
30335WAT      O91246   6.867   6.565   2.523
30335WAT     H191247   6.865   6.537   2.619
30335WAT     H291248   6.884   6.485   2.465
30336WAT      O91249   3.455   8.616   7.456
30336WAT     H191250   3.495   8.599   7.546
30336WAT     H291251   3.498   8.556   7.388
30337WAT      O91252   3.906   4.460   1.378
30337WAT     H191253   3.902   4.511   1.464
30337WAT     H291254   4.000   4.430   1.361
30338WAT      O91255   9.716   3.733   6.725
30338WAT     H191256   9.814   3.730   6.743
30338WAT     H291257   9.666   3.708   6.808
30339WAT      O91258   6.663   9.380   2.863
30339WAT     H191259   6.567   9.352   2.870
30339WAT     H291260   6.684   9.448   2.932
30340WAT      O91261   9.818   5.760   5.923
30340WAT     H191262   9.799   5.761   6.022
30340WAT     H291263   9.793   5.671   5.886
30341WAT      O91264   9.127   4.645   4.638
30341WAT     H191265   9.146   4.743   4.632
30341WAT     H291266   9.120   4.607   4.545
30342WAT      O91267   3.136   7.146   0.350
30342WAT     H191268   3.158   7.214   0.419
30342WAT     H291269   3.093   7.190   0.271
30343WAT      O91270   6.424   2.976   6.205
30343WAT     H191271   6.406   3.074   6.212
30343WAT     H291272   6.438   2.952   6.109
30344WAT      O91273   8.904   6.763   5.248
30344WAT     H191274   8.914   6.792   5.153
30344WAT     H291275   8.864   6.837   5.302
30345WAT      O91276   3.196   6.000   0.788
30345WAT     H191277   3.250   5.939   0.730
30345WAT     H291278   3.131   6.050   0.731
30346WAT      O91279   1.102   3.868   6.252
30346WAT     H191280   1.063   3.793   6.199
30346WAT     H291281   1.193   3.843   6.284
30347WAT      O91282   8.171   9.535   5.974
30347WAT     H191283   8.167   9.475   5.894
30347WAT     H291284   8.263   9.574   5.981
30348WAT      O91285   5.237   6.249   0.074
30348WAT     H191286   5.251   6.155   0.107
30348WAT     H291287   5.324   6.298   0.076
30349WAT      O91288   6.729   1.315   2.555
30349WAT     H191289   6.687   1.224   2.558
30349WAT     H291290   6.765   1.332   2.463
30350WAT      O91291   5.396   7.120   6.999
30350WAT     H191292   5.312   7.068   7.010
30350WAT     H291293   5.475   7.060   7.015
30351WAT      O91294   5.249   6.310   5.616
30351WAT     H191295   5.332   6.312   5.561
30351WAT     H291296   5.267   6.262   5.701
30352WAT      O91297   4.521   9.832   7.552
30352WAT     H191298   4.572   9.850   7.635
30352WAT     H291299   4.469   9.747   7.562
30353WAT      O91300   1.255   8.861   9.575
30353WAT     H191301   1.182   8.793   9.569
30353WAT     H291302   1.314   8.854   9.495
30354WAT      O91303   0.026   5.637   0.356
30354WAT     H191304   0.035   5.692   0.274
30354WAT     H291305  -0.015   5.548   0.333
30355WAT      O91306   9.737   8.666   7.269
30355WAT     H191307   9.772   8.722   7.344
30355WAT     H291308   9.638   8.661   7.275
30356WAT      O91309   1.225   1.796   0.472
30356WAT     H191310   1.304   1.824   0.418
30356WAT     H291311   1.229   1.698   0.488
30357WAT      O91312   9.436   2.685   8.307
30357WAT     H191313   9.454   2.749   8.381
30357WAT     H291314   9.513   2.622   8.298
30358WAT      O91315   8.318   7.359   4.537
30358WAT     H191316   8.389   7.423   4.566
30358WAT     H291317   8.299   7.295   4.612
30359WAT      O91318   3.550   7.374   8.270
30359WAT     H191319   3.456   7.402   8.293
30359WAT     H291320   3.553   7.345   8.175
30360WAT      O91321   9.646   2.162   7.202
30360WAT     H191322   9.703   2.085   7.228
30360WAT     H291323   9.651   2.233   7.272
30361WAT      O91324   0.382   4.224   4.084
30361WAT     H191325   0.353   4.319   4.074
30361WAT     H291326   0.308   4.164   4.056
30362WAT      O91327   3.722   6.978   7.223
30362WAT     H191328   3.738   6.985   7.321
30362WAT     H291329   3.642   6.921   7.206
30363WAT      O91330   2.118   9.017   4.174
30363WAT     H191331   2.131   8.927   4.131
30363WAT     H291332   2.020   9.035   4.184
30364WAT      O91333   9.045   5.267   3.692
30364WAT     H191334   9.139   5.267   3.726
30364WAT     H291335   9.032   5.188   3.632
30365WAT      O91336   9.678   0.991   0.459
30365WAT     H191337   9.695   0.900   0.423
30365WAT     H291338   9.583   0.998   0.490
30366WAT      O91339   9.135   6.279   8.193
30366WAT     H191340   9.192   6.202   8.222
30366WAT     H291341   9.055   6.285   8.253
30367WAT      O91342   8.250   7.062   5.683
30367WAT     H191343   8.225   7.064   5.779
30367WAT     H291344   8.167   7.053   5.627
30368WAT      O91345   7.474   9.434   2.983
30368WAT     H191346   7.523   9.407   3.065
30368WAT     H291347   7.393   9.486   3.008
30369WAT      O91348   7.242   6.867   7.453
30369WAT     H191349   7.178   6.793   7.473
30369WAT     H291350   7.300   6.884   7.534
30370WAT      O91351   7.575   3.078   4.786
30370WAT     H191352   7.509   3.148   4.816
30370WAT     H291353   7.630   3.115   4.712
30371WAT      O91354   3.008   2.845   4.385
30371WAT     H191355   2.955   2.930   4.380
30371WAT     H291356   3.004   2.798   4.296
30372WAT      O91357   8.294   3.997   1.808
30372WAT     H191358   8.215   4.016   1.750
30372WAT     H291359   8.270   4.014   1.903
30373WAT      O91360   9.494   2.802   3.453
30373WAT     H191361   9.420   2.739   3.428
30373WAT     H291362   9.582   2.758   3.437
30374WAT      O91363   4.648   1.246   3.267
30374WAT     H191364   4.660   1.146   3.268
30374WAT     H291365   4.576   1.270   3.202
30375WAT      O91366   2.960   5.638   1.529
30375WAT     H191367   2.977   5.725   1.483
30375WAT     H291368   2.961   5.563   1.462
30376WAT      O91369   0.701   2.061   6.715
30376WAT     H191370   0.782   2.014   6.751
30376WAT     H291371   0.728   2.149   6.676
30377WAT      O91372   6.772   5.363   4.483
30377WAT     H191373   6.860   5.352   4.437
30377WAT     H291374   6.746   5.277   4.526
30378WAT      O91375   4.101   5.866   7.218
30378WAT     H191376   4.103   5.927   7.297
30378WAT     H291377   4.182   5.883   7.161
30379WAT      O91378   0.728   4.270   7.511
30379WAT     H191379   0.631   4.280   7.532
30379WAT     H291380   0.745   4.298   7.416
30380WAT      O91381   3.267   7.400   0.906
30380WAT     H191382   3.287   7.439   0.997
30380WAT     H291383   3.171   7.373   0.902
30381WAT      O91384   7.379   5.167   1.344
30381WAT     H191385   7.477   5.174   1.360
30381WAT     H291386   7.336   5.117   1.419
30382WAT      O91387   2.629   4.273   6.474
30382WAT     H191388   2.608   4.218   6.555
30382WAT     H291389   2.679   4.355   6.501
30383WAT      O91390   2.347   1.971   7.642
30383WAT     H191391   2.441   2.002   7.636
30383WAT     H291392   2.285   2.047   7.619
30384WAT      O91393   4.096   2.628   3.161
30384WAT     H191394   4.083   2.530   3.176
30384WAT     H291395   4.054   2.654   3.075
30385WAT      O91396   0.661   7.928   5.287
30385WAT     H191397   0.752   7.936   5.247
30385WAT     H291398   0.608   7.862   5.235
30386WAT      O91399   8.622   9.761   6.978
30386WAT     H191400   8.624   9.786   6.882
30386WAT     H291401   8.531   9.777   7.016
30387WAT      O91402   4.920   2.436   2.747
30387WAT     H191403   4.934   2.523   2.700
30387WAT     H291404   4.924   2.451   2.846
30388WAT      O91405   0.564   6.727   8.810
30388WAT     H191406   0.631   6.788   8.767
30388WAT     H291407   0.605   6.685   8.891
30389WAT      O91408   9.845   3.386   6.594
30389WAT     H191409   9.892   3.412   6.678
30389WAT     H291410   9.747   3.402   6.604
30390WAT      O91411   8.313   7.669   9.302
30390WAT     H191412   8.309   7.764   9.271
30390WAT     H291413   8.369   7.615   9.239
30391WAT      O91414   8.903   7.949   4.297
30391WAT     H191415   8.858   7.952   4.386
30391WAT     H291416   8.885   7.860   4.254
30392WAT      O91417   6.294   4.562   0.394
30392WAT     H191418   6.253   4.646   0.357
30392WAT     H291419   6.353   4.585   0.471
30393WAT      O91420   9.692   5.907   4.504
30393WAT     H191421   9.733   5.992   4.537
30393WAT     H291422   9.732   5.829   4.552
30394WAT      O91423   9.056   4.763   7.017
30394WAT     H191424   9.124   4.740   7.088
30394WAT     H291425   9.068   4.703   6.939
30395WAT      O91426   1.429   4.069   4.721
30395WAT     H191427   1.464   4.162   4.730
30395WAT     H291428   1.369   4.048   4.797
30396WAT      O91429   9.373   2.627   3.004
30396WAT     H191430   9.367   2.716   2.960
30396WAT     H291431   9.462   2.618   3.049
30397WAT      O91432   0.115   8.369   7.456
30397WAT     H191433   0.091   8.320   7.540
30397WAT     H291434   0.131   8.304   7.382
30398WAT      O91435   7.457   4.891   3.289
30398WAT     H191436   7.498   4.863   3.376
30398WAT     H291437   7.524   4.942   3.235
30399WAT      O91438   8.222   4.912   8.402
30399WAT     H191439   8.244   4.839   8.467
30399WAT     H291440   8.281   4.904   8.322
30400WAT      O91441   0.808   3.189   0.244
30400WAT     H191442   0.829   3.217   0.151
30400WAT     H291443   0.875   3.228   0.307
30401WAT      O91444   6.367   7.095   4.765
30401WAT     H191445   6.347   7.044   4.849
30401WAT     H291446   6.453   7.145   4.777
30402WAT      O91447   7.641   8.418   7.591
30402WAT     H191448   7.669   8.347   7.655
30402WAT     H291449   7.546   8.404   7.564
30403WAT      O91450   4.525   7.182   5.239
30403WAT     H191451   4.531   7.170   5.140
30403WAT     H291452   4.599   7.132   5.283
30404WAT      O91453   2.306   4.255   4.921
30404WAT     H191454   2.230   4.199   4.952
30404WAT     H291455   2.360   4.203   4.854
30405WAT      O91456   0.683   7.132   3.409
30405WAT     H191457   0.666   7.231   3.416
30405WAT     H291458   0.712   7.109   3.317
30406WAT      O91459   1.855   3.245   0.512
30406WAT     H191460   1.880   3.191   0.592
30406WAT     H291461   1.819   3.184   0.441
30407WAT      O91462   5.026   7.722   7.426
30407WAT     H191463   4.995   7.628   7.419
30407WAT     H291464   5.030   7.763   7.334
30408WAT      O91465   8.159   4.522   9.373
30408WAT     H191466   8.256   4.540   9.354
30408WAT     H291467   8.141   4.424   9.366
30409WAT      O91468   0.666   1.012   5.036
30409WAT     H191469   0.743   1.010   4.972
30409WAT     H291470   0.609   0.932   5.022
30410WAT      O91471   7.801   1.285   5.138
30410WAT     H191472   7.858   1.348   5.190
30410WAT     H291473   7.728   1.336   5.093
30411WAT      O91474   8.391   8.339   1.327
30411WAT     H191475   8.417   8.245   1.308
30411WAT     H291476   8.403   8.358   1.424
30412WAT      O91477   5.355   1.745   1.295
30412WAT     H191478   5.409   1.689   1.357
30412WAT     H291479   5.317   1.823   1.345
30413WAT      O91480   8.896   3.485   7.208
30413WAT     H191481   8.906   3.584   7.219
30413WAT     H291482   8.980   3.440   7.237
30414WAT      O91483   6.331   8.905   1.766
30414WAT     H191484   6.373   8.843   1.831
30414WAT     H291485   6.232   8.908   1.783
30415WAT      O91486   4.577   5.019   1.567
30415WAT     H191487   4.559   4.929   1.606
30415WAT     H291488   4.539   5.090   1.626
30416WAT      O91489   2.671   1.026   2.007
30416WAT     H191490   2.745   1.083   1.971
30416WAT     H291491   2.655   1.049   2.103
30417WAT      O91492   1.009   6.678   2.299
30417WAT     H191493   0.919   6.650   2.331
30417WAT     H291494   1.009   6.775   2.277
30418WAT      O91495   7.671   3.112   3.444
30418WAT     H191496   7.617   3.040   3.402
30418WAT     H291497   7.628   3.142   3.529
30419WAT      O91498   2.207   1.929   7.878
30419WAT     H191499   2.267   1.962   7.805
30419WAT     H291500   2.262   1.887   7.950
30420WAT      O91501   7.621   5.131   8.712
30420WAT     H191502   7.589   5.045   8.672
30420WAT     H291503   7.586   5.207   8.658
30421WAT      O91504   3.155   1.784   4.530
30421WAT     H191505   3.089   1.760   4.601
30421WAT     H291506   3.124   1.866   4.482
30422WAT      O91507   5.133   6.342   3.925
30422WAT     H191508   5.196   6.296   3.989
30422WAT     H291509   5.084   6.414   3.973
30423WAT      O91510   9.717   5.437   8.126
30423WAT     H191511   9.807   5.478   8.140
30423WAT     H291512   9.649   5.510   8.114
30424WAT      O91513   7.825   3.957   7.788
30424WAT     H191514   7.897   3.993   7.847
30424WAT     H291515   7.778   4.033   7.743
30425WAT      O91516   4.312   0.461   8.336
30425WAT     H191517   4.383   0.481   8.404
30425WAT     H291518   4.342   0.385   8.278
30426WAT      O91519   3.183   0.322   2.400
30426WAT     H191520   3.246   0.271   2.458
30426WAT     H291521   3.144   0.398   2.452
30427WAT      O91522   9.562   4.254   0.509
30427WAT     H191523   9.598   4.199   0.434
30427WAT     H291524   9.620   4.242   0.590
30428WAT      O91525   6.296   7.120   8.417
30428WAT     H191526   6.357   7.088   8.345
30428WAT     H291527   6.251   7.205   8.388
30429WAT      O91528   6.788   4.757   5.124
30429WAT     H191529   6.762   4.665   5.152
30429WAT     H291530   6.857   4.793   5.186
30430WAT      O91531   8.055   4.339   3.818
30430WAT     H191532   8.060   4.435   3.844
30430WAT     H291533   8.019   4.285   3.894
30431WAT      O91534   2.905   1.854   5.744
30431WAT     H191535   2.958   1.780   5.786
30431WAT     H291536   2.911   1.936   5.800
30432WAT      O91537   4.651   7.345   4.018
30432WAT     H191538   4.707   7.273   4.058
30432WAT     H291539   4.569   7.358   4.073
30433WAT      O91540   3.429   2.956   1.876
30433WAT     H191541   3.434   2.869   1.926
30433WAT     H291542   3.430   2.938   1.777
30434WAT      O91543   1.096   6.108   1.531
30434WAT     H191544   1.196   6.110   1.524
30434WAT     H291545   1.056   6.156   1.452
30435WAT      O91546   6.015   4.570   7.953
30435WAT     H191547   5.967   4.647   7.911
30435WAT     H291548   6.112   4.593   7.962
30436WAT      O91549   4.103   7.908   7.569
30436WAT     H191550   4.005   7.925   7.560
30436WAT     H291551   4.141   7.972   7.636
30437WAT      O91552   4.062   6.939   7.297
30437WAT     H191553   3.965   6.924   7.276
30437WAT     H291554   4.090   6.878   7.371
30438WAT      O91555   6.519   6.275   3.788
30438WAT     H191556   6.517   6.242   3.882
30438WAT     H291557   6.469   6.362   3.782
30439WAT      O91558   0.772   4.748   0.456
30439WAT     H191559   0.731   4.787   0.539
30439WAT     H291560   0.711   4.765   0.379
30440WAT      O91561   2.386   1.562   2.711
30440WAT     H191562   2.381   1.462   2.704
30440WAT     H291563   2.482   1.591   2.705
30441WAT      O91564   1.295   6.572   3.952
30441WAT     H191565   1.256   6.578   4.044
30441WAT     H291566   1.258   6.647   3.896
30442WAT      O91567   1.108   5.830   1.474
30442WAT     H191568   1.126   5.809   1.378
30442WAT     H291569   1.068   5.921   1.481
30443WAT      O91570   9.804   0.601   2.207
30443WAT     H191571   9.715   0.639   2.181
30443WAT     H291572   9.818   0.514   2.161
30444WAT      O91573   9.805   1.708   8.021
30444WAT     H191574   9.736   1.780   8.022
30444WAT     H291575   9.879   1.732   8.084
30445WAT      O91576   3.321   7.942   0.865
30445WAT     H191577   3.365   8.032   0.863
30445WAT     H291578   3.266   7.934   0.948
30446WAT      O91579   1.139   2.048   8.657
30446WAT     H191580   1.061   2.101   8.690
30446WAT     H291581   1.190   2.101   8.590
30447WAT      O91582   6.255   8.483   0.866
30447WAT     H191583   6.169   8.445   0.900
30447WAT     H291584   6.260   8.580   0.889
30448WAT      O91585   4.454   9.166   4.445
30448WAT     H191586   4.528   9.099   4.434
30448WAT     H291587   4.369   9.127   4.411
30449WAT      O91588   1.280   9.474   1.389
30449WAT     H191589   1.219   9.545   1.354
30449WAT     H291590   1.256   9.386   1.348
30450WAT      O91591   9.084   2.315   0.890
30450WAT     H191592   9.063   2.411   0.910
30450WAT     H291593   9.093   2.303   0.791
30451WAT      O91594   2.372   6.552   6.479
30451WAT     H191595   2.334   6.614   6.411
30451WAT     H291596   2.306   6.539   6.553
30452WAT      O91597   4.403   7.789   2.821
30452WAT     H191598   4.461   7.738   2.758
30452WAT     H291599   4.335   7.841   2.769
30453WAT      O91600   1.712   5.322   2.308
30453WAT     H191601   1.654   5.397   2.279
30453WAT     H291602   1.660   5.237   2.306
30454WAT      O91603   0.764   7.719   6.023
30454WAT     H191604   0.712   7.644   6.064
30454WAT     H291605   0.857   7.720   6.061
30455WAT      O91606   6.164   3.096   8.527
30455WAT     H191607   6.134   3.001   8.540
30455WAT     H291608   6.191   3.135   8.615
30456WAT      O91609   1.700   0.990   3.157
30456WAT     H191610   1.655   0.904   3.134
30456WAT     H291611   1.644   1.041   3.221
30457WAT      O91612   1.335   7.423   6.465
30457WAT     H191613   1.360   7.402   6.560
30457WAT     H291614   1.236   7.427   6.457
30458WAT      O91615   6.004   8.346   5.427
30458WAT     H191616   6.016   8.320   5.331
30458WAT     H291617   6.090   8.382   5.463
30459WAT      O91618   8.868   7.731   1.295
30459WAT     H191619   8.869   7.635   1.323
30459WAT     H291620   8.940   7.748   1.229
30460WAT      O91621   8.016   2.802   6.411
30460WAT     H191622   8.056   2.893   6.416
30460WAT     H291623   8.076   2.741   6.359
30461WAT      O91624   1.218   3.182   0.895
30461WAT     H191625   1.276   3.124   0.953
30461WAT     H291626   1.265   3.201   0.809
30462WAT      O91627   0.457   4.820   9.099
30462WAT     H191628   0.535   4.883   9.101
30462WAT     H291629   0.415   4.823   9.008
30463WAT      O91630   0.316   6.544   1.099
30463WAT     H191631   0.365   6.610   1.042
30463WAT     H291632   0.380   6.500   1.162
30464WAT      O91633   0.009   0.590   0.529
30464WAT     H191634   0.028   0.514   0.591
30464WAT     H291635   0.070   0.666   0.550
30465WAT      O91636   5.223   3.790   9.305
30465WAT     H191637   5.260   3.698   9.317
30465WAT     H291638   5.215   3.811   9.208
30466WAT      O91639   8.355   4.307   2.249
30466WAT     H191640   8.321   4.260   2.331
30466WAT     H291641   8.291   4.292   2.174
30467WAT      O91642   0.478   0.612   7.353
30467WAT     H191643   0.522   0.567   7.276
30467WAT     H291644   0.548   0.646   7.416
30468WAT      O91645   7.192   5.661   8.253
30468WAT     H191646   7.160   5.568   8.268
30468WAT     H291647   7.281   5.660   8.207
30469WAT      O91648   9.416   9.672   8.620
30469WAT     H191649   9.427   9.710   8.713
30469WAT     H291650   9.499   9.620   8.596
30470WAT      O91651   7.348   1.891   6.848
30470WAT     H191652   7.435   1.872   6.802
30470WAT     H291653   7.281   1.820   6.824
30471WAT      O91654   7.090   1.222   0.350
30471WAT     H191655   7.189   1.216   0.362
30471WAT     H291656   7.063   1.171   0.268
30472WAT      O91657   4.874   3.949   9.155
30472WAT     H191658   4.906   3.961   9.249
30472WAT     H291659   4.843   4.037   9.119
30473WAT      O91660   5.063   8.499   3.339
30473WAT     H191661   4.987   8.436   3.356
30473WAT     H291662   5.029   8.585   3.301
30474WAT      O91663   8.421   9.007   5.089
30474WAT     H191664   8.328   9.042   5.103
30474WAT     H291665   8.482   9.083   5.069
30475WAT      O91666   1.722   0.057   7.159
30475WAT     H191667   1.791   0.105   7.213
30475WAT     H291668   1.766  -0.004   7.093
30476WAT      O91669   9.010   9.407   2.568
30476WAT     H191670   9.072   9.485   2.570
30476WAT     H291671   8.918   9.436   2.593
30477WAT      O91672   2.343   3.696   3.309
30477WAT     H191673   2.353   3.621   3.374
30477WAT     H291674   2.316   3.779   3.358
30478WAT      O91675   2.501   2.137   6.809
30478WAT     H191676   2.463   2.093   6.890
30478WAT     H291677   2.453   2.223   6.793
30479WAT      O91678   3.560   8.332   3.816
30479WAT     H191679   3.605   8.306   3.730
30479WAT     H291680   3.514   8.252   3.854
30480WAT      O91681   6.019   8.391   0.915
30480WAT     H191682   6.005   8.295   0.892
30480WAT     H291683   5.999   8.448   0.835
30481WAT      O91684   6.862   4.599   5.631
30481WAT     H191685   6.811   4.572   5.713
30481WAT     H291686   6.936   4.533   5.615
30482WAT      O91687   1.251   2.948   3.407
30482WAT     H191688   1.275   3.044   3.415
30482WAT     H291689   1.296   2.896   3.479
30483WAT      O91690   6.261   8.922   8.180
30483WAT     H191691   6.161   8.924   8.187
30483WAT     H291692   6.290   8.964   8.094
30484WAT      O91693   2.762   8.276   7.616
30484WAT     H191694   2.727   8.193   7.571
30484WAT     H291695   2.836   8.315   7.562
30485WAT      O91696   2.647   8.454   7.781
30485WAT     H191697   2.693   8.385   7.725
30485WAT     H291698   2.649   8.425   7.877
30486WAT      O91699   8.047   7.466   9.299
30486WAT     H191700   8.062   7.418   9.213
30486WAT     H291701   8.102   7.549   9.301
30487WAT      O91702   7.911   3.296   1.389
30487WAT     H191703   7.833   3.234   1.399
30487WAT     H291704   7.987   3.263   1.445
30488WAT      O91705   6.395   0.267   6.854
30488WAT     H191706   6.374   0.170   6.837
30488WAT     H291707   6.445   0.304   6.776
30489WAT      O91708   3.283   8.089   8.196
30489WAT     H191709   3.356   8.029   8.228
30489WAT     H291710   3.194   8.053   8.227
30490WAT      O91711   0.956   1.776   2.427
30490WAT     H191712   0.922   1.738   2.341
30490WAT     H291713   0.981   1.702   2.489
30491WAT      O91714   6.319   7.307   8.052
30491WAT     H191715   6.415   7.294   8.030
30491WAT     H291716   6.270   7.220   8.042
30492WAT      O91717   0.443   3.852   3.396
30492WAT     H191718   0.470   3.784   3.464
30492WAT     H291719   0.372   3.813   3.337
30493WAT      O91720   4.754   3.901   5.028
30493WAT     H191721   4.744   3.933   4.934
30493WAT     H291722   4.691   3.951   5.087
30494WAT      O91723   2.339   1.936   4.930
30494WAT     H191724   2.412   1.889   4.880
30494WAT     H291725   2.274   1.974   4.865
30495WAT      O91726   9.553   7.376   3.813
30495WAT     H191727   9.470   7.432   3.814
30495WAT     H291728   9.529   7.280   3.831
30496WAT      O91729   9.306   7.941   0.269
30496WAT     H191730   9.248   7.995   0.330
30496WAT     H291731   9.310   7.847   0.302
30497WAT      O91732   5.682   3.520   9.721
30497WAT     H191733   5.642   3.588   9.782
30497WAT     H291734   5.610   3.468   9.676
30498WAT      O91735   3.480   4.809   2.743
30498WAT     H191736   3.577   4.810   2.770
30498WAT     H291737   3.431   4.743   2.801
30499WAT      O91738   0.021   2.332   9.044
30499WAT     H191739   0.014   2.423   9.006
30499WAT     H291740   0.117   2.302   9.043
30500WAT      O91741   3.444   7.184   1.154
30500WAT     H191742   3.490   7.262   1.111
30500WAT     H291743   3.456   7.189   1.253
30501WAT      O91744   1.359   1.839   7.463
30501WAT     H191745   1.338   1.745   7.492
30501WAT     H291746   1.436   1.873   7.518
30502WAT      O91747   0.775   1.422   7.181
30502WAT     H191748   0.847   1.473   7.227
30502WAT     H291749   0.766   1.455   7.087
30503WAT      O91750   6.475   9.549   0.308
30503WAT     H191751   6.462   9.536   0.406
30503WAT     H291752   6.514   9.639   0.290
30504WAT      O91753   8.357   2.496   0.411
30504WAT     H191754   8.331   2.456   0.323
30504WAT     H291755   8.441   2.549   0.400
30505WAT      O91756   2.079   6.693   9.844
30505WAT     H191757   2.115   6.786   9.851
30505WAT     H291758   2.148   6.632   9.805
30506WAT      O91759   1.225   3.992   3.791
30506WAT     H191760   1.314   4.032   3.769
30506WAT     H291761   1.228   3.894   3.775
30507WAT      O91762   6.044   2.089   1.183
30507WAT     H191763   6.105   2.132   1.250
30507WAT     H291764   6.088   2.089   1.093
30508WAT      O91765   0.933   7.025   8.204
30508WAT     H191766   0.876   7.097   8.243
30508WAT     H291767   0.882   6.978   8.132
30509WAT      O91768   5.930   9.709   8.730
30509WAT     H191769   5.971   9.762   8.656
30509WAT     H291770   6.001   9.683   8.795
30510WAT      O91771   4.239   7.641   9.140
30510WAT     H191772   4.174   7.672   9.210
30510WAT     H291773   4.331   7.639   9.178
30511WAT      O91774   3.525   3.369   4.675
30511WAT     H191775   3.617   3.395   4.645
30511WAT     H291776   3.458   3.434   4.638
30512WAT      O91777   4.576   2.515   8.700
30512WAT     H191778   4.506   2.581   8.674
30512WAT     H291779   4.575   2.501   8.799
30513WAT      O91780   7.924   0.553   6.442
30513WAT     H191781   7.895   0.544   6.538
30513WAT     H291782   7.887   0.476   6.390
30514WAT      O91783   4.814   8.771   0.354
30514WAT     H191784   4.732   8.732   0.312
30514WAT     H291785   4.788   8.823   0.436
30515WAT      O91786   9.847   3.983   2.894
30515WAT     H191787   9.792   3.958   2.973
30515WAT     H291788   9.943   3.960   2.912
30516WAT      O91789   1.932   4.298   1.655
30516WAT     H191790   1.936   4.198   1.650
30516WAT     H291791   2.020   4.336   1.625
30517WAT      O91792   2.770   0.996   3.145
30517WAT     H191793   2.783   1.028   3.239
30517WAT     H291794   2.704   0.921   3.144
30518WAT      O91795   0.873   5.484   7.422
30518WAT     H191796   0.973   5.481   7.419
30518WAT     H291797   0.838   5.397   7.456
30519WAT      O91798   8.666   1.175   6.488
30519WAT     H191799   8.583   1.136   6.526
30519WAT     H291800   8.746   1.128   6.526
30520WAT      O91801   1.396   3.346   6.561
30520WAT     H191802   1.444   3.346   6.649
30520WAT     H291803   1.459   3.317   6.489
30521WAT      O91804   6.373   5.611   9.168
30521WAT     H191805   6.363   5.703   9.128
30521WAT     H291806   6.416   5.618   9.258
30522WAT      O91807   4.409   0.351   5.362
30522WAT     H191808   4.497   0.317   5.329
30522WAT     H291809   4.336   0.288   5.335
30523WAT      O91810   9.706   8.852   4.923
30523WAT     H191811   9.685   8.832   4.828
30523WAT     H291812   9.623   8.884   4.969
30524WAT      O91813   5.645   3.895   5.569
30524WAT     H191814   5.584   3.932   5.639
30524WAT     H291815   5.662   3.799   5.587
30525WAT      O91816   3.198   5.647   8.808
30525WAT     H191817   3.250   5.663   8.892
30525WAT     H291818   3.234   5.566   8.761
30526WAT      O91819   9.213   3.153   7.055
30526WAT     H191820   9.149   3.140   7.131
30526WAT     H291821   9.288   3.087   7.064
30527WAT      O91822   0.246   9.777   9.783
30527WAT     H191823   0.305   9.857   9.789
30527WAT     H291824   0.297   9.696   9.811
30528WAT      O91825   3.586   7.982   3.007
30528WAT     H191826   3.518   7.976   3.081
30528WAT     H291827   3.614   7.890   2.980
30529WAT      O91828   7.585   0.869   4.702
30529WAT     H191829   7.661   0.828   4.651
30529WAT     H291830   7.503   0.871   4.644
30530WAT      O91831   1.907   1.797   5.412
30530WAT     H191832   1.958   1.735   5.352
30530WAT     H291833   1.970   1.846   5.471
30531WAT      O91834   7.183   9.296   1.943
30531WAT     H191835   7.249   9.309   1.868
30531WAT     H291836   7.191   9.372   2.007
30532WAT      O91837   1.330   3.028   1.984
30532WAT     H191838   1.423   3.002   2.008
30532WAT     H291839   1.331   3.082   1.900
30533WAT      O91840   1.294   6.193   9.755
30533WAT     H191841   1.251   6.253   9.823
30533WAT     H291842   1.223   6.147   9.701
30534WAT      O91843   2.802   0.163   6.286
30534WAT     H191844   2.851   0.210   6.213
30534WAT     H291845   2.717   0.212   6.306
30535WAT      O91846   5.185   1.489   1.987
30535WAT     H191847   5.164   1.506   2.083
30535WAT     H291848   5.188   1.576   1.937
30536WAT      O91849   8.607   5.870   3.177
30536WAT     H191850   8.683   5.870   3.242
30536WAT     H291851   8.520   5.873   3.228
30537WAT      O91852   2.829   7.831   5.283
30537WAT     H191853   2.878   7.782   5.356
30537WAT     H291854   2.737   7.794   5.275
30538WAT      O91855   3.653   7.291   0.993
30538WAT     H191856   3.695   7.381   1.002
30538WAT     H291857   3.687   7.231   1.066
30539WAT      O91858   3.781   1.335   9.872
30539WAT     H191859   3.840   1.357   9.951
30539WAT     H291860   3.825   1.367   9.788
30540WAT      O91861   9.449   4.231   4.079
30540WAT     H191862   9.484   4.165   4.145
30540WAT     H291863   9.518   4.303   4.064
30541WAT      O91864   0.923   0.716   5.507
30541WAT     H191865   0.925   0.756   5.598
30541WAT     H291866   0.831   0.723   5.469
30542WAT      O91867   7.316   1.250   1.257
30542WAT     H191868   7.394   1.269   1.197
30542WAT     H291869   7.339   1.177   1.321
30543WAT      O91870   1.212   3.066   5.893
30543WAT     H191871   1.225   2.974   5.857
30543WAT     H291872   1.129   3.106   5.854
30544WAT      O91873   1.286   5.728   3.265
30544WAT     H191874   1.275   5.785   3.184
30544WAT     H291875   1.283   5.786   3.347
30545WAT      O91876   4.700   3.478   8.093
30545WAT     H191877   4.770   3.458   8.162
30545WAT     H291878   4.727   3.560   8.042
30546WAT      O91879   1.420   1.616   3.153
30546WAT     H191880   1.378   1.593   3.066
30546WAT     H291881   1.426   1.716   3.162
30547WAT      O91882   5.117   6.110   2.845
30547WAT     H191883   5.145   6.200   2.811
30547WAT     H291884   5.025   6.089   2.813
30548WAT      O91885   9.374   4.954   6.359
30548WAT     H191886   9.420   4.987   6.441
30548WAT     H291887   9.294   4.900   6.385
30549WAT      O91888   3.035   1.016   0.586
30549WAT     H191889   3.104   0.944   0.601
30549WAT     H291890   3.059   1.097   0.640
30550WAT      O91891   4.132   1.065   9.620
30550WAT     H191892   4.038   1.094   9.636
30550WAT     H291893   4.135   0.966   9.610
30551WAT      O91894   6.671   6.262   9.201
30551WAT     H191895   6.579   6.270   9.240
30551WAT     H291896   6.715   6.351   9.200
30552WAT      O91897   2.513   9.401   5.518
30552WAT     H191898   2.486   9.374   5.610
30552WAT     H291899   2.462   9.483   5.491
30553WAT      O91900   4.040   1.012   4.369
30553WAT     H191901   4.045   0.916   4.340
30553WAT     H291902   3.946   1.034   4.395
30554WAT      O91903   4.120   0.378   1.326
30554WAT     H191904   4.137   0.375   1.227
30554WAT     H291905   4.026   0.352   1.345
30555WAT      O91906   9.552   7.087   8.963
30555WAT     H191907   9.482   7.157   8.952
30555WAT     H291908   9.509   6.997   8.967
30556WAT      O91909   3.142   2.443   2.237
30556WAT     H191910   3.067   2.439   2.303
30556WAT     H291911   3.189   2.354   2.236
30557WAT      O91912   2.289   7.955   1.126
30557WAT     H191913   2.310   7.974   1.030
30557WAT     H291914   2.364   7.904   1.167
30558WAT      O91915   6.592   6.664   5.797
30558WAT     H191916   6.504   6.616   5.802
30558WAT     H291917   6.655   6.612   5.741
30559WAT      O91918   8.416   4.391   9.301
30559WAT     H191919   8.386   4.328   9.373
30559WAT     H291920   8.383   4.359   9.212
30560WAT      O91921   0.599   7.392   3.390
30560WAT     H191922   0.513   7.430   3.356
30560WAT     H291923   0.644   7.458   3.450
30561WAT      O91924   3.043   4.994   6.845
30561WAT     H191925   2.982   4.940   6.787
30561WAT     H291926   3.124   4.939   6.867
30562WAT      O91927   3.036   3.441   2.361
30562WAT     H191928   3.038   3.428   2.262
30562WAT     H291929   3.030   3.351   2.406
30563WAT      O91930   0.094   1.537   8.213
30563WAT     H191931   0.027   1.582   8.271
30563WAT     H291932   0.170   1.599   8.195
30564WAT      O91933   7.664   5.823   6.208
30564WAT     H191934   7.701   5.896   6.266
30564WAT     H291935   7.735   5.790   6.146
30565WAT      O91936   2.422   6.398   9.753
30565WAT     H191937   2.477   6.355   9.682
30565WAT     H291938   2.423   6.341   9.835
30566WAT      O91939   9.486   5.480   2.342
30566WAT     H191940   9.575   5.478   2.388
30566WAT     H291941   9.498   5.510   2.247
30567WAT      O91942   3.210   1.916   6.433
30567WAT     H191943   3.209   1.825   6.474
30567WAT     H291944   3.196   1.909   6.335
30568WAT      O91945   8.130   6.714   8.785
30568WAT     H191946   8.164   6.641   8.725
30568WAT     H291947   8.044   6.749   8.748
30569WAT      O91948   0.433   2.215   1.667
30569WAT     H191949   0.358   2.259   1.616
30569WAT     H291950   0.520   2.250   1.634
30570WAT      O91951   1.930   1.653   2.197
30570WAT     H191952   2.014   1.605   2.172
30570WAT     H291953   1.908   1.635   2.293
30571WAT      O91954   8.526   8.268   7.153
30571WAT     H191955   8.467   8.254   7.233
30571WAT     H291956   8.617   8.297   7.184
30572WAT      O91957   2.090   4.506   5.664
30572WAT     H191958   2.114   4.537   5.756
30572WAT     H291959   2.127   4.571   5.597
30573WAT      O91960   0.715   6.780   1.428
30573WAT     H191961   0.795   6.789   1.487
30573WAT     H291962   0.729   6.832   1.343
30574WAT      O91963   8.548   4.840   4.238
30574WAT     H191964   8.635   4.791   4.246
30574WAT     H291965   8.510   4.856   4.329
30575WAT      O91966   2.284   6.351   7.156
30575WAT     H191967   2.372   6.319   7.191
30575WAT     H291968   2.234   6.397   7.229
30576WAT      O91969   5.097   9.353   8.341
30576WAT     H191970   5.140   9.387   8.425
30576WAT     H291971   5.086   9.429   8.276
30577WAT      O91972   3.598   9.385   4.055
30577WAT     H191973   3.628   9.327   4.131
30577WAT     H291974   3.498   9.390   4.054
30578WAT      O91975   0.506   5.644   5.623
30578WAT     H191976   0.546   5.675   5.709
30578WAT     H291977   0.423   5.696   5.604
30579WAT      O91978   7.467   1.692   4.628
30579WAT     H191979   7.400   1.701   4.554
30579WAT     H291980   7.559   1.702   4.591
30580WAT      O91981   5.103   5.727   2.418
30580WAT     H191982   5.031   5.659   2.404
30580WAT     H291983   5.132   5.726   2.513
30581WAT      O91984   2.251   2.309   1.061
30581WAT     H191985   2.234   2.407   1.052
30581WAT     H291986   2.347   2.294   1.085
30582WAT      O91987   5.129   2.576   8.117
30582WAT     H191988   5.035   2.610   8.123
30582WAT     H291989   5.187   2.626   8.181
30583WAT      O91990   6.644   4.632   2.138
30583WAT     H191991   6.690   4.719   2.121
30583WAT     H291992   6.621   4.626   2.236
30584WAT      O91993   6.576   8.019   0.052
30584WAT     H191994   6.500   7.974   0.099
30584WAT     H291995   6.541   8.095  -0.002
30585WAT      O91996   4.757   1.681   8.649
30585WAT     H191997   4.725   1.755   8.590
30585WAT     H291998   4.855   1.691   8.665
30586WAT      O91999   9.738   0.589   6.273
30586WAT     H192000   9.782   0.581   6.363
30586WAT     H292001   9.795   0.545   6.204
30587WAT      O92002   6.993   8.914   5.332
30587WAT     H192003   6.952   8.927   5.242
30587WAT     H292004   7.093   8.914   5.323
30588WAT      O92005   9.399   3.885   3.331
30588WAT     H192006   9.476   3.903   3.270
30588WAT     H292007   9.339   3.816   3.290
30589WAT      O92008   1.440   8.020   5.232
30589WAT     H192009   1.380   7.945   5.259
30589WAT     H292010   1.519   7.983   5.182
30590WAT      O92011   0.593   4.826   8.449
30590WAT     H192012   0.643   4.770   8.382
30590WAT     H292013   0.566   4.768   8.526
30591WAT      O92014   4.539   3.129   0.296
30591WAT     H192015   4.447   3.126   0.257
30591WAT     H292016   4.537   3.093   0.389
30592WAT      O92017   3.111   0.414   6.315
30592WAT     H192018   3.208   0.429   6.294
30592WAT     H292019   3.064   0.378   6.235
30593WAT      O92020   0.692   0.995   8.403
30593WAT     H192021   0.649   0.944   8.477
30593WAT     H292022   0.699   0.936   8.322
30594WAT      O92023   3.512   4.798   6.719
30594WAT     H192024   3.534   4.895   6.733
30594WAT     H292025   3.573   4.742   6.776
30595WAT      O92026   3.630   0.295   6.364
30595WAT     H192027   3.704   0.298   6.297
30595WAT     H292028   3.663   0.256   6.449
30596WAT      O92029   8.168   9.433   0.056
30596WAT     H192030   8.178   9.397  -0.037
30596WAT     H292031   8.081   9.482   0.062
30597WAT      O92032   2.325   4.046   7.630
30597WAT     H192033   2.306   3.953   7.596
30597WAT     H292034   2.312   4.111   7.556
30598WAT      O92035   1.339   9.324   8.827
30598WAT     H192036   1.438   9.336   8.819
30598WAT     H292037   1.293   9.376   8.755
30599WAT      O92038   4.131   8.781   5.459
30599WAT     H192039   4.042   8.822   5.437
30599WAT     H292040   4.175   8.750   5.375
30600WAT      O92041   0.612   0.351   5.709
30600WAT     H192042   0.637   0.369   5.613
30600WAT     H292043   0.537   0.286   5.711
30601WAT      O92044   4.642   1.625   3.697
30601WAT     H192045   4.694   1.691   3.643
30601WAT     H292046   4.694   1.602   3.779
30602WAT      O92047   2.316   0.036   9.202
30602WAT     H192048   2.319   0.101   9.277
30602WAT     H292049   2.278   0.080   9.121
30603WAT      O92050   4.787   6.730   4.495
30603WAT     H192051   4.845   6.657   4.532
30603WAT     H292052   4.845   6.802   4.456
30604WAT      O92053   4.105   2.605   4.465
30604WAT     H192054   4.041   2.539   4.426
30604WAT     H292055   4.140   2.569   4.551
30605WAT      O92056   4.357   5.864   0.969
30605WAT     H192057   4.456   5.861   0.964
30605WAT     H292058   4.327   5.852   1.063
30606WAT      O92059   8.815   7.238   3.396
30606WAT     H192060   8.760   7.313   3.359
30606WAT     H292061   8.774   7.151   3.369
30607WAT      O92062   0.395   8.982   5.045
30607WAT     H192063   0.302   8.957   5.073
30607WAT     H292064   0.396   8.998   4.946
30608WAT      O92065   8.623   1.751   3.424
30608WAT     H192066   8.574   1.742   3.511
30608WAT     H292067   8.593   1.679   3.362
30609WAT      O92068   5.453   4.699   0.535
30609WAT     H192069   5.446   4.619   0.475
30609WAT     H292070   5.362   4.730   0.560
30610WAT      O92071   9.447   0.948   8.720
30610WAT     H192072   9.438   0.855   8.758
30610WAT     H292073   9.529   0.991   8.758
30611WAT      O92074   2.846   5.134   7.754
30611WAT     H192075   2.767   5.196   7.750
30611WAT     H292076   2.885   5.136   7.846
30612WAT      O92077   8.992   0.744   1.141
30612WAT     H192078   8.973   0.698   1.055
30612WAT     H292079   8.926   0.714   1.210
30613WAT      O92080   9.025   4.415   8.980
30613WAT     H192081   9.085   4.471   8.923
30613WAT     H292082   8.983   4.343   8.925
30614WAT      O92083   9.097   0.764   4.666
30614WAT     H192084   9.090   0.689   4.732
30614WAT     H292085   9.193   0.785   4.649
30615WAT      O92086   7.265   7.939   2.980
30615WAT     H192087   7.342   7.890   3.020
30615WAT     H292088   7.185   7.879   2.976
30616WAT      O92089   2.813   9.762   0.814
30616WAT     H192090   2.763   9.831   0.865
30616WAT     H292091   2.751   9.718   0.748
30617WAT      O92092   8.191   8.220   3.211
30617WAT     H192093   8.271   8.162   3.228
30617WAT     H292094   8.199   8.264   3.122
30618WAT      O92095   5.717   1.319   0.781
30618WAT     H192096   5.698   1.221   0.789
30618WAT     H292097   5.709   1.362   0.871
30619WAT      O92098   2.967   2.633   0.035
30619WAT     H192099   3.000   2.588   0.117
30619WAT     H292100   2.970   2.733   0.048
30620WAT      O92101   0.279   5.442   7.425
30620WAT     H192102   0.298   5.348   7.452
30620WAT     H292103   0.329   5.463   7.341
30621WAT      O92104   4.493   4.726   7.807
30621WAT     H192105   4.577   4.701   7.760
30621WAT     H292106   4.422   4.746   7.740
30622WAT      O92107   1.874   0.593   2.734
30622WAT     H192108   1.935   0.646   2.675
30622WAT     H292109   1.923   0.565   2.816
30623WAT      O92110   1.312   4.245   9.701
30623WAT     H192111   1.410   4.261   9.686
30623WAT     H292112   1.295   4.235   9.798
30624WAT      O92113   6.753   3.165   3.306
30624WAT     H192114   6.727   3.262   3.312
30624WAT     H292115   6.852   3.158   3.292
30625WAT      O92116   8.167   9.185   7.166
30625WAT     H192117   8.236   9.123   7.205
30625WAT     H292118   8.206   9.276   7.156
30626WAT      O92119   8.276   1.370   6.689
30626WAT     H192120   8.307   1.278   6.714
30626WAT     H292121   8.194   1.393   6.743
30627WAT      O92122   2.077   3.710   3.576
30627WAT     H192123   2.107   3.740   3.667
30627WAT     H292124   2.119   3.767   3.506
30628WAT      O92125   1.493   9.833   1.519
30628WAT     H192126   1.592   9.831   1.511
30628WAT     H292127   1.466   9.891   1.595
30629WAT      O92128   3.830   6.074   8.914
30629WAT     H192129   3.815   6.031   8.825
30629WAT     H292130   3.844   6.172   8.901
30630WAT      O92131   8.514   0.427   1.802
30630WAT     H192132   8.510   0.449   1.899
30630WAT     H292133   8.434   0.465   1.756
30631WAT      O92134   1.589   7.047   8.432
30631WAT     H192135   1.670   7.105   8.421
30631WAT     H292136   1.554   7.055   8.525
30632WAT      O92137   9.782   6.597   1.771
30632WAT     H192138   9.756   6.520   1.829
30632WAT     H292139   9.879   6.618   1.785
30633WAT      O92140   7.107   0.326   8.012
30633WAT     H192141   7.025   0.316   7.957
30633WAT     H292142   7.089   0.295   8.106
30634WAT      O92143   9.645   0.515   3.480
30634WAT     H192144   9.601   0.558   3.559
30634WAT     H292145   9.734   0.559   3.465
30635WAT      O92146   0.260   7.264   7.848
30635WAT     H192147   0.294   7.177   7.812
30635WAT     H292148   0.337   7.327   7.860
30636WAT      O92149   4.699   8.610   8.985
30636WAT     H192150   4.615   8.616   8.932
30636WAT     H292151   4.775   8.646   8.932
30637WAT      O92152   5.584   8.422   4.335
30637WAT     H192153   5.660   8.381   4.386
30637WAT     H292154   5.512   8.448   4.399
30638WAT      O92155   3.635   2.787   6.652
30638WAT     H192156   3.665   2.822   6.741
30638WAT     H292157   3.675   2.697   6.637
30639WAT      O92158   7.886   3.154   6.259
30639WAT     H192159   7.897   3.156   6.160
30639WAT     H292160   7.960   3.100   6.301
30640WAT      O92161   5.206   4.855   6.386
30640WAT     H192162   5.234   4.870   6.291
30640WAT     H292163   5.240   4.930   6.443
30641WAT      O92164   3.356   5.224   5.372
30641WAT     H192165   3.264   5.222   5.412
30641WAT     H292166   3.384   5.319   5.360
30642WAT      O92167   9.304   4.042   9.523
30642WAT     H192168   9.206   4.063   9.515
30642WAT     H292169   9.317   3.943   9.522
30643WAT      O92170   4.428   3.455   7.569
30643WAT     H192171   4.344   3.478   7.521
30643WAT     H292172   4.435   3.511   7.652
30644WAT      O92173   4.160   3.489   8.097
30644WAT     H192174   4.093   3.444   8.157
30644WAT     H292175   4.169   3.436   8.013
30645WAT      O92176   0.143   3.169   1.051
30645WAT     H192177   0.186   3.218   0.975
30645WAT     H292178   0.103   3.084   1.017
30646WAT      O92179   5.573   7.609   7.298
30646WAT     H192180   5.669   7.628   7.318
30646WAT     H292181   5.515   7.662   7.359
30647WAT      O92182   4.386   6.671   6.519
30647WAT     H192183   4.386   6.738   6.594
30647WAT     H292184   4.407   6.718   6.433
30648WAT      O92185   2.635   1.800   5.667
30648WAT     H192186   2.620   1.708   5.629
30648WAT     H292187   2.725   1.804   5.710
30649WAT      O92188   7.426   0.970   3.809
30649WAT     H192189   7.455   0.990   3.902
30649WAT     H292190   7.465   0.883   3.779
30650WAT      O92191   8.285   2.384   5.361
30650WAT     H192192   8.348   2.385   5.439
30650WAT     H292193   8.233   2.469   5.359
30651WAT      O92194   5.769   0.811   5.023
30651WAT     H192195   5.749   0.723   4.980
30651WAT     H292196   5.847   0.800   5.085
30652WAT      O92197   4.718   8.164   4.894
30652WAT     H192198   4.645   8.228   4.918
30652WAT     H292199   4.796   8.215   4.858
30653WAT      O92200   9.699   5.396   6.669
30653WAT     H192201   9.640   5.475   6.650
30653WAT     H292202   9.687   5.328   6.597
30654WAT      O92203   0.467   0.614   3.697
30654WAT     H192204   0.445   0.697   3.747
30654WAT     H292205   0.566   0.606   3.687
30655WAT      O92206   0.446   6.489   1.703
30655WAT     H192207   0.373   6.542   1.662
30655WAT     H292208   0.456   6.402   1.656
30656WAT      O92209   2.160   5.825   7.470
30656WAT     H192210   2.143   5.918   7.437
30656WAT     H292211   2.252   5.797   7.442
30657WAT      O92212   6.058   1.282   8.175
30657WAT     H192213   6.050   1.378   8.201
30657WAT     H292214   6.147   1.247   8.204
30658WAT      O92215   2.425   3.643   7.681
30658WAT     H192216   2.433   3.645   7.582
30658WAT     H292217   2.364   3.716   7.712
30659WAT      O92218   3.501   9.780   7.326
30659WAT     H192219   3.432   9.833   7.277
30659WAT     H292220   3.550   9.721   7.261
30660WAT      O92221   4.352   2.426   0.285
30660WAT     H192222   4.452   2.424   0.283
30660WAT     H292223   4.320   2.379   0.367
30661WAT      O92224   0.711   8.471   5.220
30661WAT     H192225   0.727   8.408   5.144
30661WAT     H292226   0.618   8.457   5.255
30662WAT      O92227   1.544   8.640   5.793
30662WAT     H192228   1.545   8.541   5.780
30662WAT     H292229   1.634   8.678   5.771
30663WAT      O92230   4.021   8.903   5.937
30663WAT     H192231   3.994   8.999   5.947
30663WAT     H292232   3.944   8.844   5.960
30664WAT      O92233   2.800   7.773   8.701
30664WAT     H192234   2.732   7.845   8.697
30664WAT     H292235   2.857   7.785   8.782
30665WAT      O92236   5.773   8.818   9.117
30665WAT     H192237   5.833   8.894   9.143
30665WAT     H292238   5.819   8.761   9.050
30666WAT      O92239   6.443   4.896   9.489
30666WAT     H192240   6.351   4.889   9.529
30666WAT     H292241   6.437   4.942   9.401
30667WAT      O92242   0.597   8.727   8.343
30667WAT     H192243   0.669   8.665   8.312
30667WAT     H292244   0.509   8.680   8.340
30668WAT      O92245   2.442   5.046   2.411
30668WAT     H192246   2.408   4.971   2.467
30668WAT     H292247   2.374   5.070   2.342
30669WAT      O92248   4.961   5.423   3.762
30669WAT     H192249   4.986   5.518   3.744
30669WAT     H292250   5.043   5.366   3.761
30670WAT      O92251   0.923   1.423   7.698
30670WAT     H192252   0.876   1.385   7.778
30670WAT     H292253   0.904   1.521   7.692
30671WAT      O92254   2.373   0.728   2.291
30671WAT     H192255   2.293   0.715   2.350
30671WAT     H292256   2.405   0.639   2.259
30672WAT      O92257   5.671   0.865   6.268
30672WAT     H192258   5.578   0.891   6.295
30672WAT     H292259   5.684   0.885   6.171
30673WAT      O92260   1.355   8.864   9.088
30673WAT     H192261   1.369   8.765   9.088
30673WAT     H292262   1.326   8.894   8.997
30674WAT      O92263   9.372   2.193   2.971
30674WAT     H192264   9.421   2.133   2.906
30674WAT     H292265   9.314   2.256   2.920
30675WAT      O92266   1.957   6.223   2.590
30675WAT     H192267   1.876   6.199   2.643
30675WAT     H292268   2.024   6.268   2.649
30676WAT      O92269   1.565   4.397   3.719
30676WAT     H192270   1.656   4.373   3.683
30676WAT     H292271   1.503   4.415   3.642
30677WAT      O92272   0.738   6.226   3.244
30677WAT     H192273   0.690   6.159   3.301
30677WAT     H292274   0.722   6.318   3.281
30678WAT      O92275   8.278   5.186   5.406
30678WAT     H192276   8.291   5.155   5.312
30678WAT     H292277   8.355   5.244   5.433
30679WAT      O92278   1.703   1.072   2.266
30679WAT     H192279   1.630   1.135   2.238
30679WAT     H292280   1.712   1.073   2.366
30680WAT      O92281   6.353   6.032   4.456
30680WAT     H192282   6.299   6.107   4.419
30680WAT     H292283   6.323   5.946   4.415
30681WAT      O92284   7.482   3.193   3.048
30681WAT     H192285   7.434   3.274   3.014
30681WAT     H292286   7.445   3.111   3.004
30682WAT      O92287   2.815   7.497   4.861
30682WAT     H192288   2.846   7.576   4.915
30682WAT     H292289   2.895   7.442   4.835
30683WAT      O92290   2.016   8.638   2.772
30683WAT     H192291   2.073   8.583   2.711
30683WAT     H292292   1.937   8.674   2.721
30684WAT      O92293   0.587   0.313   7.254
30684WAT     H192294   0.555   0.373   7.181
30684WAT     H292295   0.687   0.307   7.250
30685WAT      O92296   5.509   6.648   5.727
30685WAT     H192297   5.578   6.717   5.705
30685WAT     H292298   5.420   6.677   5.691
30686WAT      O92299   3.215   6.518   6.285
30686WAT     H192300   3.194   6.545   6.191
30686WAT     H292301   3.244   6.598   6.337
30687WAT      O92302   5.008   6.355   6.794
30687WAT     H192303   5.010   6.286   6.722
30687WAT     H292304   4.931   6.417   6.779
30688WAT      O92305   1.673   6.738   4.087
30688WAT     H192306   1.629   6.686   4.013
30688WAT     H292307   1.765   6.702   4.103
30689WAT      O92308   5.448   7.739   7.524
30689WAT     H192309   5.497   7.710   7.606
30689WAT     H292310   5.373   7.676   7.506
30690WAT      O92311   5.296   5.518   2.975
30690WAT     H192312   5.306   5.606   2.928
30690WAT     H292313   5.206   5.515   3.020
30691WAT      O92314   0.566   0.896   4.693
30691WAT     H192315   0.525   0.897   4.601
30691WAT     H292316   0.652   0.845   4.690
30692WAT      O92317   0.884   7.883   5.737
30692WAT     H192318   0.963   7.939   5.764
30692WAT     H292319   0.859   7.822   5.812
30693WAT      O92320   2.045   9.787   6.622
30693WAT     H192321   1.995   9.740   6.696
30693WAT     H292322   2.082   9.719   6.559
30694WAT      O92323   9.790   8.033   7.237
30694WAT     H192324   9.714   8.066   7.182
30694WAT     H292325   9.799   7.934   7.227
30695WAT      O92326   4.498   6.730   1.206
30695WAT     H192327   4.486   6.772   1.116
30695WAT     H292328   4.480   6.632   1.200
30696WAT      O92329   1.418   7.062   0.611
30696WAT     H192330   1.367   6.995   0.556
30696WAT     H292331   1.367   7.080   0.696
30697WAT      O92332   6.997   7.952   3.162
30697WAT     H192333   7.012   7.892   3.084
30697WAT     H292334   7.003   7.899   3.246
30698WAT      O92335   6.341   7.364   7.624
30698WAT     H192336   6.421   7.374   7.565
30698WAT     H292337   6.319   7.452   7.666
30699WAT      O92338   9.399   0.376   8.466
30699WAT     H192339   9.301   0.368   8.487
30699WAT     H292340   9.438   0.284   8.457
30700WAT      O92341   8.211   4.677   5.724
30700WAT     H192342   8.267   4.595   5.715
30700WAT     H292343   8.243   4.745   5.658
30701WAT      O92344   1.195   8.603   7.639
30701WAT     H192345   1.278   8.554   7.613
30701WAT     H292346   1.148   8.552   7.710
30702WAT      O92347   0.556   5.343   5.969
30702WAT     H192348   0.565   5.291   6.054
30702WAT     H292349   0.467   5.388   5.966
30703WAT      O92350   0.676   6.669   0.825
30703WAT     H192351   0.771   6.702   0.827
30703WAT     H292352   0.658   6.624   0.737
30704WAT      O92353   0.099   5.374   9.603
30704WAT     H192354   0.079   5.372   9.505
30704WAT     H292355   0.016   5.357   9.655
30705WAT      O92356   7.729   0.440   0.292
30705WAT     H192357   7.679   0.484   0.218
30705WAT     H292358   7.671   0.372   0.337
30706WAT      O92359   9.445   1.007   0.570
30706WAT     H192360   9.395   1.080   0.617
30706WAT     H292361   9.380   0.944   0.528
30707WAT      O92362   9.479   1.766   9.457
30707WAT     H192363   9.517   1.793   9.369
30707WAT     H292364   9.384   1.796   9.464
30708WAT      O92365   5.825   0.525   8.614
30708WAT     H192366   5.760   0.599   8.634
30708WAT     H292367   5.833   0.513   8.515
30709WAT      O92368   7.616   0.574   7.516
30709WAT     H192369   7.617   0.487   7.468
30709WAT     H292370   7.680   0.570   7.593
30710WAT      O92371   3.921   7.322   9.003
30710WAT     H192372   3.893   7.292   8.912
30710WAT     H292373   4.015   7.293   9.020
30711WAT      O92374   3.205   5.297   0.957
30711WAT     H192375   3.253   5.276   1.041
30711WAT     H292376   3.182   5.395   0.955
30712WAT      O92377   7.916   9.430   2.691
30712WAT     H192378   8.008   9.434   2.652
30712WAT     H292379   7.881   9.523   2.703
30713WAT      O92380   9.262   7.911   2.794
30713WAT     H192381   9.211   7.825   2.801
30713WAT     H292382   9.274   7.950   2.885
30714WAT      O92383   1.923   1.277   3.523
30714WAT     H192384   1.831   1.315   3.518
30714WAT     H292385   1.960   1.265   3.431
30715WAT      O92386   4.436   2.317   6.383
30715WAT     H192387   4.492   2.328   6.301
30715WAT     H292388   4.495   2.303   6.463
30716WAT      O92389   7.609   6.220   7.650
30716WAT     H192390   7.514   6.246   7.632
30716WAT     H292391   7.612   6.167   7.735
30717WAT      O92392   7.145   8.309   9.826
30717WAT     H192393   7.047   8.297   9.843
30717WAT     H292394   7.192   8.221   9.833
30718WAT      O92395   4.321   6.516   3.608
30718WAT     H192396   4.334   6.537   3.705
30718WAT     H292397   4.223   6.521   3.587
30719WAT      O92398   6.732   3.318   2.406
30719WAT     H192399   6.781   3.304   2.320
30719WAT     H292400   6.636   3.294   2.395
30720WAT      O92401   8.292   3.726   6.201
30720WAT     H192402   8.328   3.668   6.127
30720WAT     H292403   8.349   3.808   6.209
30721WAT      O92404   3.785   9.547   8.739
30721WAT     H192405   3.806   9.451   8.753
30721WAT     H292406   3.854   9.604   8.784
30722WAT      O92407   7.086   6.271   7.592
30722WAT     H192408   7.182   6.292   7.573
30722WAT     H292409   7.060   6.187   7.545
30723WAT      O92410   4.493   3.855   6.919
30723WAT     H192411   4.456   3.823   6.832
30723WAT     H292412   4.549   3.936   6.904
30724WAT      O92413   8.560   8.469   3.955
30724WAT     H192414   8.469   8.452   3.992
30724WAT     H292415   8.590   8.390   3.901
30725WAT      O92416   3.395   4.628   2.951
30725WAT     H192417   3.483   4.626   3.000
30725WAT     H292418   3.384   4.544   2.899
30726WAT      O92419   7.297   5.681   7.256
30726WAT     H192420   7.282   5.586   7.229
30726WAT     H292421   7.395   5.695   7.273
30727WAT      O92422   7.916   6.558   7.466
30727WAT     H192423   7.934   6.514   7.379
30727WAT     H292424   7.868   6.644   7.451
30728WAT      O92425   3.321   4.032   8.858
30728WAT     H192426   3.370   4.010   8.942
30728WAT     H292427   3.223   4.022   8.872
30729WAT      O92428   2.772   5.860   5.848
30729WAT     H192429   2.706   5.906   5.908
30729WAT     H292430   2.774   5.906   5.759
30730WAT      O92431   2.627   4.508   7.810
30730WAT     H192432   2.586   4.589   7.767
30730WAT     H292433   2.645   4.526   7.907
30731WAT      O92434   0.572   2.781   2.106
30731WAT     H192435   0.488   2.832   2.087
30731WAT     H292436   0.585   2.773   2.205
30732WAT      O92437   6.752   7.443   7.562
30732WAT     H192438   6.771   7.377   7.635
30732WAT     H292439   6.824   7.436   7.492
30733WAT      O92440   9.585   3.128   6.788
30733WAT     H192441   9.620   3.220   6.804
30733WAT     H292442   9.535   3.126   6.702
30734WAT      O92443   9.553   9.510   0.184
30734WAT     H192444   9.485   9.447   0.220
30734WAT     H292445   9.596   9.470   0.103
30735WAT      O92446   8.391   3.659   9.477
30735WAT     H192447   8.419   3.645   9.382
30735WAT     H292448   8.465   3.702   9.528
30736WAT      O92449   5.939   7.194   5.007
30736WAT     H192450   5.962   7.246   4.925
30736WAT     H292451   5.907   7.256   5.078
30737WAT      O92452   2.204   7.457   7.115
30737WAT     H192453   2.180   7.542   7.163
30737WAT     H292454   2.157   7.380   7.158
30738WAT      O92455   2.951   5.638   3.399
30738WAT     H192456   2.931   5.576   3.323
30738WAT     H292457   2.995   5.721   3.364
30739WAT      O92458   6.128   2.219   6.260
30739WAT     H192459   6.081   2.173   6.184
30739WAT     H292460   6.122   2.162   6.342
30740WAT      O92461   5.697   3.145   4.249
30740WAT     H192462   5.703   3.199   4.165
30740WAT     H292463   5.613   3.090   4.247
30741WAT      O92464   5.641   5.184   9.033
30741WAT     H192465   5.737   5.191   9.005
30741WAT     H292466   5.628   5.229   9.121
30742WAT      O92467   9.190   4.938   4.640
30742WAT     H192468   9.120   5.007   4.623
30742WAT     H292469   9.234   4.956   4.728
30743WAT      O92470   8.752   9.070   9.830
30743WAT     H192471   8.764   9.091   9.927
30743WAT     H292472   8.754   9.155   9.777
30744WAT      O92473   2.603   1.142   7.468
30744WAT     H192474   2.630   1.081   7.393
30744WAT     H292475   2.647   1.111   7.552
30745WAT      O92476   8.120   8.667   6.318
30745WAT     H192477   8.027   8.630   6.313
30745WAT     H292478   8.165   8.634   6.401
30746WAT      O92479   3.491   8.912   1.308
30746WAT     H192480   3.539   8.931   1.394
30746WAT     H292481   3.406   8.965   1.305
30747WAT      O92482   2.243   9.210   6.618
30747WAT     H192483   2.204   9.294   6.657
30747WAT     H292484   2.262   9.224   6.521
30748WAT      O92485   9.083   8.322   8.996
30748WAT     H192486   9.180   8.314   8.974
30748WAT     H292487   9.071   8.388   9.071
30749WAT      O92488   6.152   8.641   2.012
30749WAT     H192489   6.095   8.598   2.082
30749WAT     H292490   6.098   8.660   1.930
30750WAT      O92491   1.347   8.695   4.920
30750WAT     H192492   1.321   8.764   4.988
30750WAT     H292493   1.310   8.606   4.948
30751WAT      O92494   5.873   0.458   3.909
30751WAT     H192495   5.779   0.477   3.879
30751WAT     H292496   5.934   0.527   3.871
30752WAT      O92497   9.656   9.218   2.718
30752WAT     H192498   9.560   9.197   2.738
30752WAT     H292499   9.705   9.134   2.696
30753WAT      O92500   6.062   4.069   8.081
30753WAT     H192501   6.012   4.155   8.067
30753WAT     H292502   6.046   4.036   8.174
30754WAT      O92503   1.478   9.236   0.679
30754WAT     H192504   1.452   9.329   0.654
30754WAT     H292505   1.575   9.234   0.705
30755WAT      O92506   3.880   7.882   1.400
30755WAT     H192507   3.832   7.839   1.324
30755WAT     H292508   3.891   7.816   1.475
30756WAT      O92509   5.654   8.349   4.700
30756WAT     H192510   5.575   8.410   4.692
30756WAT     H292511   5.633   8.277   4.766
30757WAT      O92512   3.634   2.538   9.094
30757WAT     H192513   3.613   2.441   9.083
30757WAT     H292514   3.694   2.551   9.173
30758WAT      O92515   2.176   1.504   3.918
30758WAT     H192516   2.261   1.557   3.924
30758WAT     H292517   2.145   1.501   3.823
30759WAT      O92518   3.750   3.110   1.942
30759WAT     H192519   3.749   3.011   1.947
30759WAT     H292520   3.688   3.141   1.871
30760WAT      O92521   7.196   5.535   2.320
30760WAT     H192522   7.191   5.525   2.419
30760WAT     H292523   7.285   5.571   2.294
30761WAT      O92524   5.970   3.834   5.021
30761WAT     H192525   5.934   3.871   4.935
30761WAT     H292526   5.913   3.756   5.050
30762WAT      O92527   3.796   2.917   4.971
30762WAT     H192528   3.842   2.952   5.052
30762WAT     H292529   3.857   2.928   4.892
30763WAT      O92530   3.537   9.639   4.675
30763WAT     H192531   3.576   9.729   4.659
30763WAT     H292532   3.596   9.587   4.737
30764WAT      O92533   5.467   5.953   1.540
30764WAT     H192534   5.428   6.036   1.580
30764WAT     H292535   5.398   5.905   1.487
30765WAT      O92536   6.959   3.683   0.775
30765WAT     H192537   6.921   3.768   0.812
30765WAT     H292538   6.988   3.699   0.681
30766WAT      O92539   3.870   1.267   8.338
30766WAT     H192540   3.772   1.250   8.353
30766WAT     H292541   3.903   1.331   8.407
30767WAT      O92542   3.347   6.459   3.785
30767WAT     H192543   3.301   6.486   3.870
30767WAT     H292544   3.424   6.398   3.808
30768WAT      O92545   3.889   1.619   4.085
30768WAT     H192546   3.930   1.576   4.166
30768WAT     H292547   3.937   1.588   4.003
30769WAT      O92548   1.914   5.616   0.308
30769WAT     H192549   1.979   5.600   0.381
30769WAT     H292550   1.859   5.697   0.329
30770WAT      O92551   4.884   2.388   2.337
30770WAT     H192552   4.864   2.355   2.244
30770WAT     H292553   4.888   2.310   2.399
30771WAT      O92554   9.867   1.116   4.576
30771WAT     H192555   9.933   1.172   4.526
30771WAT     H292556   9.881   1.020   4.552
30772WAT      O92557   9.852   4.766   1.134
30772WAT     H192558   9.877   4.679   1.091
30772WAT     H292559   9.820   4.830   1.065
30773WAT      O92560   5.384   8.991   2.274
30773WAT     H192561   5.304   8.938   2.246
30773WAT     H292562   5.363   9.089   2.269
30774WAT      O92563   5.466   4.294   8.631
30774WAT     H192564   5.424   4.346   8.706
30774WAT     H292565   5.406   4.297   8.551
30775WAT      O92566   8.166   7.143   6.972
30775WAT     H192567   8.181   7.060   7.026
30775WAT     H292568   8.224   7.140   6.891
30776WAT      O92569   3.330   0.154   8.141
30776WAT     H192570   3.290   0.111   8.060
30776WAT     H292571   3.427   0.132   8.147
30777WAT      O92572   8.299   3.891   1.506
30777WAT     H192573   8.346   3.882   1.594
30777WAT     H292574   8.211   3.936   1.520
30778WAT      O92575   5.058   9.602   1.190
30778WAT     H192576   5.068   9.645   1.280
30778WAT     H292577   5.146   9.568   1.159
30779WAT      O92578   4.842   1.422   7.506
30779WAT     H192579   4.774   1.400   7.437
30779WAT     H292580   4.805   1.402   7.597
30780WAT      O92581   0.691   5.965   6.978
30780WAT     H192582   0.755   6.038   6.954
30780WAT     H292583   0.598   5.996   6.962
30781WAT      O92584   1.470   9.397   1.949
30781WAT     H192585   1.394   9.462   1.940
30781WAT     H292586   1.556   9.446   1.941
30782WAT      O92587   8.880   0.438   0.088
30782WAT     H192588   8.938   0.514   0.120
30782WAT     H292589   8.934   0.354   0.085
30783WAT      O92590   6.047   4.405   9.402
30783WAT     H192591   6.041   4.347   9.320
30783WAT     H292592   6.004   4.357   9.479
30784WAT      O92593   7.598   2.951   1.691
30784WAT     H192594   7.608   2.852   1.707
30784WAT     H292595   7.569   2.995   1.776
30785WAT      O92596   4.226   3.828   8.594
30785WAT     H192597   4.168   3.787   8.524
30785WAT     H292598   4.169   3.868   8.666
30786WAT      O92599   9.489   2.004   2.493
30786WAT     H192600   9.433   2.020   2.411
30786WAT     H292601   9.539   1.917   2.483
30787WAT      O92602   7.079   1.188   1.959
30787WAT     H192603   7.149   1.151   1.899
30787WAT     H292604   7.042   1.115   2.017
30788WAT      O92605   8.564   8.702   8.553
30788WAT     H192606   8.660   8.673   8.550
30788WAT     H292607   8.543   8.755   8.470
30789WAT      O92608   6.305   2.731   9.630
30789WAT     H192609   6.206   2.730   9.616
30789WAT     H292610   6.334   2.645   9.670
30790WAT      O92611   0.821   5.905   1.601
30790WAT     H192612   0.835   5.994   1.558
30790WAT     H292613   0.783   5.841   1.535
30791WAT      O92614   1.591   6.473   2.667
30791WAT     H192615   1.629   6.562   2.691
30791WAT     H292616   1.534   6.481   2.585
30792WAT      O92617   6.368   1.677   5.330
30792WAT     H192618   6.291   1.705   5.387
30792WAT     H292619   6.384   1.579   5.341
30793WAT      O92620   8.189   3.157   3.457
30793WAT     H192621   8.102   3.132   3.498
30793WAT     H292622   8.176   3.235   3.396
30794WAT      O92623   9.030   6.781   1.959
30794WAT     H192624   9.047   6.823   2.049
30794WAT     H292625   9.015   6.683   1.971
30795WAT      O92626   7.281   0.286   2.700
30795WAT     H192627   7.271   0.262   2.604
30795WAT     H292628   7.192   0.279   2.745
30796WAT      O92629   4.122   5.672   7.801
30796WAT     H192630   4.213   5.702   7.828
30796WAT     H292631   4.094   5.719   7.717
30797WAT      O92632   0.791   9.315   3.705
30797WAT     H192633   0.889   9.308   3.723
30797WAT     H292634   0.748   9.369   3.778
30798WAT      O92635   5.220   4.029   2.525
30798WAT     H192636   5.131   4.069   2.504
30798WAT     H292637   5.208   3.956   2.592
30799WAT      O92638   3.701   1.549   4.818
30799WAT     H192639   3.796   1.576   4.804
30799WAT     H292640   3.677   1.561   4.914
30800WAT      O92641   6.266   2.782   1.841
30800WAT     H192642   6.322   2.812   1.918
30800WAT     H292643   6.181   2.742   1.874
30801WAT      O92644   5.269   2.336   6.413
30801WAT     H192645   5.304   2.252   6.455
30801WAT     H292646   5.174   2.321   6.383
30802WAT      O92647   1.646   1.411   7.629
30802WAT     H192648   1.604   1.463   7.555
30802WAT     H292649   1.611   1.318   7.628
30803WAT      O92650   5.022   3.226   3.469
30803WAT     H192651   4.999   3.249   3.374
30803WAT     H292652   5.006   3.305   3.528
30804WAT      O92653   6.931   4.439   3.734
30804WAT     H192654   6.963   4.473   3.822
30804WAT     H292655   6.831   4.441   3.732
30805WAT      O92656   9.776   0.769   2.425
30805WAT     H192657   9.796   0.703   2.352
30805WAT     H292658   9.678   0.770   2.443
30806WAT      O92659   0.206   3.888   4.134
30806WAT     H192660   0.262   3.928   4.207
30806WAT     H292661   0.213   3.788   4.137
30807WAT      O92662   8.793   0.104   0.505
30807WAT     H192663   8.703   0.119   0.546
30807WAT     H292664   8.864   0.113   0.575
30808WAT      O92665   7.850   4.748   9.146
30808WAT     H192666   7.808   4.658   9.158
30808WAT     H292667   7.932   4.755   9.203
30809WAT      O92668   9.518   9.201   8.669
30809WAT     H192669   9.425   9.202   8.632
30809WAT     H292670   9.527   9.271   8.740
30810WAT      O92671   7.122   1.377   5.672
30810WAT     H192672   7.066   1.364   5.754
30810WAT     H292673   7.128   1.290   5.622
30811WAT      O92674   1.109   4.913   7.216
30811WAT     H192675   1.064   5.000   7.235
30811WAT     H292676   1.147   4.876   7.301
30812WAT      O92677   9.714   8.827   2.607
30812WAT     H192678   9.616   8.847   2.598
30812WAT     H292679   9.766   8.911   2.595
30813WAT      O92680   3.303   3.910   2.025
30813WAT     H192681   3.278   3.968   2.103
30813WAT     H292682   3.231   3.916   1.955
30814WAT      O92683   3.042   2.135   3.510
30814WAT     H192684   3.120   2.123   3.448
30814WAT     H292685   3.059   2.213   3.569
30815WAT      O92686   7.496   5.453   7.329
30815WAT     H192687   7.497   5.431   7.231
30815WAT     H292688   7.532   5.376   7.381
30816WAT      O92689   2.540   1.846   4.804
30816WAT     H192690   2.629   1.869   4.842
30816WAT     H292691   2.546   1.840   4.704
30817WAT      O92692   9.276   5.551   5.673
30817WAT     H192693   9.313   5.480   5.732
30817WAT     H292694   9.342   5.573   5.601
30818WAT      O92695   7.722   7.232   8.529
30818WAT     H192696   7.633   7.208   8.568
30818WAT     H292697   7.792   7.226   8.601
30819WAT      O92698   2.497   8.982   8.293
30819WAT     H192699   2.543   8.901   8.330
30819WAT     H292700   2.403   8.959   8.268
30820WAT      O92701   5.862   4.930   8.794
30820WAT     H192702   5.778   4.965   8.753
30820WAT     H292703   5.843   4.843   8.839
30821WAT      O92704   9.225   0.498   2.271
30821WAT     H192705   9.307   0.449   2.242
30821WAT     H292706   9.145   0.438   2.259
30822WAT      O92707   3.226   3.228   3.341
30822WAT     H192708   3.281   3.300   3.382
30822WAT     H292709   3.205   3.158   3.410
30823WAT      O92710   6.998   1.960   2.802
30823WAT     H192711   7.002   1.901   2.882
30823WAT     H292712   6.904   1.989   2.786
30824WAT      O92713   8.657   0.745   9.681
30824WAT     H192714   8.636   0.793   9.767
30824WAT     H292715   8.681   0.812   9.611
30825WAT      O92716   5.197   7.907   4.219
30825WAT     H192717   5.156   7.911   4.310
30825WAT     H292718   5.155   7.832   4.168
30826WAT      O92719   2.358   9.496   6.603
30826WAT     H192720   2.448   9.471   6.638
30826WAT     H292721   2.365   9.580   6.550
30827WAT      O92722   0.482   0.076   7.148
30827WAT     H192723   0.495   0.151   7.213
30827WAT     H292724   0.500   0.109   7.056
30828WAT      O92725   6.192   7.641   1.115
30828WAT     H192726   6.174   7.739   1.104
30828WAT     H292727   6.270   7.614   1.058
30829WAT      O92728   3.070   8.916   5.163
30829WAT     H192729   2.977   8.953   5.152
30829WAT     H292730   3.083   8.885   5.257
30830WAT      O92731   3.748   6.011   9.169
30830WAT     H192732   3.772   6.083   9.234
30830WAT     H292733   3.778   6.037   9.078
30831WAT      O92734   0.670   6.107   5.687
30831WAT     H192735   0.747   6.047   5.710
30831WAT     H292736   0.622   6.132   5.771
30832WAT      O92737   6.837   8.329   8.614
30832WAT     H192738   6.900   8.405   8.623
30832WAT     H292739   6.888   8.243   8.610
30833WAT      O92740   7.315   5.785   5.326
30833WAT     H192741   7.389   5.754   5.267
30833WAT     H292742   7.283   5.875   5.296
30834WAT      O92743   1.136   5.177   8.297
30834WAT     H192744   1.159   5.081   8.289
30834WAT     H292745   1.100   5.196   8.389
30835WAT      O92746   6.904   0.945   2.370
30835WAT     H192747   6.905   0.855   2.413
30835WAT     H292748   6.974   1.003   2.413
30836WAT      O92749   1.834   3.540   3.005
30836WAT     H192750   1.764   3.553   2.935
30836WAT     H292751   1.838   3.620   3.065
30837WAT      O92752   5.263   1.758   1.874
30837WAT     H192753   5.278   1.853   1.846
30837WAT     H292754   5.326   1.698   1.824
30838WAT      O92755   3.131   5.274   5.494
30838WAT     H192756   3.035   5.281   5.469
30838WAT     H292757   3.152   5.336   5.569
30839WAT      O92758   9.858   0.148   0.457
30839WAT     H192759   9.941   0.093   0.458
30839WAT     H292760   9.875   0.234   0.407
30840WAT      O92761   4.307   0.941   0.020
30840WAT     H192762   4.305   1.035   0.053
30840WAT     H292763   4.216   0.900   0.031
30841WAT      O92764   8.848   8.216   6.640
30841WAT     H192765   8.911   8.149   6.679
30841WAT     H292766   8.883   8.309   6.656
30842WAT      O92767   1.370   7.507   1.511
30842WAT     H192768   1.406   7.451   1.586
30842WAT     H292769   1.353   7.600   1.543
30843WAT      O92770   4.383   6.033   2.427
30843WAT     H192771   4.388   5.936   2.449
30843WAT     H292772   4.349   6.084   2.506
30844WAT      O92773   7.207   4.129   3.529
30844WAT     H192774   7.286   4.071   3.549
30844WAT     H292775   7.148   4.083   3.462
30845WAT      O92776   1.864   7.711   5.327
30845WAT     H192777   1.850   7.725   5.229
30845WAT     H292778   1.916   7.627   5.341
30846WAT      O92779   5.999   5.772   8.490
30846WAT     H192780   5.944   5.772   8.574
30846WAT     H292781   5.945   5.811   8.415
30847WAT      O92782   9.584   2.963   6.999
30847WAT     H192783   9.596   3.004   6.908
30847WAT     H292784   9.626   3.023   7.068
30848WAT      O92785   4.591   4.845   4.008
30848WAT     H192786   4.616   4.807   3.919
30848WAT     H292787   4.674   4.868   4.059
30849WAT      O92788   6.430   2.758   2.374
30849WAT     H192789   6.504   2.816   2.339
30849WAT     H292790   6.401   2.694   2.303
30850WAT      O92791   4.637   2.706   2.466
30850WAT     H192792   4.589   2.791   2.488
30850WAT     H292793   4.610   2.635   2.531
30851WAT      O92794   1.859   9.442   1.952
30851WAT     H192795   1.934   9.410   1.894
30851WAT     H292796   1.793   9.494   1.896
30852WAT      O92797   3.373   4.346   4.985
30852WAT     H192798   3.406   4.251   4.983
30852WAT     H292799   3.441   4.406   4.943
30853WAT      O92800   6.753   6.267   1.778
30853WAT     H192801   6.657   6.244   1.791
30853WAT     H292802   6.763   6.366   1.771
30854WAT      O92803   4.913   8.150   6.248
30854WAT     H192804   4.958   8.087   6.311
30854WAT     H292805   4.980   8.184   6.182
30855WAT      O92806   2.751   6.662   7.339
30855WAT     H192807   2.769   6.689   7.434
30855WAT     H292808   2.654   6.673   7.320
30856WAT      O92809   7.800   8.461   0.639
30856WAT     H192810   7.789   8.432   0.544
30856WAT     H292811   7.867   8.403   0.684
30857WAT      O92812   3.631   0.273   9.705
30857WAT     H192813   3.572   0.354   9.712
30857WAT     H292814   3.625   0.235   9.613
30858WAT      O92815   7.971   6.798   4.899
30858WAT     H192816   7.911   6.735   4.849
30858WAT     H292817   8.016   6.748   4.974
30859WAT      O92818   9.353   1.809   7.921
30859WAT     H192819   9.394   1.721   7.898
30859WAT     H292820   9.365   1.828   8.018
30860WAT      O92821   3.656   4.301   1.520
30860WAT     H192822   3.590   4.242   1.472
30860WAT     H292823   3.749   4.274   1.494
30861WAT      O92824   6.357   1.011   3.626
30861WAT     H192825   6.441   1.025   3.678
30861WAT     H292826   6.379   0.971   3.537
30862WAT      O92827   7.691   5.636   7.927
30862WAT     H192828   7.725   5.682   7.845
30862WAT     H292829   7.659   5.704   7.993
30863WAT      O92830   3.564   9.262   4.961
30863WAT     H192831   3.628   9.285   5.034
30863WAT     H292832   3.476   9.307   4.978
30864WAT      O92833   6.561   5.811   6.349
30864WAT     H192834   6.468   5.814   6.384
30864WAT     H292835   6.602   5.722   6.370
30865WAT      O92836   3.145   8.359   3.935
30865WAT     H192837   3.067   8.326   3.989
30865WAT     H292838   3.112   8.398   3.850
30866WAT      O92839   3.411   2.869   4.664
30866WAT     H192840   3.481   2.933   4.635
30866WAT     H292841   3.320   2.909   4.650
30867WAT      O92842   5.632   9.529   4.313
30867WAT     H192843   5.690   9.611   4.320
30867WAT     H292844   5.544   9.547   4.356
30868WAT      O92845   4.721   0.073   1.812
30868WAT     H192846   4.624   0.094   1.796
30868WAT     H292847   4.774   0.158   1.809
30869WAT      O92848   8.100   5.830   3.684
30869WAT     H192849   8.045   5.874   3.756
30869WAT     H292850   8.044   5.763   3.635
30870WAT      O92851   5.440   5.174   7.871
30870WAT     H192852   5.457   5.227   7.788
30870WAT     H292853   5.517   5.184   7.933
30871WAT      O92854   2.732   8.345   9.651
30871WAT     H192855   2.749   8.419   9.717
30871WAT     H292856   2.770   8.260   9.687
30872WAT      O92857   5.007   7.970   4.713
30872WAT     H192858   4.959   8.056   4.693
30872WAT     H292859   5.018   7.961   4.812
30873WAT      O92860   0.458   5.280   3.128
30873WAT     H192861   0.416   5.212   3.067
30873WAT     H292862   0.491   5.357   3.073
30874WAT      O92863   8.732   6.393   7.712
30874WAT     H192864   8.637   6.401   7.742
30874WAT     H292865   8.734   6.355   7.619
30875WAT      O92866   8.049   2.357   2.567
30875WAT     H192867   8.061   2.452   2.597
30875WAT     H292868   8.079   2.348   2.472
30876WAT      O92869   3.169   1.405   8.253
30876WAT     H192870   3.223   1.345   8.312
30876WAT     H292871   3.120   1.351   8.184
30877WAT      O92872   5.424   9.290   3.003
30877WAT     H192873   5.358   9.240   2.947
30877WAT     H292874   5.376   9.337   3.077
30878WAT      O92875   9.666   5.132   4.464
30878WAT     H192876   9.610   5.177   4.393
30878WAT     H292877   9.759   5.167   4.459
30879WAT      O92878   3.608   7.988   2.030
30879WAT     H192879   3.664   7.925   2.085
30879WAT     H292880   3.666   8.060   1.993
30880WAT      O92881   6.179   6.016   0.140
30880WAT     H192882   6.266   5.988   0.098
30880WAT     H292883   6.142   6.094   0.090
30881WAT      O92884   2.816   0.075   8.375
30881WAT     H192885   2.816   0.064   8.276
30881WAT     H292886   2.909   0.085   8.408
30882WAT      O92887   9.565   6.744   6.361
30882WAT     H192888   9.492   6.757   6.294
30882WAT     H292889   9.625   6.824   6.362
30883WAT      O92890   3.485   5.964   9.222
30883WAT     H192891   3.433   6.033   9.173
30883WAT     H292892   3.583   5.985   9.217
30884WAT      O92893   8.560   6.780   2.567
30884WAT     H192894   8.478   6.748   2.613
30884WAT     H292895   8.574   6.726   2.484
30885WAT      O92896   0.754   2.948   3.929
30885WAT     H192897   0.818   2.967   4.003
30885WAT     H292898   0.736   3.032   3.878
30886WAT      O92899   4.983   4.152   5.118
30886WAT     H192900   4.937   4.143   5.206
30886WAT     H292901   4.922   4.122   5.045
30887WAT      O92902   3.424   8.808   8.797
30887WAT     H192903   3.382   8.882   8.850
30887WAT     H292904   3.510   8.782   8.839
30888WAT      O92905   4.177   4.905   3.313
30888WAT     H192906   4.181   4.810   3.346
30888WAT     H292907   4.104   4.914   3.246
30889WAT      O92908   4.984   3.242   1.940
30889WAT     H192909   4.923   3.187   1.883
30889WAT     H292910   5.073   3.250   1.896
30890WAT      O92911   1.621   7.299   0.701
30890WAT     H192912   1.676   7.236   0.646
30890WAT     H292913   1.565   7.248   0.765
30891WAT      O92914   5.436   3.450   9.331
30891WAT     H192915   5.441   3.351   9.321
30891WAT     H292916   5.404   3.491   9.245
30892WAT      O92917   4.736   0.678   8.950
30892WAT     H192918   4.676   0.688   9.029
30892WAT     H292919   4.681   0.666   8.867
30893WAT      O92920   7.264   6.008   2.643
30893WAT     H192921   7.330   5.973   2.576
30893WAT     H292922   7.226   5.932   2.695
30894WAT      O92923   1.847   6.832   9.545
30894WAT     H192924   1.944   6.820   9.569
30894WAT     H292925   1.839   6.875   9.456
30895WAT      O92926   5.933   5.223   7.844
30895WAT     H192927   6.006   5.238   7.777
30895WAT     H292928   5.971   5.187   7.928
30896WAT      O92929   0.575   0.896   2.874
30896WAT     H192930   0.489   0.879   2.826
30896WAT     H292931   0.639   0.821   2.855
30897WAT      O92932   0.293   1.156   5.449
30897WAT     H192933   0.261   1.148   5.544
30897WAT     H292934   0.228   1.210   5.396
30898WAT      O92935   2.599   0.768   6.282
30898WAT     H192936   2.563   0.812   6.200
30898WAT     H292937   2.595   0.831   6.359
30899WAT      O92938   6.961   6.774   6.983
30899WAT     H192939   7.014   6.691   6.967
30899WAT     H292940   6.993   6.846   6.921
30900WAT      O92941   8.129   7.256   8.596
30900WAT     H192942   8.114   7.347   8.556
30900WAT     H292943   8.042   7.221   8.631
30901WAT      O92944   9.313   9.448   4.581
30901WAT     H192945   9.363   9.454   4.494
30901WAT     H292946   9.356   9.380   4.640
30902WAT      O92947   5.132   6.933   0.699
30902WAT     H192948   5.179   6.938   0.611
30902WAT     H292949   5.102   7.025   0.725
30903WAT      O92950   7.765   0.298   7.496
30903WAT     H192951   7.751   0.216   7.552
30903WAT     H292952   7.797   0.372   7.555
30904WAT      O92953   1.037   5.422   1.770
30904WAT     H192954   1.120   5.442   1.822
30904WAT     H292955   0.996   5.508   1.739
30905WAT      O92956   6.259   9.820   6.487
30905WAT     H192957   6.187   9.765   6.445
30905WAT     H292958   6.335   9.829   6.423
30906WAT      O92959   3.878   8.881   0.020
30906WAT     H192960   3.809   8.901   0.089
30906WAT     H292961   3.847   8.914  -0.069
30907WAT      O92962   2.670   9.641   1.160
30907WAT     H192963   2.728   9.722   1.146
30907WAT     H292964   2.692   9.599   1.248
30908WAT      O92965   8.211   8.044   3.531
30908WAT     H192966   8.297   8.095   3.537
30908WAT     H292967   8.230   7.947   3.515
30909WAT      O92968   8.327   0.598   4.939
30909WAT     H192969   8.383   0.550   4.871
30909WAT     H292970   8.359   0.692   4.948
30910WAT      O92971   8.009   2.502   3.808
30910WAT     H192972   8.102   2.537   3.814
30910WAT     H292973   8.009   2.418   3.754
30911WAT      O92974   9.522   6.871   9.334
30911WAT     H192975   9.581   6.935   9.284
30911WAT     H292976   9.512   6.787   9.280
30912WAT      O92977   7.247   6.829   1.484
30912WAT     H192978   7.165   6.775   1.504
30912WAT     H292979   7.327   6.771   1.486
30913WAT      O92980   4.334   3.215   3.002
30913WAT     H192981   4.420   3.267   2.997
30913WAT     H292982   4.279   3.249   3.078
30914WAT      O92983   2.906   9.362   9.530
30914WAT     H192984   2.906   9.455   9.567
30914WAT     H292985   2.815   9.340   9.495
30915WAT      O92986   3.076   8.392   0.148
30915WAT     H192987   3.017   8.471   0.129
30915WAT     H292988   3.037   8.338   0.221
30916WAT      O92989   8.033   2.828   1.093
30916WAT     H192990   8.040   2.925   1.071
30916WAT     H292991   7.965   2.785   1.034
30917WAT      O92992   7.007   7.468   3.987
30917WAT     H192993   7.062   7.531   4.041
30917WAT     H292994   7.030   7.374   4.011
30918WAT      O92995   4.389   8.334   2.814
30918WAT     H192996   4.366   8.425   2.779
30918WAT     H292997   4.321   8.306   2.882
30919WAT      O92998   1.770   7.225   6.569
30919WAT     H192999   1.849   7.286   6.568
30919WAT     H293000   1.731   7.223   6.661
30920WAT      O93001   9.607   1.954   6.242
30920WAT     H193002   9.523   1.924   6.196
30920WAT     H293003   9.601   1.934   6.340
30921WAT      O93004   0.355   2.977   6.538
30921WAT     H193005   0.356   2.931   6.626
30921WAT     H293006   0.435   3.037   6.531
30922WAT      O93007   6.452   0.281   4.492
30922WAT     H193008   6.374   0.249   4.546
30922WAT     H293009   6.451   0.381   4.486
30923WAT      O93010   6.513   6.307   5.868
30923WAT     H193011   6.600   6.347   5.898
30923WAT     H293012   6.454   6.293   5.947
30924WAT      O93013   8.535   3.370   8.364
30924WAT     H193014   8.552   3.285   8.315
30924WAT     H293015   8.621   3.418   8.378
30925WAT      O93016   2.096   7.264   4.159
30925WAT     H193017   2.131   7.249   4.251
30925WAT     H293018   2.171   7.289   4.098
30926WAT      O93019   2.831   4.485   0.046
30926WAT     H193020   2.914   4.463  -0.007
30926WAT     H293021   2.858   4.515   0.137
30927WAT      O93022   2.711   1.227   5.311
30927WAT     H193023   2.770   1.187   5.381
30927WAT     H293024   2.760   1.233   5.225
30928WAT      O93025   5.921   4.138   1.047
30928WAT     H193026   5.914   4.122   0.948
30928WAT     H293027   5.944   4.234   1.064
30929WAT      O93028   6.707   5.259   3.433
30929WAT     H193029   6.634   5.300   3.488
30929WAT     H293030   6.716   5.309   3.347
30930WAT      O93031   7.934   0.475   6.027
30930WAT     H193032   7.859   0.530   6.065
30930WAT     H293033   7.956   0.400   6.090
30931WAT      O93034   4.046   6.271   5.325
30931WAT     H193035   4.085   6.250   5.235
30931WAT     H293036   4.118   6.270   5.394
30932WAT      O93037   3.285   1.694   5.518
30932WAT     H193038   3.310   1.618   5.579
30932WAT     H293039   3.348   1.770   5.533
30933WAT      O93040   9.703   7.194   7.816
30933WAT     H193041   9.763   7.205   7.895
30933WAT     H293042   9.679   7.098   7.805
30934WAT      O93043   4.087   0.526   2.047
30934WAT     H193044   4.118   0.597   2.110
30934WAT     H293045   4.160   0.506   1.981
30935WAT      O93046   9.342   2.378   7.241
30935WAT     H193047   9.287   2.430   7.175
30935WAT     H293048   9.434   2.417   7.246
30936WAT      O93049   8.240   3.239   0.600
30936WAT     H193050   8.314   3.182   0.636
30936WAT     H293051   8.155   3.188   0.602
30937WAT      O93052   6.514   8.077   3.943
30937WAT     H193053   6.562   8.164   3.955
30937WAT     H293054   6.418   8.088   3.967
30938WAT      O93055   8.070   8.706   5.001
30938WAT     H193056   8.062   8.606   4.997
30938WAT     H293057   8.165   8.731   5.014
30939WAT      O93058   4.622   2.343   8.386
30939WAT     H193059   4.542   2.391   8.350
30939WAT     H293060   4.602   2.310   8.478
30940WAT      O93061   1.138   9.673   3.014
30940WAT     H193062   1.106   9.579   3.015
30940WAT     H293063   1.065   9.733   2.980
30941WAT      O93064   8.027   1.010   3.446
30941WAT     H193065   8.086   0.982   3.371
30941WAT     H293066   8.002   1.106   3.436
30942WAT      O93067   4.439   9.614   3.605
30942WAT     H193068   4.532   9.591   3.634
30942WAT     H293069   4.432   9.603   3.505
30943WAT      O93070   9.827   7.883   8.275
30943WAT     H193071   9.859   7.811   8.338
30943WAT     H293072   9.833   7.972   8.321
30944WAT      O93073   8.244   5.746   0.861
30944WAT     H193074   8.161   5.795   0.888
30944WAT     H293075   8.220   5.668   0.803
30945WAT      O93076   5.507   9.604   7.269
30945WAT     H193077   5.535   9.700   7.270
30945WAT     H293078   5.409   9.598   7.289
30946WAT      O93079   0.225   7.684   0.709
30946WAT     H193080   0.160   7.708   0.780
30946WAT     H293081   0.196   7.599   0.664
30947WAT      O93082   0.368   7.046   8.994
30947WAT     H193083   0.439   7.116   8.980
30947WAT     H293084   0.311   7.072   9.072
30948WAT      O93085   5.555   0.008   5.634
30948WAT     H193086   5.578   0.101   5.660
30948WAT     H293087   5.496  -0.033   5.703
30949WAT      O93088   9.301   6.588   3.952
30949WAT     H193089   9.224   6.621   3.899
30949WAT     H293090   9.355   6.524   3.897
30950WAT      O93091   4.522   8.742   0.694
30950WAT     H193092   4.436   8.732   0.644
30950WAT     H293093   4.528   8.834   0.733
30951WAT      O93094   3.014   2.538   5.778
30951WAT     H193095   2.970   2.627   5.764
30951WAT     H293096   3.024   2.492   5.690
30952WAT      O93097   1.354   0.716   8.869
30952WAT     H193098   1.356   0.653   8.947
30952WAT     H293099   1.263   0.757   8.860
30953WAT      O93100   1.984   2.145   7.719
30953WAT     H193101   1.979   2.172   7.815
30953WAT     H293102   1.892   2.132   7.683
30954WAT      O93103   7.950   1.873   2.727
30954WAT     H193104   8.033   1.836   2.769
30954WAT     H293105   7.958   1.972   2.718
30955WAT      O93106   2.765   7.053   2.212
30955WAT     H193107   2.715   7.077   2.295
30955WAT     H293108   2.722   7.098   2.133
30956WAT      O93109   8.335   6.101   9.793
30956WAT     H193110   8.283   6.101   9.707
30956WAT     H293111   8.422   6.148   9.780
30957WAT      O93112   6.215   4.227   2.887
30957WAT     H193113   6.261   4.279   2.815
30957WAT     H293114   6.216   4.278   2.972
30958WAT      O93115   1.515   8.194   7.319
30958WAT     H193116   1.532   8.127   7.247
30958WAT     H293117   1.601   8.240   7.343
30959WAT      O93118   8.133   7.908   8.505
30959WAT     H193119   8.084   7.975   8.560
30959WAT     H293120   8.074   7.829   8.488
30960WAT      O93121   8.142   4.136   8.434
30960WAT     H193122   8.087   4.199   8.489
30960WAT     H293123   8.195   4.187   8.368
30961WAT      O93124   8.841   5.820   3.356
30961WAT     H193125   8.831   5.721   3.345
30961WAT     H293126   8.922   5.839   3.411
30962WAT      O93127   2.925   1.741   7.541
30962WAT     H193128   2.990   1.801   7.495
30962WAT     H293129   2.856   1.796   7.589
30963WAT      O93130   6.585   3.008   3.059
30963WAT     H193131   6.641   2.962   3.128
30963WAT     H293132   6.643   3.040   2.984
30964WAT      O93133   8.968   3.608   1.023
30964WAT     H193134   9.005   3.631   0.934
30964WAT     H293135   8.886   3.551   1.012
30965WAT      O93136   3.406   4.564   6.530
30965WAT     H193137   3.435   4.563   6.435
30965WAT     H293138   3.338   4.637   6.543
30966WAT      O93139   6.464   9.647   6.067
30966WAT     H193140   6.364   9.650   6.062
30966WAT     H293141   6.501   9.739   6.056
30967WAT      O93142   2.751   1.547   9.313
30967WAT     H193143   2.733   1.454   9.343
30967WAT     H293144   2.836   1.580   9.353
30968WAT      O93145   9.818   6.758   6.705
30968WAT     H193146   9.909   6.796   6.691
30968WAT     H293147   9.764   6.820   6.763
30969WAT      O93148   0.568   6.706   9.808
30969WAT     H193149   0.537   6.742   9.896
30969WAT     H293150   0.563   6.606   9.810
30970WAT      O93151   4.055   2.276   2.612
30970WAT     H193152   4.053   2.229   2.701
30970WAT     H293153   4.084   2.212   2.541
30971WAT      O93154   3.081   7.245   4.536
30971WAT     H193155   3.162   7.199   4.499
30971WAT     H293156   3.070   7.334   4.493
30972WAT      O93157   0.087   8.771   8.421
30972WAT     H193158   0.086   8.817   8.510
30972WAT     H293159   0.038   8.684   8.428
30973WAT      O93160   8.142   1.019   8.944
30973WAT     H193161   8.176   1.095   8.999
30973WAT     H293162   8.063   0.978   8.990
30974WAT      O93163   9.795   3.431   0.769
30974WAT     H193164   9.871   3.394   0.715
30974WAT     H293165   9.713   3.378   0.751
30975WAT      O93166   3.707   8.393   7.209
30975WAT     H193167   3.726   8.398   7.307
30975WAT     H293168   3.793   8.389   7.158
30976WAT      O93169   2.395   3.449   2.329
30976WAT     H193170   2.414   3.470   2.425
30976WAT     H293171   2.386   3.350   2.318
30977WAT      O93172   5.389   9.511   0.245
30977WAT     H193173   5.415   9.588   0.304
30977WAT     H293174   5.290   9.508   0.236
30978WAT      O93175   3.099   4.129   9.061
30978WAT     H193176   3.018   4.151   9.116
30978WAT     H293177   3.083   4.045   9.009
30979WAT      O93178   3.532   3.510   3.041
30979WAT     H193179   3.505   3.558   2.958
30979WAT     H293180   3.555   3.415   3.020
30980WAT      O93181   5.590   5.490   7.976
30980WAT     H193182   5.564   5.575   8.022
30980WAT     H293183   5.687   5.491   7.955
30981WAT      O93184   5.661   9.762   8.626
30981WAT     H193185   5.667   9.850   8.578
30981WAT     H293186   5.752   9.735   8.659
30982WAT      O93187   1.372   6.749   9.001
30982WAT     H193188   1.378   6.659   8.959
30982WAT     H293189   1.428   6.751   9.085
30983WAT      O93190   7.546   8.160   1.194
30983WAT     H193191   7.602   8.077   1.191
30983WAT     H293192   7.604   8.241   1.183
30984WAT      O93193   5.339   0.072   1.150
30984WAT     H193194   5.434   0.055   1.176
30984WAT     H293195   5.336   0.130   1.069
30985WAT      O93196   2.777   5.385   6.072
30985WAT     H193197   2.857   5.368   6.015
30985WAT     H293198   2.804   5.382   6.168
30986WAT      O93199   9.307   4.600   9.171
30986WAT     H193200   9.268   4.511   9.192
30986WAT     H293201   9.331   4.647   9.256
30987WAT      O93202   2.196   3.830   5.862
30987WAT     H193203   2.158   3.922   5.870
30987WAT     H293204   2.275   3.831   5.801
30988WAT      O93205   0.734   8.330   3.480
30988WAT     H193206   0.827   8.295   3.491
30988WAT     H293207   0.725   8.376   3.392
30989WAT      O93208   7.826   7.825   9.265
30989WAT     H193209   7.740   7.855   9.307
30989WAT     H293210   7.814   7.734   9.225
30990WAT      O93211   8.724   2.458   8.322
30990WAT     H193212   8.696   2.410   8.239
30990WAT     H293213   8.648   2.512   8.357
30991WAT      O93214   6.267   0.330   0.989
30991WAT     H193215   6.255   0.383   0.905
30991WAT     H293216   6.342   0.370   1.043
30992WAT      O93217   7.351   6.782   6.358
30992WAT     H193218   7.410   6.711   6.319
30992WAT     H293219   7.323   6.755   6.450
30993WAT      O93220   1.611   5.999   9.040
30993WAT     H193221   1.530   5.955   9.079
30993WAT     H293222   1.629   6.085   9.088
30994WAT      O93223   3.430   0.351   6.181
30994WAT     H193224   3.501   0.328   6.248
30994WAT     H293225   3.470   0.351   6.089
30995WAT      O93226   5.682   0.245   5.657
30995WAT     H193227   5.637   0.319   5.707
30995WAT     H293228   5.711   0.279   5.567
30996WAT      O93229   2.649   7.721   1.654
30996WAT     H193230   2.700   7.803   1.629
30996WAT     H293231   2.663   7.650   1.584
30997WAT      O93232   3.091   0.206   0.236
30997WAT     H193233   3.061   0.110   0.237
30997WAT     H293234   3.027   0.261   0.289
30998WAT      O93235   1.829   7.061   5.767
30998WAT     H193236   1.734   7.055   5.738
30998WAT     H293237   1.857   7.157   5.770
30999WAT      O93238   5.312   4.473   3.928
30999WAT     H193239   5.285   4.541   3.860
30999WAT     H293240   5.237   4.408   3.942
31000WAT      O93241   2.035   3.476   2.823
31000WAT     H193242   2.094   3.410   2.868
31000WAT     H293243   1.951   3.489   2.877
31001WAT      O93244   0.957   7.327   5.306
31001WAT     H193245   1.000   7.351   5.219
31001WAT     H293246   1.004   7.248   5.346
31002WAT      O93247   0.837   4.994   5.255
31002WAT     H193248   0.845   4.906   5.209
31002WAT     H293249   0.743   5.006   5.289
31003WAT      O93250   8.430   9.570   1.897
31003WAT     H193251   8.394   9.518   1.974
31003WAT     H293252   8.410   9.668   1.911
31004WAT      O93253   0.976   1.266   4.767
31004WAT     H193254   0.952   1.299   4.675
31004WAT     H293255   1.036   1.332   4.811
31005WAT      O93256   6.251   1.494   6.894
31005WAT     H193257   6.201   1.413   6.862
31005WAT     H293258   6.349   1.481   6.879
31006WAT      O93259   1.590   0.297   6.601
31006WAT     H193260   1.533   0.328   6.678
31006WAT     H293261   1.548   0.325   6.515
31007WAT      O93262   7.339   0.001   0.493
31007WAT     H193263   7.295  -0.066   0.552
31007WAT     H293264   7.270   0.060   0.452
31008WAT      O93265   6.418   5.432   4.235
31008WAT     H193266   6.411   5.390   4.326
31008WAT     H293267   6.513   5.433   4.206
31009WAT      O93268   9.359   1.660   3.745
31009WAT     H193269   9.396   1.718   3.672
31009WAT     H293270   9.403   1.570   3.740
31010WAT      O93271   0.078   7.472   3.389
31010WAT     H193272   0.073   7.557   3.442
31010WAT     H293273  -0.007   7.421   3.400
31011WAT      O93274   1.242   4.848   8.499
31011WAT     H193275   1.168   4.784   8.483
31011WAT     H293276   1.253   4.908   8.420
31012WAT      O93277   8.599   2.892   6.684
31012WAT     H193278   8.596   2.951   6.764
31012WAT     H293279   8.512   2.898   6.635
31013WAT      O93280   8.258   1.897   3.361
31013WAT     H193281   8.292   1.942   3.443
31013WAT     H293282   8.289   1.802   3.359
31014WAT      O93283   7.386   8.198   8.052
31014WAT     H193284   7.357   8.293   8.048
31014WAT     H293285   7.317   8.139   8.010
31015WAT      O93286   6.565   5.147   4.660
31015WAT     H193287   6.582   5.212   4.734
31015WAT     H293288   6.492   5.181   4.602
31016WAT      O93289   6.851   0.365   2.008
31016WAT     H193290   6.940   0.347   2.049
31016WAT     H293291   6.795   0.283   2.010
31017WAT      O93292   4.620   4.386   0.108
31017WAT     H193293   4.617   4.286   0.107
31017WAT     H293294   4.715   4.416   0.102
31018WAT      O93295   8.100   7.869   8.958
31018WAT     H193296   8.021   7.832   8.910
31018WAT     H293297   8.173   7.801   8.962
31019WAT      O93298   8.593   1.574   3.940
31019WAT     H193299   8.536   1.502   3.901
31019WAT     H293300   8.577   1.579   4.038
31020WAT      O93301   2.874   4.181   9.166
31020WAT     H193302   2.811   4.152   9.094
31020WAT     H293303   2.833   4.163   9.255
31021WAT      O93304   1.234   7.630   0.213
31021WAT     H193305   1.285   7.709   0.246
31021WAT     H293306   1.160   7.661   0.152
31022WAT      O93307   8.657   6.846   9.855
31022WAT     H193308   8.636   6.944   9.864
31022WAT     H293309   8.638   6.800   9.941
31023WAT      O93310   5.142   8.884   1.119
31023WAT     H193311   5.125   8.925   1.029
31023WAT     H293312   5.206   8.808   1.109
31024WAT      O93313   9.710   3.149   0.465
31024WAT     H193314   9.698   3.226   0.402
31024WAT     H293315   9.621   3.108   0.484
31025WAT      O93316   5.066   2.490   4.716
31025WAT     H193317   5.156   2.507   4.756
31025WAT     H293318   4.998   2.549   4.759
31026WAT      O93319   3.047   7.274   7.175
31026WAT     H193320   2.976   7.342   7.196
31026WAT     H293321   3.008   7.202   7.118
31027WAT      O93322   7.192   1.520   2.506
31027WAT     H193323   7.131   1.581   2.557
31027WAT     H293324   7.219   1.563   2.421
31028WAT      O93325   2.473   9.089   7.698
31028WAT     H193326   2.455   9.122   7.790
31028WAT     H293327   2.471   8.989   7.698
31029WAT      O93328   0.797   8.704   4.525
31029WAT     H193329   0.760   8.704   4.432
31029WAT     H293330   0.845   8.789   4.542
31030WAT      O93331   4.025   7.730   3.613
31030WAT     H193332   4.066   7.639   3.600
31030WAT     H293333   4.078   7.798   3.563
31031WAT      O93334   6.494   9.412   8.003
31031WAT     H193335   6.560   9.487   8.012
31031WAT     H293336   6.419   9.426   8.067
31032WAT      O93337   7.514   1.228   8.011
31032WAT     H193338   7.430   1.187   7.974
31032WAT     H293339   7.573   1.256   7.935
31033WAT      O93340   5.767   5.346   5.639
31033WAT     H193341   5.839   5.403   5.679
31033WAT     H293342   5.796   5.316   5.548
31034WAT      O93343   8.232   4.896   5.449
31034WAT     H193344   8.272   4.986   5.433
31034WAT     H293345   8.138   4.894   5.417
31035WAT      O93346   5.762   1.440   0.321
31035WAT     H193347   5.718   1.389   0.396
31035WAT     H293348   5.691   1.481   0.264
31036WAT      O93349   6.325   1.968   4.725
31036WAT     H193350   6.351   1.983   4.820
31036WAT     H293351   6.281   1.879   4.716
31037WAT      O93352   5.211   5.173   9.711
31037WAT     H193353   5.268   5.170   9.793
31037WAT     H293354   5.122   5.212   9.734
31038WAT      O93355   7.206   1.343   6.620
31038WAT     H193356   7.285   1.403   6.617
31038WAT     H293357   7.124   1.393   6.593
31039WAT      O93358   6.579   8.346   8.698
31039WAT     H193359   6.654   8.298   8.653
31039WAT     H293360   6.602   8.360   8.795
31040WAT      O93361   7.355   9.403   6.104
31040WAT     H193362   7.381   9.480   6.162
31040WAT     H293363   7.380   9.423   6.009
31041WAT      O93364   1.970   7.205   2.986
31041WAT     H193365   1.875   7.218   3.014
31041WAT     H293366   2.006   7.292   2.951
31042WAT      O93367   5.039   2.039   7.635
31042WAT     H193368   5.070   2.134   7.627
31042WAT     H293369   5.114   1.977   7.609
31043WAT      O93370   2.595   5.887   6.745
31043WAT     H193371   2.552   5.819   6.805
31043WAT     H293372   2.652   5.949   6.799
31044WAT      O93373   0.121   5.742   9.112
31044WAT     H193374   0.194   5.806   9.137
31044WAT     H293375   0.057   5.787   9.051
31045WAT      O93376   6.803   1.837   1.381
31045WAT     H193377   6.810   1.937   1.374
31045WAT     H293378   6.878   1.795   1.331
31046WAT      O93379   0.481   2.846   2.753
31046WAT     H193380   0.418   2.786   2.802
31046WAT     H293381   0.498   2.928   2.808
31047WAT      O93382   6.859   5.341   0.073
31047WAT     H193383   6.785   5.407   0.058
31047WAT     H293384   6.822   5.256   0.110
31048WAT      O93385   8.563   1.349   4.209
31048WAT     H193386   8.495   1.421   4.203
31048WAT     H293387   8.549   1.283   4.135
31049WAT      O93388   1.709   5.775   0.378
31049WAT     H193389   1.657   5.693   0.353
31049WAT     H293390   1.658   5.829   0.444
31050WAT      O93391   7.697   1.851   1.616
31050WAT     H193392   7.605   1.813   1.625
31050WAT     H293393   7.763   1.776   1.611
31051WAT      O93394   9.106   0.263   0.104
31051WAT     H193395   9.147   0.281   0.193
31051WAT     H293396   9.163   0.197   0.054
31052WAT      O93397   2.705   6.921   1.020
31052WAT     H193398   2.699   6.822   1.039
31052WAT     H293399   2.796   6.943   0.985
31053WAT      O93400   0.478   6.777   0.169
31053WAT     H193401   0.529   6.724   0.237
31053WAT     H293402   0.401   6.822   0.212
31054WAT      O93403   0.371   0.862   3.782
31054WAT     H193404   0.396   0.847   3.877
31054WAT     H293405   0.301   0.934   3.776
31055WAT      O93406   0.084   0.119   9.152
31055WAT     H193407  -0.002   0.069   9.159
31055WAT     H293408   0.141   0.097   9.232
31056WAT      O93409   3.979   2.210   0.746
31056WAT     H193410   3.922   2.289   0.722
31056WAT     H293411   3.952   2.177   0.836
31057WAT      O93412   9.629   2.332   4.814
31057WAT     H193413   9.727   2.330   4.836
31057WAT     H293414   9.609   2.269   4.740
31058WAT      O93415   2.224   9.352   2.190
31058WAT     H193416   2.309   9.404   2.182
31058WAT     H293417   2.246   9.255   2.205
31059WAT      O93418   4.080   3.414   8.570
31059WAT     H193419   4.015   3.450   8.637
31059WAT     H293420   4.173   3.443   8.595
31060WAT      O93421   7.374   4.257   1.999
31060WAT     H193422   7.456   4.213   2.035
31060WAT     H293423   7.335   4.317   2.069
31061WAT      O93424   7.458   3.352   5.782
31061WAT     H193425   7.520   3.347   5.704
31061WAT     H293426   7.484   3.282   5.849
31062WAT      O93427   9.662   2.761   0.832
31062WAT     H193428   9.677   2.757   0.734
31062WAT     H293429   9.701   2.846   0.868
31063WAT      O93430   1.576   6.884   4.785
31063WAT     H193431   1.570   6.793   4.744
31063WAT     H293432   1.636   6.942   4.729
31064WAT      O93433   4.932   7.972   1.696
31064WAT     H193434   4.974   8.058   1.667
31064WAT     H293435   4.889   7.985   1.785
31065WAT      O93436   0.506   9.271   2.696
31065WAT     H193437   0.411   9.288   2.670
31065WAT     H293438   0.512   9.265   2.795
31066WAT      O93439   3.682   8.656   7.212
31066WAT     H193440   3.735   8.679   7.294
31066WAT     H293441   3.699   8.561   7.187
31067WAT      O93442   9.087   5.251   9.159
31067WAT     H193443   9.034   5.330   9.129
31067WAT     H293444   9.118   5.266   9.253
31068WAT      O93445   4.258   5.284   7.944
31068WAT     H193446   4.310   5.232   7.876
31068WAT     H293447   4.294   5.265   8.035
31069WAT      O93448   8.999   2.503   6.894
31069WAT     H193449   8.937   2.426   6.913
31069WAT     H293450   8.948   2.575   6.847
31070WAT      O93451   9.231   0.041   9.871
31070WAT     H193452   9.292   0.021   9.948
31070WAT     H293453   9.180  -0.041   9.846
31071WAT      O93454   0.910   5.275   2.052
31071WAT     H193455   0.867   5.187   2.073
31071WAT     H293456   0.981   5.261   1.983
31072WAT      O93457   1.045   9.565   7.060
31072WAT     H193458   1.061   9.495   6.991
31072WAT     H293459   1.133   9.592   7.101
31073WAT      O93460   5.959   4.415   1.737
31073WAT     H193461   5.882   4.469   1.771
31073WAT     H293462   5.931   4.366   1.654
31074WAT      O93463   4.154   5.297   1.773
31074WAT     H193464   4.114   5.262   1.857
31074WAT     H293465   4.224   5.365   1.795
31075WAT      O93466   1.838   6.776   2.897
31075WAT     H193467   1.923   6.822   2.923
31075WAT     H293468   1.848   6.677   2.907
31076WAT      O93469   8.755   5.026   0.233
31076WAT     H193470   8.846   5.041   0.194
31076WAT     H293471   8.718   5.113   0.265
31077WAT      O93472   8.039   2.907   8.277
31077WAT     H193473   8.071   2.930   8.368
31077WAT     H293474   8.116   2.907   8.213
31078WAT      O93475   7.344   3.577   2.219
31078WAT     H193476   7.372   3.584   2.315
31078WAT     H293477   7.369   3.661   2.171
31079WAT      O93478   2.884   5.519   9.278
31079WAT     H193479   2.889   5.456   9.355
31079WAT     H293480   2.904   5.471   9.193
31080WAT      O93481   7.739   1.760   3.604
31080WAT     H193482   7.656   1.790   3.557
31080WAT     H293483   7.713   1.701   3.681
31081WAT      O93484   5.558   0.091   3.668
31081WAT     H193485   5.643   0.101   3.721
31081WAT     H293486   5.569   0.016   3.603
31082WAT      O93487   6.074   0.622   7.306
31082WAT     H193488   6.059   0.717   7.333
31082WAT     H293489   6.007   0.596   7.238
31083WAT      O93490   3.214   1.683   6.549
31083WAT     H193491   3.302   1.643   6.523
31083WAT     H293492   3.202   1.674   6.648
31084WAT      O93493   2.817   5.413   8.553
31084WAT     H193494   2.729   5.390   8.594
31084WAT     H293495   2.888   5.415   8.623
31085WAT      O93496   0.602   9.160   1.987
31085WAT     H193497   0.591   9.252   1.949
31085WAT     H293498   0.681   9.159   2.048
31086WAT      O93499   8.532   6.807   4.310
31086WAT     H193500   8.491   6.879   4.254
31086WAT     H293501   8.629   6.827   4.326
31087WAT      O93502   0.449   4.577   2.471
31087WAT     H193503   0.405   4.592   2.383
31087WAT     H293504   0.468   4.665   2.515
31088WAT      O93505   7.200   7.583   9.075
31088WAT     H193506   7.189   7.493   9.116
31088WAT     H293507   7.130   7.645   9.111
31089WAT      O93508   6.763   6.830   5.918
31089WAT     H193509   6.711   6.761   5.868
31089WAT     H293510   6.699   6.894   5.962
31090WAT      O93511   4.830   7.902   5.648
31090WAT     H193512   4.829   7.890   5.549
31090WAT     H293513   4.782   7.826   5.692
31091WAT      O93514   4.840   8.896   3.538
31091WAT     H193515   4.756   8.907   3.485
31091WAT     H293516   4.876   8.804   3.525
31092WAT      O93517   6.628   3.216   1.520
31092WAT     H193518   6.561   3.143   1.530
31092WAT     H293519   6.586   3.304   1.542
31093WAT      O93520   7.702   8.098   4.682
31093WAT     H193521   7.679   8.162   4.609
31093WAT     H293522   7.635   8.024   4.685
31094WAT      O93523   2.597   7.629   9.033
31094WAT     H193524   2.631   7.590   8.948
31094WAT     H293525   2.666   7.619   9.105
31095WAT      O93526   3.044   4.759   6.474
31095WAT     H193527   3.136   4.785   6.502
31095WAT     H293528   2.987   4.746   6.555
31096WAT      O93529   0.129   5.292   9.869
31096WAT     H193530   0.039   5.334   9.857
31096WAT     H293531   0.198   5.363   9.877
31097WAT      O93532   4.928   2.654   5.585
31097WAT     H193533   4.951   2.710   5.505
31097WAT     H293534   4.944   2.558   5.564
31098WAT      O93535   4.299   8.687   5.271
31098WAT     H193536   4.253   8.603   5.242
31098WAT     H293537   4.329   8.738   5.190
31099WAT      O93538   2.051   6.450   9.496
31099WAT     H193539   2.144   6.483   9.481
31099WAT     H293540   2.039   6.362   9.449
31100WAT      O93541   8.221   8.176   4.901
31100WAT     H193542   8.276   8.141   4.977
31100WAT     H293543   8.176   8.099   4.855
31101WAT      O93544   4.968   4.939   5.539
31101WAT     H193545   4.967   4.996   5.456
31101WAT     H293546   4.889   4.962   5.596
31102WAT      O93547   5.490   0.194   4.433
31102WAT     H193548   5.507   0.277   4.486
31102WAT     H293549   5.442   0.127   4.489
31103WAT      O93550   8.344   8.017   8.208
31103WAT     H193551   8.245   8.027   8.198
31103WAT     H293552   8.375   7.939   8.154
31104WAT      O93553   9.733   3.649   0.388
31104WAT     H193554   9.718   3.714   0.314
31104WAT     H293555   9.823   3.607   0.378
31105WAT      O93556   7.789   0.872   1.982
31105WAT     H193557   7.832   0.822   2.057
31105WAT     H293558   7.822   0.966   1.981
31106WAT      O93559   1.194   3.481   2.327
31106WAT     H193560   1.107   3.434   2.348
31106WAT     H293561   1.177   3.557   2.265
31107WAT      O93562   2.051   3.636   7.820
31107WAT     H193563   2.041   3.608   7.915
31107WAT     H293564   2.116   3.711   7.813
31108WAT      O93565   7.889   5.302   3.971
31108WAT     H193566   7.932   5.236   4.033
31108WAT     H293567   7.954   5.375   3.952
31109WAT      O93568   8.850   4.027   7.023
31109WAT     H193569   8.853   4.111   7.078
31109WAT     H293570   8.815   4.048   6.931
31110WAT      O93571   9.153   8.364   7.197
31110WAT     H193572   9.211   8.309   7.137
31110WAT     H293573   9.057   8.338   7.182
31111WAT      O93574   8.161   0.200   3.558
31111WAT     H193575   8.245   0.249   3.536
31111WAT     H293576   8.140   0.213   3.655
31112WAT      O93577   7.013   5.133   6.973
31112WAT     H193578   6.992   5.096   7.063
31112WAT     H293579   6.982   5.228   6.967
31113WAT      O93580   3.146   2.252   6.509
31113WAT     H193581   3.112   2.338   6.546
31113WAT     H293582   3.170   2.264   6.413
31114WAT      O93583   8.805   4.323   6.868
31114WAT     H193584   8.736   4.251   6.860
31114WAT     H293585   8.874   4.296   6.935
31115WAT      O93586   3.407   1.564   2.005
31115WAT     H193587   3.490   1.566   1.949
31115WAT     H293588   3.432   1.556   2.101
31116WAT      O93589   3.620   6.009   1.227
31116WAT     H193590   3.654   5.927   1.271
31116WAT     H293591   3.688   6.043   1.162
31117WAT      O93592   2.048   7.475   5.332
31117WAT     H193593   1.971   7.429   5.377
31117WAT     H293594   2.134   7.432   5.361
31118WAT      O93595   6.497   4.014   8.875
31118WAT     H193596   6.553   4.080   8.925
31118WAT     H293597   6.441   3.962   8.940
31119WAT      O93598   5.795   6.452   9.405
31119WAT     H193599   5.709   6.485   9.366
31119WAT     H293600   5.816   6.506   9.487
31120WAT      O93601   1.282   8.581   2.931
31120WAT     H193602   1.293   8.567   3.029
31120WAT     H293603   1.198   8.634   2.915
31121WAT      O93604   6.020   5.612   1.734
31121WAT     H193605   5.993   5.545   1.665
31121WAT     H293606   6.084   5.677   1.694
31122WAT      O93607   9.046   0.947   7.609
31122WAT     H193608   9.016   0.856   7.636
31122WAT     H293609   9.019   1.013   7.678
31123WAT      O93610   0.525   5.559   0.599
31123WAT     H193611   0.478   5.536   0.684
31123WAT     H293612   0.593   5.489   0.578
31124WAT      O93613   7.704   8.611   4.014
31124WAT     H193614   7.780   8.555   3.980
31124WAT     H293615   7.687   8.686   3.950
31125WAT      O93616   6.675   8.600   5.620
31125WAT     H193617   6.619   8.517   5.614
31125WAT     H293618   6.752   8.593   5.557
31126WAT      O93619   6.809   3.485   0.084
31126WAT     H193620   6.749   3.532   0.019
31126WAT     H293621   6.867   3.552   0.131
31127WAT      O93622   8.647   5.445   7.582
31127WAT     H193623   8.741   5.475   7.596
31127WAT     H293624   8.642   5.345   7.586
31128WAT      O93625   1.566   2.582   3.048
31128WAT     H193626   1.498   2.519   3.011
31128WAT     H293627   1.598   2.643   2.975
31129WAT      O93628   8.290   6.364   0.855
31129WAT     H193629   8.234   6.311   0.918
31129WAT     H293630   8.235   6.391   0.776
31130WAT      O93631   0.648   0.416   9.113
31130WAT     H193632   0.604   0.333   9.147
31130WAT     H293633   0.591   0.459   9.044
31131WAT      O93634   6.025   4.967   7.660
31131WAT     H193635   6.115   5.003   7.636
31131WAT     H293636   5.956   5.002   7.597
31132WAT      O93637   5.677   5.111   1.217
31132WAT     H193638   5.713   5.026   1.255
31132WAT     H293639   5.646   5.170   1.292
31133WAT      O93640   2.146   5.947   2.790
31133WAT     H193641   2.228   5.890   2.800
31133WAT     H293642   2.095   5.947   2.876
31134WAT      O93643   9.262   3.694   5.365
31134WAT     H193644   9.220   3.647   5.443
31134WAT     H293645   9.356   3.663   5.353
31135WAT      O93646   4.070   3.045   1.346
31135WAT     H193647   4.009   3.111   1.302
31135WAT     H293648   4.153   3.092   1.377
31136WAT      O93649   3.394   8.349   2.183
31136WAT     H193650   3.327   8.275   2.176
31136WAT     H293651   3.463   8.338   2.112
31137WAT      O93652   8.280   3.133   1.968
31137WAT     H193653   8.269   3.140   1.868
31137WAT     H293654   8.372   3.100   1.988
31138WAT      O93655   2.195   0.322   0.942
31138WAT     H193656   2.183   0.411   0.897
31138WAT     H293657   2.112   0.298   0.991
31139WAT      O93658   3.136   8.184   5.781
31139WAT     H193659   3.081   8.244   5.724
31139WAT     H293660   3.089   8.096   5.793
31140WAT      O93661   6.150   9.040   6.940
31140WAT     H193662   6.060   9.083   6.948
31140WAT     H293663   6.207   9.093   6.876
31141WAT      O93664   8.111   8.330   8.947
31141WAT     H193665   8.043   8.315   9.019
31141WAT     H293666   8.127   8.244   8.898
31142WAT      O93667   1.535   1.038   7.289
31142WAT     H193668   1.499   0.973   7.355
31142WAT     H293669   1.598   1.101   7.335
31143WAT      O93670   8.017   0.094   7.701
31143WAT     H193671   8.087   0.072   7.769
31143WAT     H293672   7.928   0.060   7.732
31144WAT      O93673   9.371   1.556   7.326
31144WAT     H193674   9.380   1.649   7.290
31144WAT     H293675   9.460   1.525   7.360
31145WAT      O93676   0.493   0.623   5.801
31145WAT     H193677   0.426   0.693   5.775
31145WAT     H293678   0.511   0.564   5.722
31146WAT      O93679   3.246   9.231   8.520
31146WAT     H193680   3.187   9.285   8.580
31146WAT     H293681   3.237   9.134   8.542
31147WAT      O93682   0.983   8.060   5.437
31147WAT     H193683   1.043   7.999   5.489
31147WAT     H293684   0.922   8.109   5.500
31148WAT      O93685   8.107   9.835   5.000
31148WAT     H193686   8.118   9.934   5.010
31148WAT     H293687   8.176   9.788   5.054
31149WAT      O93688   9.854   0.914   3.409
31149WAT     H193689   9.828   0.929   3.505
31149WAT     H293690   9.866   1.002   3.363
31150WAT      O93691   4.738   1.240   8.582
31150WAT     H193692   4.749   1.141   8.572
31150WAT     H293693   4.805   1.275   8.648
31151WAT      O93694   3.123   5.634   9.456
31151WAT     H193695   3.075   5.674   9.378
31151WAT     H293696   3.121   5.698   9.533
31152WAT      O93697   7.570   1.081   3.461
31152WAT     H193698   7.508   1.003   3.449
31152WAT     H293699   7.542   1.135   3.540
31153WAT      O93700   5.963   9.115   0.045
31153WAT     H193701   5.948   9.042  -0.020
31153WAT     H293702   6.059   9.144   0.042
31154WAT      O93703   2.064   0.879   0.248
31154WAT     H193704   1.979   0.846   0.289
31154WAT     H293705   2.138   0.872   0.316
31155WAT      O93706   4.048   9.261   7.828
31155WAT     H193707   4.017   9.211   7.909
31155WAT     H293708   3.984   9.245   7.753
31156WAT      O93709   0.931   7.299   1.236
31156WAT     H193710   0.966   7.287   1.143
31156WAT     H293711   0.959   7.388   1.272
31157WAT      O93712   0.529   1.874   7.301
31157WAT     H193713   0.451   1.813   7.289
31157WAT     H293714   0.499   1.958   7.346
31158WAT      O93715   2.784   4.294   3.809
31158WAT     H193716   2.733   4.209   3.828
31158WAT     H293717   2.873   4.271   3.769
31159WAT      O93718   8.558   5.146   2.536
31159WAT     H193719   8.563   5.142   2.635
31159WAT     H293720   8.545   5.054   2.500
31160WAT      O93721   7.053   6.958   5.975
31160WAT     H193722   6.974   6.998   6.020
31160WAT     H293723   7.023   6.905   5.896
31161WAT      O93724   4.762   9.168   0.103
31161WAT     H193725   4.739   9.214   0.017
31161WAT     H293726   4.681   9.120   0.137
31162WAT      O93727   5.077   1.980   0.168
31162WAT     H193728   5.107   1.891   0.133
31162WAT     H293729   5.146   2.016   0.231
31163WAT      O93730   1.423   9.506   1.040
31163WAT     H193731   1.463   9.419   1.012
31163WAT     H293732   1.324   9.504   1.023
31164WAT      O93733   2.269   6.806   9.030
31164WAT     H193734   2.214   6.796   9.113
31164WAT     H293735   2.209   6.806   8.950
31165WAT      O93736   2.907   2.516   6.359
31165WAT     H193737   2.953   2.503   6.448
31165WAT     H293738   2.949   2.456   6.291
31166WAT      O93739   3.659   0.204   3.496
31166WAT     H193740   3.652   0.185   3.594
31166WAT     H293741   3.570   0.190   3.453
31167WAT      O93742   8.063   7.684   3.184
31167WAT     H193743   8.024   7.597   3.217
31167WAT     H293744   8.157   7.692   3.216
31168WAT      O93745   0.348   7.005   7.791
31168WAT     H193746   0.358   6.962   7.701
31168WAT     H293747   0.398   6.952   7.859
31169WAT      O93748   5.281   1.834   3.652
31169WAT     H193749   5.242   1.893   3.581
31169WAT     H293750   5.311   1.748   3.611
31170WAT      O93751   0.624   6.596   4.225
31170WAT     H193752   0.624   6.592   4.125
31170WAT     H293753   0.540   6.639   4.257
31171WAT      O93754   7.993   5.590   7.768
31171WAT     H193755   7.911   5.645   7.751
31171WAT     H293756   8.028   5.608   7.859
31172WAT      O93757   6.992   8.681   3.085
31172WAT     H193758   7.074   8.624   3.094
31172WAT     H293759   7.015   8.776   3.104
31173WAT      O93760   4.282   1.606   7.681
31173WAT     H193761   4.340   1.561   7.749
31173WAT     H293762   4.261   1.699   7.711
31174WAT      O93763   1.590   4.674   3.559
31174WAT     H193764   1.646   4.591   3.568
31174WAT     H293765   1.648   4.750   3.530
31175WAT      O93766   0.327   8.556   1.528
31175WAT     H193767   0.372   8.467   1.522
31175WAT     H293768   0.377   8.623   1.473
31176WAT      O93769   0.978   8.969   1.684
31176WAT     H193770   0.894   8.977   1.738
31176WAT     H293771   0.957   8.934   1.593
31177WAT      O93772   5.439   4.279   7.889
31177WAT     H193773   5.432   4.194   7.837
31177WAT     H293774   5.449   4.356   7.826
31178WAT      O93775   6.753   3.098   2.882
31178WAT     H193776   6.841   3.144   2.887
31178WAT     H293777   6.756   3.029   2.809
31179WAT      O93778   0.899   4.013   4.546
31179WAT     H193779   0.984   3.978   4.508
31179WAT     H293780   0.856   3.943   4.602
31180WAT      O93781   3.227   0.806   3.412
31180WAT     H193782   3.251   0.733   3.477
31180WAT     H293783   3.140   0.783   3.367
31181WAT      O93784   4.078   5.291   9.568
31181WAT     H193785   4.002   5.255   9.514
31181WAT     H293786   4.050   5.377   9.610
31182WAT      O93787   4.675   9.003   1.585
31182WAT     H193788   4.605   8.938   1.555
31182WAT     H293789   4.689   8.993   1.683
31183WAT      O93790   0.177   5.635   0.944
31183WAT     H193791   0.193   5.652   1.041
31183WAT     H293792   0.126   5.711   0.905
31184WAT      O93793   0.348   6.907   3.763
31184WAT     H193794   0.327   7.005   3.758
31184WAT     H293795   0.264   6.854   3.753
31185WAT      O93796   0.433   9.407   6.336
31185WAT     H193797   0.337   9.388   6.357
31185WAT     H293798   0.439   9.472   6.261
31186WAT      O93799   7.482   5.268   0.758
31186WAT     H193800   7.559   5.216   0.719
31186WAT     H293801   7.496   5.280   0.856
31187WAT      O93802   0.632   5.774   0.175
31187WAT     H193803   0.536   5.777   0.202
31187WAT     H293804   0.685   5.727   0.246
31188WAT      O93805   2.154   0.836   6.888
31188WAT     H193806   2.160   0.853   6.987
31188WAT     H293807   2.091   0.761   6.871
31189WAT      O93808   6.539   6.535   8.150
31189WAT     H193809   6.454   6.521   8.100
31189WAT     H293810   6.540   6.476   8.231
31190WAT      O93811   5.159   7.298   2.574
31190WAT     H193812   5.067   7.288   2.535
31190WAT     H293813   5.221   7.333   2.504
31191WAT      O93814   0.900   1.236   9.335
31191WAT     H193815   0.999   1.222   9.337
31191WAT     H293816   0.873   1.271   9.245
31192WAT      O93817   5.295   3.850   5.664
31192WAT     H193818   5.240   3.807   5.736
31192WAT     H293819   5.367   3.906   5.706
31193WAT      O93820   0.539   3.047   1.030
31193WAT     H193821   0.466   2.978   1.024
31193WAT     H293822   0.620   3.014   0.981
31194WAT      O93823   6.768   8.961   2.352
31194WAT     H193824   6.769   9.023   2.431
31194WAT     H293825   6.737   9.010   2.271
31195WAT      O93826   5.996   6.325   1.041
31195WAT     H193827   5.911   6.284   1.075
31195WAT     H293828   6.025   6.277   0.958
31196WAT      O93829   1.879   4.751   6.483
31196WAT     H193830   1.883   4.674   6.419
31196WAT     H293831   1.901   4.718   6.575
31197WAT      O93832   4.295   5.146   7.242
31197WAT     H193833   4.321   5.242   7.235
31197WAT     H293834   4.198   5.136   7.221
31198WAT      O93835   2.835   1.207   7.112
31198WAT     H193836   2.867   1.250   7.028
31198WAT     H293837   2.742   1.237   7.132
31199WAT      O93838   3.352   5.457   1.593
31199WAT     H193839   3.394   5.492   1.676
31199WAT     H293840   3.415   5.392   1.550
31200WAT      O93841   5.851   1.559   4.425
31200WAT     H193842   5.898   1.611   4.497
31200WAT     H293843   5.827   1.621   4.350
31201WAT      O93844   6.586   8.134   0.368
31201WAT     H193845   6.539   8.090   0.444
31201WAT     H293846   6.519   8.177   0.308
31202WAT      O93847   5.646   7.691   0.006
31202WAT     H193848   5.608   7.711   0.097
31202WAT     H293849   5.622   7.765  -0.057
31203WAT      O93850   7.477   9.814   3.099
31203WAT     H193851   7.530   9.898   3.086
31203WAT     H293852   7.528   9.736   3.062
31204WAT      O93853   6.209   0.661   0.046
31204WAT     H193854   6.250   0.632  -0.040
31204WAT     H293855   6.243   0.752   0.071
31205WAT      O93856   9.113   3.791   9.738
31205WAT     H193857   9.050   3.725   9.780
31205WAT     H293858   9.079   3.884   9.752
31206WAT      O93859   6.346   1.811   6.345
31206WAT     H193860   6.256   1.840   6.311
31206WAT     H293861   6.406   1.791   6.267
31207WAT      O93862   3.038   2.603   3.622
31207WAT     H193863   3.098   2.631   3.697
31207WAT     H293864   2.945   2.590   3.657
31208WAT      O93865   4.402   6.280   6.940
31208WAT     H193866   4.307   6.253   6.924
31208WAT     H293867   4.425   6.356   6.880
31209WAT      O93868   5.524   1.774   0.296
31209WAT     H193869   5.604   1.820   0.258
31209WAT     H293870   5.518   1.793   0.395
31210WAT      O93871   1.455   4.128   9.396
31210WAT     H193872   1.542   4.084   9.417
31210WAT     H293873   1.447   4.212   9.450
31211WAT      O93874   8.206   1.089   7.269
31211WAT     H193875   8.272   1.164   7.270
31211WAT     H293876   8.113   1.125   7.262
31212WAT      O93877   0.972   3.453   8.552
31212WAT     H193878   0.936   3.541   8.523
31212WAT     H293879   1.060   3.467   8.599
31213WAT      O93880   7.707   4.040   0.511
31213WAT     H193881   7.785   4.071   0.566
31213WAT     H293882   7.717   3.944   0.489
31214WAT      O93883   1.322   9.342   9.796
31214WAT     H193884   1.404   9.366   9.846
31214WAT     H293885   1.284   9.257   9.832
31215WAT      O93886   7.856   6.669   6.222
31215WAT     H193887   7.819   6.592   6.170
31215WAT     H293888   7.843   6.753   6.171
31216WAT      O93889   6.975   3.395   0.372
31216WAT     H193890   7.056   3.432   0.325
31216WAT     H293891   6.957   3.302   0.339
31217WAT      O93892   8.976   7.752   7.512
31217WAT     H193893   8.945   7.847   7.502
31217WAT     H293894   9.052   7.748   7.577
31218WAT      O93895   4.086   8.597   0.884
31218WAT     H193896   4.012   8.548   0.838
31218WAT     H293897   4.078   8.695   0.866
31219WAT      O93898   5.418   1.620   5.572
31219WAT     H193899   5.512   1.601   5.544
31219WAT     H293900   5.410   1.609   5.670
31220WAT      O93901   9.586   6.176   4.421
31220WAT     H193902   9.610   6.194   4.517
31220WAT     H293903   9.602   6.079   4.402
31221WAT      O93904   6.599   9.505   1.279
31221WAT     H193905   6.503   9.531   1.275
31221WAT     H293906   6.656   9.587   1.279
31222WAT      O93907   1.862   1.562   8.236
31222WAT     H193908   1.791   1.613   8.283
31222WAT     H293909   1.826   1.527   8.150
31223WAT      O93910   5.119   7.062   4.834
31223WAT     H193911   5.130   6.976   4.785
31223WAT     H293912   5.198   7.078   4.893
31224WAT      O93913   5.898   2.400   7.042
31224WAT     H193914   5.939   2.310   7.058
31224WAT     H293915   5.876   2.410   6.945
31225WAT      O93916   6.232   8.768   3.529
31225WAT     H193917   6.172   8.691   3.548
31225WAT     H293918   6.251   8.773   3.431
31226WAT      O93919   7.741   0.164   9.174
31226WAT     H193920   7.644   0.185   9.186
31226WAT     H293921   7.767   0.091   9.238
31227WAT      O93922   1.235   8.918   3.438
31227WAT     H193923   1.218   9.017   3.431
31227WAT     H293924   1.229   8.877   3.348
31228WAT      O93925   5.421   3.480   9.041
31228WAT     H193926   5.323   3.489   9.024
31228WAT     H293927   5.458   3.405   8.986
31229WAT      O93928   8.525   9.218   6.604
31229WAT     H193929   8.623   9.233   6.617
31229WAT     H293930   8.511   9.140   6.544
31230WAT      O93931   5.761   2.975   9.141
31230WAT     H193932   5.662   2.988   9.151
31230WAT     H293933   5.803   3.059   9.109
31231WAT      O93934   6.683   0.786   0.188
31231WAT     H193935   6.598   0.738   0.165
31231WAT     H293936   6.738   0.797   0.105
31232WAT      O93937   1.145   9.537   4.841
31232WAT     H193938   1.194   9.604   4.896
31232WAT     H293939   1.207   9.464   4.813
31233WAT      O93940   3.437   2.252   2.947
31233WAT     H193941   3.344   2.217   2.930
31233WAT     H293942   3.493   2.237   2.865
31234WAT      O93943   2.976   8.423   4.736
31234WAT     H193944   2.983   8.411   4.835
31234WAT     H293945   2.884   8.454   4.712
31235WAT      O93946   7.976   0.497   1.302
31235WAT     H193947   8.005   0.402   1.296
31235WAT     H293948   7.940   0.516   1.393
31236WAT      O93949   3.860   6.429   8.842
31236WAT     H193950   3.858   6.452   8.745
31236WAT     H293951   3.945   6.380   8.863
31237WAT      O93952   4.071   8.886   0.564
31237WAT     H193953   3.998   8.835   0.520
31237WAT     H293954   4.050   8.898   0.661
31238WAT      O93955   8.876   2.998   0.209
31238WAT     H193956   8.779   2.978   0.200
31238WAT     H293957   8.898   3.083   0.160
31239WAT      O93958   3.447   1.968   6.110
31239WAT     H193959   3.524   2.019   6.149
31239WAT     H293960   3.454   1.872   6.138
31240WAT      O93961   9.079   2.361   5.346
31240WAT     H193962   9.087   2.438   5.410
31240WAT     H293963   9.096   2.275   5.394
31241WAT      O93964   9.239   3.698   1.805
31241WAT     H193965   9.297   3.777   1.827
31241WAT     H293966   9.288   3.614   1.828
31242WAT      O93967   5.587   8.781   7.592
31242WAT     H193968   5.659   8.730   7.638
31242WAT     H293969   5.505   8.781   7.649
31243WAT      O93970   4.369   2.584   4.629
31243WAT     H193971   4.296   2.590   4.697
31243WAT     H293972   4.452   2.626   4.665
31244WAT      O93973   6.015   4.681   9.520
31244WAT     H193974   5.986   4.687   9.616
31244WAT     H293975   6.097   4.625   9.514
31245WAT      O93976   8.688   7.728   4.654
31245WAT     H193977   8.597   7.688   4.644
31245WAT     H293978   8.684   7.825   4.631
31246WAT      O93979   0.830   3.989   5.545
31246WAT     H193980   0.813   4.043   5.462
31246WAT     H293981   0.928   3.980   5.560
31247WAT      O93982   0.938   3.247   4.434
31247WAT     H193983   0.971   3.166   4.481
31247WAT     H293984   0.997   3.325   4.456
31248WAT      O93985   1.513   5.479   5.748
31248WAT     H193986   1.604   5.495   5.709
31248WAT     H293987   1.495   5.547   5.819
31249WAT      O93988   1.051   2.943   1.728
31249WAT     H193989   0.987   2.986   1.665
31249WAT     H293990   1.048   2.844   1.717
31250WAT      O93991   4.329   3.756   1.637
31250WAT     H193992   4.331   3.856   1.635
31250WAT     H293993   4.276   3.725   1.716
31251WAT      O93994   8.233   2.161   7.457
31251WAT     H193995   8.282   2.155   7.370
31251WAT     H293996   8.250   2.079   7.511
31252WAT      O93997   6.462   8.129   3.551
31252WAT     H193998   6.404   8.211   3.550
31252WAT     H293999   6.554   8.153   3.522
31253WAT      O94000   7.996   9.728   6.402
31253WAT     H194001   8.073   9.775   6.359
31253WAT     H294002   7.969   9.650   6.346
31254WAT      O94003   2.843   6.627   7.894
31254WAT     H194004   2.867   6.533   7.917
31254WAT     H294005   2.925   6.683   7.888
31255WAT      O94006   5.968   0.465   5.197
31255WAT     H194007   6.062   0.471   5.230
31255WAT     H294008   5.913   0.538   5.238
31256WAT      O94009   0.689   8.921   7.566
31256WAT     H194010   0.704   9.019   7.580
31256WAT     H294011   0.758   8.869   7.616
31257WAT      O94012   8.744   0.013   9.689
31257WAT     H194013   8.706  -0.039   9.612
31257WAT     H294014   8.693   0.099   9.700
31258WAT      O94015   1.132   0.916   8.839
31258WAT     H194016   1.081   0.963   8.768
31258WAT     H294017   1.124   0.966   8.925
31259WAT      O94018   6.036   7.057   2.393
31259WAT     H194019   5.948   7.057   2.346
31259WAT     H294020   6.025   7.021   2.485
31260WAT      O94021   2.461   9.502   1.887
31260WAT     H194022   2.382   9.526   1.831
31260WAT     H294023   2.496   9.413   1.858
31261WAT      O94024   3.091   6.058   6.750
31261WAT     H194025   3.107   6.056   6.651
31261WAT     H294026   3.164   6.109   6.795
31262WAT      O94027   1.627   8.475   0.165
31262WAT     H194028   1.611   8.479   0.066
31262WAT     H294029   1.725   8.467   0.183
31263WAT      O94030   7.973   6.279   3.947
31263WAT     H194031   7.974   6.293   3.847
31263WAT     H294032   8.039   6.208   3.971
31264WAT      O94033   6.973   0.240   8.694
31264WAT     H194034   6.969   0.162   8.757
31264WAT     H294035   7.068   0.255   8.666
31265WAT      O94036   1.550   7.562   2.400
31265WAT     H194037   1.600   7.501   2.338
31265WAT     H294038   1.586   7.553   2.492
31266WAT      O94039   4.196   2.225   7.765
31266WAT     H194040   4.256   2.197   7.840
31266WAT     H294041   4.111   2.262   7.803
31267WAT      O94042   6.957   2.164   0.575
31267WAT     H194043   6.961   2.065   0.562
31267WAT     H294044   6.888   2.203   0.515
31268WAT      O94045   7.588   1.499   5.457
31268WAT     H194046   7.525   1.510   5.380
31268WAT     H294047   7.607   1.401   5.471
31269WAT      O94048   0.063   5.530   2.292
31269WAT     H194049   0.116   5.445   2.297
31269WAT     H294050   0.107   5.600   2.348
31270WAT      O94051   1.109   2.827   2.482
31270WAT     H194052   1.170   2.901   2.453
31270WAT     H294053   1.015   2.850   2.457
31271WAT      O94054   8.813   3.131   6.088
31271WAT     H194055   8.820   3.177   6.177
31271WAT     H294056   8.754   3.184   6.027
31272WAT      O94057   5.657   0.375   0.798
31272WAT     H194058   5.661   0.398   0.701
31272WAT     H294059   5.738   0.411   0.844
31273WAT      O94060   7.818   4.014   2.549
31273WAT     H194061   7.899   4.053   2.593
31273WAT     H294062   7.846   3.961   2.469
31274WAT      O94063   6.714   8.416   9.663
31274WAT     H194064   6.708   8.513   9.685
31274WAT     H294065   6.648   8.394   9.592
31275WAT      O94066   2.168   3.731   9.897
31275WAT     H194067   2.084   3.756   9.849
31275WAT     H294068   2.237   3.700   9.832
31276WAT      O94069   6.337   2.577   6.917
31276WAT     H194070   6.302   2.487   6.890
31276WAT     H294071   6.304   2.646   6.853
31277WAT      O94072   1.457   2.366   6.408
31277WAT     H194073   1.373   2.312   6.407
31277WAT     H294074   1.533   2.311   6.377
31278WAT      O94075   7.344   0.858   9.808
31278WAT     H194076   7.350   0.802   9.726
31278WAT     H294077   7.435   0.869   9.848
31279WAT      O94078   1.030   1.040   0.273
31279WAT     H194079   1.104   0.974   0.266
31279WAT     H294080   1.026   1.075   0.367
31280WAT      O94081   7.879   4.703   8.496
31280WAT     H194082   7.819   4.741   8.425
31280WAT     H294083   7.908   4.776   8.557
31281WAT      O94084   6.124   5.825   7.641
31281WAT     H194085   6.080   5.812   7.730
31281WAT     H294086   6.213   5.779   7.640
31282WAT      O94087   2.077   1.224   7.105
31282WAT     H194088   2.084   1.313   7.061
31282WAT     H294089   1.992   1.178   7.077
31283WAT      O94090   5.502   7.479   4.610
31283WAT     H194091   5.596   7.498   4.584
31283WAT     H294092   5.493   7.383   4.635
31284WAT      O94093   1.505   0.016   3.659
31284WAT     H194094   1.452  -0.068   3.665
31284WAT     H294095   1.603  -0.005   3.669
31285WAT      O94096   0.132   8.154   6.927
31285WAT     H194097   0.127   8.249   6.956
31285WAT     H294098   0.227   8.129   6.911
31286WAT      O94099   7.548   4.486   7.993
31286WAT     H194100   7.609   4.528   7.925
31286WAT     H294101   7.592   4.488   8.083
31287WAT      O94102   4.868   1.287   5.692
31287WAT     H194103   4.826   1.197   5.678
31287WAT     H294104   4.867   1.338   5.606
31288WAT      O94105   2.169   4.531   7.102
31288WAT     H194106   2.228   4.587   7.160
31288WAT     H294107   2.155   4.442   7.145
31289WAT      O94108   5.772   6.016   1.946
31289WAT     H194109   5.825   6.092   1.909
31289WAT     H294110   5.826   5.933   1.943
31290WAT      O94111   4.558   6.362   6.000
31290WAT     H194112   4.498   6.415   6.060
31290WAT     H294113   4.645   6.345   6.047
31291WAT      O94114   6.489   7.457   1.702
31291WAT     H194115   6.464   7.372   1.655
31291WAT     H294116   6.454   7.454   1.796
31292WAT      O94117   8.574   2.664   8.683
31292WAT     H194118   8.496   2.706   8.636
31292WAT     H294119   8.580   2.701   8.776
31293WAT      O94120   6.023   2.654   0.531
31293WAT     H194121   6.101   2.623   0.476
31293WAT     H294122   6.040   2.747   0.563
31294WAT      O94123   4.171   7.660   5.793
31294WAT     H194124   4.126   7.714   5.721
31294WAT     H294125   4.131   7.682   5.882
31295WAT      O94126   9.529   6.031   9.242
31295WAT     H194127   9.484   5.948   9.210
31295WAT     H294128   9.525   6.101   9.170
31296WAT      O94129   3.814   2.386   2.725
31296WAT     H194130   3.871   2.320   2.675
31296WAT     H294131   3.836   2.381   2.822
31297WAT      O94132   3.204   6.769   6.095
31297WAT     H194133   3.269   6.747   6.022
31297WAT     H294134   3.112   6.746   6.065
31298WAT      O94135   9.591   8.315   1.674
31298WAT     H194136   9.590   8.263   1.589
31298WAT     H294137   9.562   8.409   1.655
31299WAT      O94138   0.383   0.156   6.706
31299WAT     H194139   0.437   0.084   6.662
31299WAT     H294140   0.321   0.196   6.639
31300WAT      O94141   1.524   3.215   6.859
31300WAT     H194142   1.608   3.167   6.885
31300WAT     H294143   1.498   3.277   6.933
31301WAT      O94144   1.260   7.004   0.180
31301WAT     H194145   1.172   7.019   0.135
31301WAT     H294146   1.334   7.010   0.112
31302WAT      O94147   7.058   0.865   0.679
31302WAT     H194148   7.157   0.850   0.676
31302WAT     H294149   7.013   0.807   0.611
31303WAT      O94150   2.624   9.133   5.468
31303WAT     H194151   2.585   9.221   5.496
31303WAT     H294152   2.723   9.142   5.459
31304WAT      O94153   0.115   8.213   0.542
31304WAT     H194154   0.150   8.121   0.557
31304WAT     H294155   0.117   8.264   0.628
31305WAT      O94156   9.321   6.166   3.698
31305WAT     H194157   9.376   6.139   3.619
31305WAT     H294158   9.265   6.089   3.728
31306WAT      O94159   0.808   1.796   5.387
31306WAT     H194160   0.724   1.776   5.336
31306WAT     H294161   0.786   1.810   5.483
31307WAT      O94162   0.075   4.316   0.479
31307WAT     H194163   0.020   4.393   0.514
31307WAT     H294164   0.014   4.245   0.444
31308WAT      O94165   4.120   2.176   2.381
31308WAT     H194166   4.096   2.214   2.292
31308WAT     H294167   4.046   2.116   2.413
31309WAT      O94168   9.577   8.892   1.878
31309WAT     H194169   9.535   8.903   1.968
31309WAT     H294170   9.506   8.894   1.808
31310WAT      O94171   9.579   8.738   8.287
31310WAT     H194172   9.635   8.686   8.223
31310WAT     H294173   9.484   8.736   8.258
31311WAT      O94174   7.046   3.036   3.032
31311WAT     H194175   6.984   2.971   3.076
31311WAT     H294176   7.134   2.991   3.014
31312WAT      O94177   4.945   6.200   3.545
31312WAT     H194178   4.968   6.190   3.642
31312WAT     H294179   5.016   6.157   3.489
31313WAT      O94180   2.145   8.526   5.583
31313WAT     H194181   2.223   8.588   5.586
31313WAT     H294182   2.146   8.466   5.663
31314WAT      O94183   3.271   2.108   3.835
31314WAT     H194184   3.367   2.136   3.833
31314WAT     H294185   3.215   2.186   3.865
31315WAT      O94186   6.210   7.222   2.872
31315WAT     H194187   6.256   7.277   2.803
31315WAT     H294188   6.210   7.126   2.844
31316WAT      O94189   2.885   3.619   0.914
31316WAT     H194190   2.878   3.537   0.971
31316WAT     H294191   2.863   3.699   0.969
31317WAT      O94192   6.190   2.518   7.190
31317WAT     H194193   6.220   2.602   7.145
31317WAT     H294194   6.097   2.496   7.162
31318WAT      O94195   0.804   8.582   8.217
31318WAT     H194196   0.867   8.607   8.143
31318WAT     H294197   0.747   8.505   8.188
31319WAT      O94198   3.029   4.112   5.091
31319WAT     H194199   3.063   4.091   4.999
31319WAT     H294200   3.028   4.211   5.104
31320WAT      O94201   9.520   8.627   5.190
31320WAT     H194202   9.435   8.674   5.214
31320WAT     H294203   9.523   8.538   5.237
31321WAT      O94204   6.561   3.828   3.585
31321WAT     H194205   6.466   3.799   3.595
31321WAT     H294206   6.621   3.762   3.631
31322WAT      O94207   4.693   7.192   7.972
31322WAT     H194208   4.699   7.206   8.071
31322WAT     H294209   4.776   7.146   7.941
31323WAT      O94210   7.758   6.483   2.356
31323WAT     H194211   7.736   6.491   2.453
31323WAT     H294212   7.747   6.389   2.326
31324WAT      O94213   2.472   1.135   3.281
31324WAT     H194214   2.381   1.149   3.318
31324WAT     H294215   2.535   1.108   3.354
31325WAT      O94216   2.273   6.391   0.299
31325WAT     H194217   2.277   6.358   0.393
31325WAT     H294218   2.262   6.491   0.299
31326WAT      O94219   9.785   4.285   5.440
31326WAT     H194220   9.691   4.318   5.441
31326WAT     H294221   9.835   4.324   5.518
31327WAT      O94222   8.360   2.890   7.667
31327WAT     H194223   8.378   2.966   7.606
31327WAT     H294224   8.377   2.918   7.761
31328WAT      O94225   9.657   2.652   8.753
31328WAT     H194226   9.558   2.643   8.752
31328WAT     H294227   9.698   2.587   8.690
31329WAT      O94228   3.705   9.247   2.209
31329WAT     H194229   3.675   9.171   2.267
31329WAT     H294230   3.783   9.217   2.154
31330WAT      O94231   7.315   1.748   6.233
31330WAT     H194232   7.372   1.747   6.151
31330WAT     H294233   7.245   1.819   6.224
31331WAT      O94234   0.063   5.836   0.159
31331WAT     H194235   0.034   5.928   0.186
31331WAT     H294236   0.142   5.843   0.099
31332WAT      O94237   0.828   7.749   2.960
31332WAT     H194238   0.906   7.703   2.917
31332WAT     H294239   0.770   7.682   3.006
31333WAT      O94240   6.527   9.312   2.273
31333WAT     H194241   6.518   9.369   2.354
31333WAT     H294242   6.497   9.219   2.294
31334WAT      O94243   1.724   5.854   6.699
31334WAT     H194244   1.720   5.764   6.657
31334WAT     H294245   1.649   5.911   6.663
31335WAT      O94246   1.073   7.957   9.308
31335WAT     H194247   1.134   7.902   9.252
31335WAT     H294248   1.127   8.022   9.362
31336WAT      O94249   8.851   8.842   3.090
31336WAT     H194250   8.858   8.909   3.164
31336WAT     H294251   8.876   8.752   3.124
31337WAT      O94252   8.232   6.112   4.200
31337WAT     H194253   8.324   6.074   4.206
31337WAT     H294254   8.187   6.103   4.289
31338WAT      O94255   6.555   5.399   7.260
31338WAT     H194256   6.500   5.392   7.343
31338WAT     H294257   6.650   5.419   7.284
31339WAT      O94258   8.546   5.824   2.711
31339WAT     H194259   8.452   5.811   2.679
31339WAT     H294260   8.583   5.908   2.671
31340WAT      O94261   5.764   1.530   6.268
31340WAT     H194262   5.859   1.546   6.292
31340WAT     H294263   5.755   1.439   6.226
31341WAT      O94264   6.229   7.134   1.013
31341WAT     H194265   6.155   7.094   0.959
31341WAT     H294266   6.204   7.132   1.110
31342WAT      O94267   8.356   4.806   3.758
31342WAT     H194268   8.259   4.811   3.734
31342WAT     H294269   8.400   4.734   3.703
31343WAT      O94270   0.116   5.901   9.649
31343WAT     H194271   0.140   5.966   9.576
31343WAT     H294272   0.017   5.903   9.664
31344WAT      O94273   9.714   3.337   3.725
31344WAT     H194274   9.754   3.423   3.754
31344WAT     H294275   9.635   3.315   3.783
31345WAT      O94276   4.028   9.007   1.655
31345WAT     H194277   3.971   9.077   1.612
31345WAT     H294278   4.108   9.050   1.697
31346WAT      O94279   2.937   2.565   3.085
31346WAT     H194280   2.944   2.661   3.059
31346WAT     H294281   2.881   2.556   3.167
31347WAT      O94282   8.097   5.727   4.004
31347WAT     H194283   8.185   5.773   4.012
31347WAT     H294284   8.109   5.641   3.954
31348WAT      O94285   1.377   9.434   4.232
31348WAT     H194286   1.321   9.516   4.244
31348WAT     H294287   1.371   9.377   4.314
31349WAT      O94288   5.307   6.882   1.781
31349WAT     H194289   5.400   6.890   1.818
31349WAT     H294290   5.242   6.908   1.852
31350WAT      O94291   8.968   4.686   7.411
31350WAT     H194292   9.049   4.653   7.460
31350WAT     H294293   8.988   4.774   7.369
31351WAT      O94294   0.086   0.958   6.146
31351WAT     H194295   0.175   0.951   6.102
31351WAT     H294296   0.069   1.053   6.171
31352WAT      O94297   0.142   7.697   2.299
31352WAT     H194298   0.106   7.730   2.386
31352WAT     H294299   0.175   7.603   2.309
31353WAT      O94300   8.996   8.569   5.804
31353WAT     H194301   9.022   8.644   5.743
31353WAT     H294302   8.916   8.523   5.767
31354WAT      O94303   4.196   4.223   3.643
31354WAT     H194304   4.115   4.266   3.604
31354WAT     H294305   4.170   4.162   3.718
31355WAT      O94306   7.587   6.189   5.983
31355WAT     H194307   7.525   6.160   6.056
31355WAT     H294308   7.601   6.114   5.919
31356WAT      O94309   7.612   2.294   0.569
31356WAT     H194310   7.613   2.319   0.472
31356WAT     H294311   7.693   2.240   0.590
31357WAT      O94312   3.040   4.399   0.864
31357WAT     H194313   3.058   4.485   0.913
31357WAT     H294314   3.067   4.322   0.921
31358WAT      O94315   3.440   3.291   4.364
31358WAT     H194316   3.436   3.355   4.441
31358WAT     H294317   3.501   3.215   4.386
31359WAT      O94318   1.990   5.861   7.262
31359WAT     H194319   2.064   5.831   7.322
31359WAT     H294320   1.905   5.869   7.315
31360WAT      O94321   5.645   3.433   7.837
31360WAT     H194322   5.561   3.387   7.865
31360WAT     H294323   5.717   3.414   7.904
31361WAT      O94324   9.705   7.815   0.051
31361WAT     H194325   9.643   7.894   0.043
31361WAT     H294326   9.683   7.763   0.133
31362WAT      O94327   0.387   2.658   8.469
31362WAT     H194328   0.380   2.670   8.370
31362WAT     H294329   0.413   2.563   8.489
31363WAT      O94330   0.334   2.380   6.936
31363WAT     H194331   0.386   2.368   6.852
31363WAT     H294332   0.240   2.347   6.922
31364WAT      O94333   9.433   7.181   6.354
31364WAT     H194334   9.388   7.101   6.394
31364WAT     H294335   9.523   7.193   6.396
31365WAT      O94336   8.593   8.853   4.829
31365WAT     H194337   8.683   8.894   4.844
31365WAT     H294338   8.590   8.762   4.871
31366WAT      O94339   5.822   6.057   4.813
31366WAT     H194340   5.885   6.104   4.751
31366WAT     H294341   5.866   5.974   4.847
31367WAT      O94342   7.093   8.446   0.643
31367WAT     H194343   7.122   8.488   0.557
31367WAT     H294344   7.153   8.370   0.665
31368WAT      O94345   9.229   2.945   5.697
31368WAT     H194346   9.186   2.856   5.714
31368WAT     H294347   9.159   3.016   5.702
31369WAT      O94348   3.823   0.929   7.870
31369WAT     H194349   3.738   0.943   7.819
31369WAT     H294350   3.845   0.832   7.872
31370WAT      O94351   8.007   3.197   3.791
31370WAT     H194352   7.931   3.256   3.820
31370WAT     H294353   7.989   3.163   3.698
31371WAT      O94354   9.468   5.539   0.666
31371WAT     H194355   9.561   5.575   0.671
31371WAT     H294356   9.428   5.534   0.758
31372WAT      O94357   7.565   3.999   1.647
31372WAT     H194358   7.582   3.916   1.700
31372WAT     H294359   7.624   3.999   1.565
31373WAT      O94360   3.980   9.684   5.210
31373WAT     H194361   3.982   9.590   5.175
31373WAT     H294362   3.914   9.690   5.285
31374WAT      O94363   3.073   8.230   9.476
31374WAT     H194364   3.061   8.298   9.549
31374WAT     H294365   3.042   8.269   9.389
31375WAT      O94366   6.467   6.634   6.330
31375WAT     H194367   6.495   6.677   6.416
31375WAT     H294368   6.523   6.670   6.255
31376WAT      O94369   7.166   9.765   9.524
31376WAT     H194370   7.145   9.731   9.432
31376WAT     H294371   7.163   9.689   9.589
31377WAT      O94372   9.242   4.287   2.580
31377WAT     H194373   9.242   4.386   2.564
31377WAT     H294374   9.264   4.268   2.675
31378WAT      O94375   5.270   5.233   7.539
31378WAT     H194376   5.343   5.253   7.604
31378WAT     H294377   5.289   5.147   7.493
31379WAT      O94378   7.597   6.308   6.805
31379WAT     H194379   7.605   6.318   6.904
31379WAT     H294380   7.587   6.398   6.763
31380WAT      O94381   4.147   3.146   0.477
31380WAT     H194382   4.202   3.116   0.400
31380WAT     H294383   4.152   3.078   0.550
31381WAT      O94384   2.380   2.882   3.319
31381WAT     H194385   2.366   2.803   3.379
31381WAT     H294386   2.360   2.856   3.225
31382WAT      O94387   7.826   7.556   5.608
31382WAT     H194388   7.892   7.595   5.544
31382WAT     H294389   7.738   7.545   5.563
31383WAT      O94390   5.270   5.852   4.223
31383WAT     H194391   5.318   5.818   4.142
31383WAT     H294392   5.172   5.854   4.206
31384WAT      O94393   6.925   5.560   7.869
31384WAT     H194394   6.840   5.509   7.854
31384WAT     H294395   6.987   5.544   7.792
31385WAT      O94396   5.345   9.455   4.034
31385WAT     H194397   5.254   9.431   4.069
31385WAT     H294398   5.354   9.424   3.940
31386WAT      O94399   0.184   0.688   2.840
31386WAT     H194400   0.175   0.637   2.925
31386WAT     H294401   0.223   0.629   2.769
31387WAT      O94402   7.717   3.305   3.153
31387WAT     H194403   7.691   3.389   3.201
31387WAT     H294404   7.634   3.255   3.128
31388WAT      O94405   8.297   9.539   8.738
31388WAT     H194406   8.365   9.559   8.809
31388WAT     H294407   8.337   9.555   8.648
31389WAT      O94408   6.717   0.976   0.795
31389WAT     H194409   6.755   0.893   0.837
31389WAT     H294410   6.790   1.042   0.780
31390WAT      O94411   6.908   3.850   3.442
31390WAT     H194412   6.891   3.945   3.415
31390WAT     H294413   7.003   3.826   3.423
31391WAT      O94414   7.314   6.342   1.875
31391WAT     H194415   7.371   6.272   1.831
31391WAT     H294416   7.225   6.346   1.829
31392WAT      O94417   1.097   2.343   4.859
31392WAT     H194418   1.121   2.302   4.771
31392WAT     H294419   1.090   2.272   4.929
31393WAT      O94420   0.243   7.115   9.232
31393WAT     H194421   0.314   7.149   9.293
31393WAT     H294422   0.234   7.016   9.243
31394WAT      O94423   4.422   7.980   1.181
31394WAT     H194424   4.407   8.045   1.256
31394WAT     H294425   4.504   8.007   1.129
31395WAT      O94426   5.686   1.468   4.819
31395WAT     H194427   5.692   1.466   4.918
31395WAT     H294428   5.625   1.395   4.787
31396WAT      O94429   1.437   3.846   0.288
31396WAT     H194430   1.524   3.878   0.251
31396WAT     H294431   1.425   3.749   0.267
31397WAT      O94432   8.327   9.623   7.705
31397WAT     H194433   8.317   9.553   7.634
31397WAT     H294434   8.377   9.701   7.668
31398WAT      O94435   2.249   5.632   1.944
31398WAT     H194436   2.349   5.623   1.947
31398WAT     H294437   2.222   5.675   1.858
31399WAT      O94438   8.595   3.401   5.761
31399WAT     H194439   8.511   3.415   5.709
31399WAT     H294440   8.572   3.383   5.857
31400WAT      O94441   7.715   0.152   9.860
31400WAT     H194442   7.791   0.146   9.924
31400WAT     H294443   7.634   0.188   9.908
31401WAT      O94444   9.056   7.973   8.793
31401WAT     H194445   8.975   8.023   8.823
31401WAT     H294446   9.029   7.882   8.761
31402WAT      O94447   2.248   8.357   3.262
31402WAT     H194448   2.177   8.325   3.199
31402WAT     H294449   2.332   8.304   3.246
31403WAT      O94450   7.796   1.012   3.872
31403WAT     H194451   7.786   1.007   3.773
31403WAT     H294452   7.872   0.954   3.901
31404WAT      O94453   6.022   8.698   2.945
31404WAT     H194454   6.052   8.647   2.865
31404WAT     H294455   6.000   8.635   3.020
31405WAT      O94456   5.023   9.442   5.435
31405WAT     H194457   5.044   9.524   5.381
31405WAT     H294458   4.937   9.403   5.404
31406WAT      O94459   7.059   9.686   9.276
31406WAT     H194460   7.000   9.749   9.225
31406WAT     H294461   7.080   9.606   9.219
31407WAT      O94462   6.650   2.550   7.536
31407WAT     H194463   6.662   2.471   7.477
31407WAT     H294464   6.690   2.531   7.626
31408WAT      O94465   6.710   6.985   3.195
31408WAT     H194466   6.647   6.908   3.202
31408WAT     H294467   6.680   7.060   3.254
31409WAT      O94468   7.476   4.132   9.344
31409WAT     H194469   7.418   4.168   9.417
31409WAT     H294470   7.457   4.035   9.329
31410WAT      O94471   4.475   0.740   0.063
31410WAT     H194472   4.411   0.816   0.055
31410WAT     H294473   4.491   0.700  -0.027
31411WAT      O94474   6.580   2.643   8.648
31411WAT     H194475   6.605   2.547   8.637
31411WAT     H294476   6.487   2.657   8.612
31412WAT      O94477   5.681   0.346   0.481
31412WAT     H194478   5.734   0.389   0.408
31412WAT     H294479   5.584   0.348   0.457
31413WAT      O94480   4.172   3.380   2.558
31413WAT     H194481   4.085   3.422   2.586
31413WAT     H294482   4.155   3.291   2.516
31414WAT      O94483   8.261   1.288   7.927
31414WAT     H194484   8.203   1.336   7.992
31414WAT     H294485   8.246   1.189   7.935
31415WAT      O94486   9.848   5.615   7.752
31415WAT     H194487   9.876   5.661   7.668
31415WAT     H294488   9.809   5.681   7.815
31416WAT      O94489   0.816   5.986   9.026
31416WAT     H194490   0.908   5.979   9.064
31416WAT     H294491   0.775   5.895   9.021
31417WAT      O94492   6.421   0.403   5.503
31417WAT     H194493   6.486   0.408   5.579
31417WAT     H294494   6.469   0.424   5.417
31418WAT      O94495   0.252   1.820   7.347
31418WAT     H194496   0.209   1.733   7.371
31418WAT     H294497   0.228   1.889   7.415
31419WAT      O94498   1.506   8.763   5.153
31419WAT     H194499   1.500   8.683   5.093
31419WAT     H294500   1.540   8.735   5.243
31420WAT      O94501   3.320   8.502   8.047
31420WAT     H194502   3.314   8.442   8.127
31420WAT     H294503   3.365   8.588   8.073
31421WAT      O94504   7.142   9.550   5.140
31421WAT     H194505   7.130   9.560   5.041
31421WAT     H294506   7.071   9.603   5.187
31422WAT      O94507   5.153   2.499   7.447
31422WAT     H194508   5.245   2.537   7.440
31422WAT     H294509   5.140   2.457   7.537
31423WAT      O94510   4.595   7.024   0.775
31423WAT     H194511   4.680   7.076   0.766
31423WAT     H294512   4.519   7.086   0.793
31424WAT      O94513   5.076   6.814   7.454
31424WAT     H194514   5.111   6.734   7.406
31424WAT     H294515   5.074   6.797   7.552
31425WAT      O94516   2.132   8.652   1.640
31425WAT     H194517   2.101   8.728   1.698
31425WAT     H294518   2.079   8.650   1.556
31426WAT      O94519   8.009   5.244   7.707
31426WAT     H194520   8.047   5.301   7.780
31426WAT     H294521   8.049   5.153   7.711
31427WAT      O94522   0.121   7.603   1.101
31427WAT     H194523   0.123   7.682   1.041
31427WAT     H294524   0.028   7.569   1.110
31428WAT      O94525   6.572   5.673   1.284
31428WAT     H194526   6.594   5.762   1.245
31428WAT     H294527   6.604   5.601   1.223
31429WAT      O94528   8.318   8.056   5.422
31429WAT     H194529   8.344   8.149   5.399
31429WAT     H294530   8.220   8.053   5.443
31430WAT      O94531   8.169   7.748   0.548
31430WAT     H194532   8.094   7.791   0.599
31430WAT     H294533   8.133   7.672   0.494
31431WAT      O94534   8.137   4.155   7.384
31431WAT     H194535   8.216   4.104   7.348
31431WAT     H294536   8.083   4.096   7.444
31432WAT      O94537   2.906   3.769   2.090
31432WAT     H194538   2.969   3.691   2.089
31432WAT     H294539   2.869   3.780   2.183
31433WAT      O94540   0.087   7.081   6.021
31433WAT     H194541   0.016   7.012   6.007
31433WAT     H294542   0.151   7.080   5.944
31434WAT      O94543   8.920   1.039   1.624
31434WAT     H194544   8.855   1.114   1.638
31434WAT     H294545   8.877   0.967   1.570
31435WAT      O94546   1.073   9.787   4.142
31435WAT     H194547   1.118   9.845   4.074
31435WAT     H294548   0.992   9.745   4.102
31436WAT      O94549   3.123   2.715   0.637
31436WAT     H194550   3.077   2.734   0.550
31436WAT     H294551   3.222   2.719   0.624
31437WAT      O94552   3.940   6.467   1.189
31437WAT     H194553   3.907   6.375   1.210
31437WAT     H294554   4.032   6.461   1.149
31438WAT      O94555   4.285   7.101   5.971
31438WAT     H194556   4.186   7.095   5.986
31438WAT     H294557   4.303   7.122   5.875
31439WAT      O94558   1.806   1.226   1.282
31439WAT     H194559   1.877   1.211   1.213
31439WAT     H294560   1.847   1.224   1.373
31440WAT      O94561   8.091   0.885   0.036
31440WAT     H194562   8.153   0.929   0.101
31440WAT     H294563   8.096   0.786   0.047
31441WAT      O94564   7.469   2.778   0.740
31441WAT     H194565   7.475   2.826   0.652
31441WAT     H294566   7.530   2.699   0.739
31442WAT      O94567   1.563   1.137   9.766
31442WAT     H194568   1.607   1.202   9.827
31442WAT     H294569   1.606   1.141   9.676
31443WAT      O94570   1.444   1.945   8.025
31443WAT     H194571   1.529   1.964   8.074
31443WAT     H294572   1.393   1.875   8.075
31444WAT      O94573   5.904   7.917   6.739
31444WAT     H194574   5.955   8.001   6.757
31444WAT     H294575   5.927   7.849   6.809
31445WAT      O94576   7.410   3.591   4.742
31445WAT     H194577   7.372   3.659   4.680
31445WAT     H294578   7.491   3.549   4.701
31446WAT      O94579   7.106   5.242   0.835
31446WAT     H194580   7.114   5.173   0.907
31446WAT     H294581   7.015   5.235   0.793
31447WAT      O94582   6.766   6.739   0.347
31447WAT     H194583   6.668   6.724   0.334
31447WAT     H294584   6.796   6.691   0.430
31448WAT      O94585   4.371   0.550   9.023
31448WAT     H194586   4.397   0.596   9.108
31448WAT     H294587   4.352   0.618   8.952
31449WAT      O94588   7.956   8.288   9.177
31449WAT     H194589   7.965   8.191   9.199
31449WAT     H294590   7.860   8.314   9.186
31450WAT      O94591   8.572   5.281   0.027
31450WAT     H194592   8.510   5.359   0.031
31450WAT     H294593   8.575   5.236   0.117
31451WAT      O94594   6.229   7.795   0.844
31451WAT     H194595   6.158   7.740   0.799
31451WAT     H294596   6.302   7.736   0.876
31452WAT      O94597   5.437   7.526   3.040
31452WAT     H194598   5.347   7.484   3.041
31452WAT     H294599   5.481   7.511   2.951
31453WAT      O94600   5.610   9.447   6.512
31453WAT     H194601   5.520   9.405   6.495
31453WAT     H294602   5.616   9.533   6.462
31454WAT      O94603   5.618   0.009   9.878
31454WAT     H194604   5.573   0.097   9.861
31454WAT     H294605   5.685   0.019   9.952
31455WAT      O94606   1.680   9.521   7.653
31455WAT     H194607   1.774   9.552   7.670
31455WAT     H294608   1.621   9.551   7.729
31456WAT      O94609   4.060   6.483   9.119
31456WAT     H194610   4.070   6.405   9.182
31456WAT     H294611   3.974   6.529   9.137
31457WAT      O94612   4.967   3.396   5.977
31457WAT     H194613   5.034   3.456   5.932
31457WAT     H294614   5.005   3.304   5.984
31458WAT      O94615   0.455   2.351   0.918
31458WAT     H194616   0.401   2.431   0.943
31458WAT     H294617   0.552   2.372   0.925
31459WAT      O94618   9.153   9.039   0.814
31459WAT     H194619   9.199   8.952   0.830
31459WAT     H294620   9.087   9.030   0.740
31460WAT      O94621   2.458   5.079   4.429
31460WAT     H194622   2.452   5.103   4.332
31460WAT     H294623   2.453   5.162   4.484
31461WAT      O94624   3.332   2.516   0.992
31461WAT     H194625   3.262   2.444   0.998
31461WAT     H294626   3.293   2.597   0.949
31462WAT      O94627   0.914   5.340   6.065
31462WAT     H194628   0.943   5.249   6.094
31462WAT     H294629   0.883   5.392   6.145
31463WAT      O94630   6.438   0.794   7.111
31463WAT     H194631   6.469   0.710   7.155
31463WAT     H294632   6.350   0.777   7.067
31464WAT      O94633   7.940   6.976   7.310
31464WAT     H194634   7.962   6.936   7.222
31464WAT     H294635   8.020   6.972   7.370
31465WAT      O94636   9.666   7.091   0.331
31465WAT     H194637   9.702   7.000   0.350
31465WAT     H294638   9.631   7.094   0.237
31466WAT      O94639   0.528   8.751   3.859
31466WAT     H194640   0.482   8.821   3.913
31466WAT     H294641   0.467   8.673   3.846
31467WAT      O94642   1.234   1.975   4.059
31467WAT     H194643   1.144   1.946   4.090
31467WAT     H294644   1.282   1.898   4.017
31468WAT      O94645   5.184   1.425   8.007
31468WAT     H194646   5.162   1.354   8.073
31468WAT     H294647   5.099   1.458   7.964
31469WAT      O94648   1.228   0.559   0.736
31469WAT     H194649   1.141   0.600   0.709
31469WAT     H294650   1.268   0.510   0.658
31470WAT      O94651   0.741   2.602   1.124
31470WAT     H194652   0.813   2.635   1.186
31470WAT     H294653   0.652   2.620   1.166
31471WAT      O94654   2.698   4.565   8.574
31471WAT     H194655   2.734   4.608   8.657
31471WAT     H294656   2.731   4.471   8.567
31472WAT      O94657   1.368   1.057   0.084
31472WAT     H194658   1.361   0.957   0.081
31472WAT     H294659   1.449   1.086   0.033
31473WAT      O94660   2.626   5.268   8.152
31473WAT     H194661   2.693   5.231   8.216
31473WAT     H294662   2.533   5.250   8.186
31474WAT      O94663   1.587   4.494   7.727
31474WAT     H194664   1.500   4.520   7.685
31474WAT     H294665   1.574   4.485   7.826
31475WAT      O94666   9.432   9.800   0.187
31475WAT     H194667   9.453   9.708   0.154
31475WAT     H294668   9.516   9.855   0.187
31476WAT      O94669   0.567   0.392   0.712
31476WAT     H194670   0.473   0.396   0.677
31476WAT     H294671   0.583   0.468   0.775
31477WAT      O94672   1.039   8.592   0.485
31477WAT     H194673   0.953   8.579   0.536
31477WAT     H294674   1.115   8.591   0.549
31478WAT      O94675   5.875   6.023   9.237
31478WAT     H194676   5.920   5.935   9.248
31478WAT     H294677   5.777   6.013   9.249
31479WAT      O94678   3.983   6.423   7.335
31479WAT     H194679   3.973   6.323   7.333
31479WAT     H294680   4.064   6.450   7.282
31480WAT      O94681   3.492   0.977   2.879
31480WAT     H194682   3.514   0.920   2.800
31480WAT     H294683   3.398   1.011   2.870
31481WAT      O94684   5.615   8.661   3.099
31481WAT     H194685   5.554   8.739   3.102
31481WAT     H294686   5.680   8.672   3.024
31482WAT      O94687   6.932   0.632   9.064
31482WAT     H194688   6.841   0.607   9.032
31482WAT     H294689   6.959   0.720   9.023
31483WAT      O94690   2.154   3.285   3.484
31483WAT     H194691   2.117   3.207   3.434
31483WAT     H294692   2.219   3.254   3.552
31484WAT      O94693   9.575   0.963   4.140
31484WAT     H194694   9.670   0.972   4.170
31484WAT     H294695   9.564   0.879   4.087
31485WAT      O94696   4.709   1.256   9.847
31485WAT     H194697   4.612   1.235   9.839
31485WAT     H294698   4.748   1.201   9.921
31486WAT      O94699   1.452   0.940   7.045
31486WAT     H194700   1.515   0.940   7.123
31486WAT     H294701   1.370   0.888   7.069
31487WAT      O94702   8.864   5.687   2.624
31487WAT     H194703   8.802   5.611   2.603
31487WAT     H294704   8.878   5.743   2.543
31488WAT      O94705   0.079   7.873   6.178
31488WAT     H194706   0.100   7.907   6.269
31488WAT     H294707   0.158   7.824   6.142
31489WAT      O94708   0.145   2.754   3.571
31489WAT     H194709   0.221   2.689   3.568
31489WAT     H294710   0.101   2.750   3.661
31490WAT      O94711   8.749   2.872   6.468
31490WAT     H194712   8.843   2.906   6.471
31490WAT     H294713   8.710   2.873   6.560
31491WAT      O94714   3.433   9.822   1.600
31491WAT     H194715   3.423   9.724   1.582
31491WAT     H294716   3.439   9.837   1.698
31492WAT      O94717   1.481   7.534   0.754
31492WAT     H194718   1.532   7.454   0.723
31492WAT     H294719   1.543   7.596   0.804
31493WAT      O94720   9.215   0.959   6.499
31493WAT     H194721   9.149   1.015   6.550
31493WAT     H294722   9.308   0.986   6.524
31494WAT      O94723   8.506   5.309   5.501
31494WAT     H194724   8.532   5.394   5.455
31494WAT     H294725   8.511   5.322   5.600
31495WAT      O94726   5.571   5.500   9.597
31495WAT     H194727   5.569   5.494   9.697
31495WAT     H294728   5.557   5.595   9.570
31496WAT      O94729   8.013   8.859   6.144
31496WAT     H194730   8.064   8.780   6.179
31496WAT     H294731   8.070   8.908   6.078
31497WAT      O94732   4.800   8.576   3.499
31497WAT     H194733   4.807   8.559   3.401
31497WAT     H294734   4.709   8.613   3.520
31498WAT      O94735   6.443   0.951   9.730
31498WAT     H194736   6.484   1.009   9.800
31498WAT     H294737   6.502   0.873   9.712
31499WAT      O94738   0.560   8.538   1.829
31499WAT     H194739   0.503   8.492   1.896
31499WAT     H294740   0.572   8.479   1.749
31500WAT      O94741   0.859   8.138   9.673
31500WAT     H194742   0.941   8.185   9.641
31500WAT     H294743   0.873   8.108   9.767
31501WAT      O94744   2.327   8.445   0.796
31501WAT     H194745   2.262   8.520   0.798
31501WAT     H294746   2.418   8.480   0.774
31502WAT      O94747   6.362   4.134   1.735
31502WAT     H194748   6.300   4.194   1.785
31502WAT     H294749   6.313   4.052   1.705
31503WAT      O94750   9.870   4.482   4.511
31503WAT     H194751   9.853   4.441   4.601
31503WAT     H294752   9.875   4.582   4.521
31504WAT      O94753   9.319   7.300   3.330
31504WAT     H194754   9.309   7.201   3.327
31504WAT     H294755   9.410   7.325   3.298
31505WAT      O94756   8.338   6.552   5.689
31505WAT     H194757   8.325   6.537   5.591
31505WAT     H294758   8.396   6.632   5.704
31506WAT      O94759   2.039   5.047   1.403
31506WAT     H194760   1.971   5.118   1.421
31506WAT     H294761   2.005   4.986   1.331
31507WAT      O94762   6.046   3.670   9.831
31507WAT     H194763   5.965   3.711   9.788
31507WAT     H294764   6.119   3.662   9.764
31508WAT      O94765   0.277   8.072   1.465
31508WAT     H194766   0.306   7.991   1.517
31508WAT     H294767   0.180   8.088   1.480
31509WAT      O94768   6.568   7.879   1.131
31509WAT     H194769   6.630   7.868   1.208
31509WAT     H294770   6.612   7.848   1.047
31510WAT      O94771   4.917   0.408   7.514
31510WAT     H194772   4.944   0.499   7.545
31510WAT     H294773   4.854   0.368   7.580
31511WAT      O94774   6.460   3.156   4.816
31511WAT     H194775   6.540   3.119   4.863
31511WAT     H294776   6.475   3.253   4.797
31512WAT      O94777   0.332   0.427   8.325
31512WAT     H194778   0.375   0.513   8.298
31512WAT     H294779   0.270   0.443   8.402
31513WAT      O94780   6.772   1.390   7.546
31513WAT     H194781   6.732   1.406   7.636
31513WAT     H294782   6.743   1.300   7.513
31514WAT      O94783   4.897   9.736   5.638
31514WAT     H194784   4.994   9.759   5.649
31514WAT     H294785   4.882   9.641   5.664
31515WAT      O94786   7.162   9.086   9.592
31515WAT     H194787   7.216   9.090   9.507
31515WAT     H294788   7.078   9.035   9.575
31516WAT      O94789   0.393   1.089   7.318
31516WAT     H194790   0.306   1.129   7.290
31516WAT     H294791   0.468   1.151   7.295
31517WAT      O94792   6.243   8.565   5.497
31517WAT     H194793   6.250   8.648   5.442
31517WAT     H294794   6.291   8.490   5.451
31518WAT      O94795   0.150   6.867   8.742
31518WAT     H194796   0.053   6.876   8.762
31518WAT     H294797   0.198   6.837   8.825
31519WAT      O94798   3.964   5.275   4.712
31519WAT     H194799   3.883   5.249   4.763
31519WAT     H294800   3.946   5.361   4.663
31520WAT      O94801   8.906   8.276   7.072
31520WAT     H194802   8.901   8.374   7.055
31520WAT     H294803   8.833   8.249   7.134
31521WAT      O94804   0.258   7.663   9.393
31521WAT     H194805   0.310   7.721   9.330
31521WAT     H294806   0.287   7.682   9.487
31522WAT      O94807   1.477   1.340   8.137
31522WAT     H194808   1.505   1.289   8.218
31522WAT     H294809   1.557   1.379   8.092
31523WAT      O94810   4.798   6.481   3.301
31523WAT     H194811   4.819   6.394   3.347
31523WAT     H294812   4.701   6.482   3.275
31524WAT      O94813   7.755   2.332   6.917
31524WAT     H194814   7.778   2.423   6.953
31524WAT     H294815   7.753   2.336   6.817
31525WAT      O94816   5.426   2.547   7.511
31525WAT     H194817   5.452   2.475   7.447
31525WAT     H294818   5.507   2.598   7.539
31526WAT      O94819   6.742   5.856   1.903
31526WAT     H194820   6.670   5.895   1.846
31526WAT     H294821   6.736   5.756   1.901
31527WAT      O94822   1.917   2.103   3.719
31527WAT     H194823   1.820   2.118   3.706
31527WAT     H294824   1.935   2.077   3.814
31528WAT      O94825   7.644   0.470   1.785
31528WAT     H194826   7.695   0.385   1.794
31528WAT     H294827   7.708   0.547   1.774
31529WAT      O94828   9.658   0.189   3.239
31529WAT     H194829   9.619   0.128   3.171
31529WAT     H294830   9.745   0.225   3.207
31530WAT      O94831   1.778   7.109   1.262
31530WAT     H194832   1.688   7.075   1.289
31530WAT     H294833   1.795   7.089   1.166
31531WAT      O94834   1.549   8.510   6.598
31531WAT     H194835   1.549   8.602   6.635
31531WAT     H294836   1.643   8.477   6.592
31532WAT      O94837   5.520   8.933   9.154
31532WAT     H194838   5.532   9.013   9.212
31532WAT     H294839   5.605   8.881   9.150
31533WAT      O94840   9.709   1.666   7.430
31533WAT     H194841   9.710   1.721   7.346
31533WAT     H294842   9.673   1.575   7.410
31534WAT      O94843   9.114   8.668   8.950
31534WAT     H194844   9.047   8.645   8.880
31534WAT     H294845   9.102   8.607   9.029
31535WAT      O94846   7.471   9.765   2.128
31535WAT     H194847   7.423   9.819   2.059
31535WAT     H294848   7.536   9.704   2.083
31536WAT      O94849   9.575   7.877   1.244
31536WAT     H194850   9.515   7.882   1.164
31536WAT     H294851   9.540   7.937   1.315
31537WAT      O94852   9.204   7.977   6.955
31537WAT     H194853   9.148   7.915   7.010
31537WAT     H294854   9.266   7.923   6.897
31538WAT      O94855   1.302   1.094   2.150
31538WAT     H194856   1.363   1.156   2.198
31538WAT     H294857   1.278   1.018   2.210
31539WAT      O94858   9.369   5.950   8.993
31539WAT     H194859   9.458   5.983   8.962
31539WAT     H294860   9.382   5.868   9.050
31540WAT      O94861   4.580   9.354   8.906
31540WAT     H194862   4.510   9.409   8.951
31540WAT     H294863   4.536   9.282   8.853
31541WAT      O94864   7.247   6.091   1.477
31541WAT     H194865   7.168   6.138   1.437
31541WAT     H294866   7.218   6.043   1.559
31542WAT      O94867   1.434   1.975   8.714
31542WAT     H194868   1.446   1.918   8.633
31542WAT     H294869   1.340   2.008   8.719
31543WAT      O94870   7.763   4.898   8.930
31543WAT     H194871   7.803   4.843   9.003
31543WAT     H294872   7.810   4.987   8.925
31544WAT      O94873   1.192   5.693   6.449
31544WAT     H194874   1.163   5.650   6.364
31544WAT     H294875   1.121   5.682   6.519
31545WAT      O94876   8.990   5.978   8.153
31545WAT     H194877   8.970   6.074   8.138
31545WAT     H294878   9.040   5.941   8.074
31546WAT      O94879   3.204   6.696   6.997
31546WAT     H194880   3.125   6.665   7.049
31546WAT     H294881   3.212   6.795   7.003
31547WAT      O94882   3.447   3.482   8.720
31547WAT     H194883   3.361   3.467   8.670
31547WAT     H294884   3.524   3.471   8.658
31548WAT      O94885   2.313   2.658   4.307
31548WAT     H194886   2.407   2.682   4.331
31548WAT     H294887   2.250   2.707   4.366
31549WAT      O94888   8.057   4.754   0.094
31549WAT     H194889   8.077   4.656   0.083
31549WAT     H294890   8.052   4.797   0.004
31550WAT      O94891   4.897   4.094   6.754
31550WAT     H194892   4.934   4.182   6.784
31550WAT     H294893   4.962   4.021   6.778
31551WAT      O94894   2.405   7.124   7.825
31551WAT     H194895   2.426   7.200   7.763
31551WAT     H294896   2.358   7.052   7.773
31552WAT      O94897   9.428   3.116   6.572
31552WAT     H194898   9.360   3.174   6.617
31552WAT     H294899   9.383   3.035   6.534
31553WAT      O94900   0.552   7.104   3.648
31553WAT     H194901   0.487   7.180   3.659
31553WAT     H294902   0.597   7.112   3.559
31554WAT      O94903   5.193   2.665   7.119
31554WAT     H194904   5.260   2.631   7.054
31554WAT     H294905   5.145   2.587   7.161
31555WAT      O94906   5.504   2.506   9.216
31555WAT     H194907   5.580   2.458   9.260
31555WAT     H294908   5.421   2.452   9.225
31556WAT      O94909   6.443   1.883   7.758
31556WAT     H194910   6.520   1.826   7.728
31556WAT     H294911   6.396   1.920   7.678
31557WAT      O94912   1.289   8.880   8.439
31557WAT     H194913   1.250   8.825   8.365
31557WAT     H294914   1.220   8.893   8.510
31558WAT      O94915   5.127   3.427   8.657
31558WAT     H194916   5.149   3.515   8.615
31558WAT     H294917   5.211   3.384   8.689
31559WAT      O94918   5.636   8.159   4.163
31559WAT     H194919   5.562   8.102   4.128
31559WAT     H294920   5.597   8.234   4.217
31560WAT      O94921   5.419   2.554   7.001
31560WAT     H194922   5.470   2.494   7.063
31560WAT     H294923   5.483   2.614   6.953
31561WAT      O94924   8.980   2.651   2.775
31561WAT     H194925   9.064   2.705   2.766
31561WAT     H294926   8.902   2.705   2.744
31562WAT      O94927   9.411   5.915   7.037
31562WAT     H194928   9.465   5.964   6.969
31562WAT     H294929   9.346   5.854   6.991
31563WAT      O94930   7.157   0.541   0.935
31563WAT     H194931   7.118   0.450   0.919
31563WAT     H294932   7.211   0.569   0.855
31564WAT      O94933   2.127   0.365   9.368
31564WAT     H194934   2.127   0.442   9.303
31564WAT     H294935   2.219   0.327   9.374
31565WAT      O94936   0.451   8.317   1.510
31565WAT     H194937   0.528   8.325   1.574
31565WAT     H294938   0.417   8.223   1.510
31566WAT      O94939   8.460   5.176   0.951
31566WAT     H194940   8.520   5.154   1.027
31566WAT     H294941   8.465   5.274   0.931
31567WAT      O94942   2.626   8.710   5.363
31567WAT     H194943   2.535   8.748   5.377
31567WAT     H294944   2.638   8.684   5.267
31568WAT      O94945   7.985   2.951   4.121
31568WAT     H194946   8.026   2.870   4.163
31568WAT     H294947   8.005   3.031   4.177
31569WAT      O94948   1.110   8.397   2.702
31569WAT     H194949   1.195   8.381   2.652
31569WAT     H294950   1.049   8.452   2.645
31570WAT      O94951   9.590   3.360   9.658
31570WAT     H194952   9.608   3.269   9.695
31570WAT     H294953   9.606   3.360   9.560
31571WAT      O94954   1.667   2.506   7.818
31571WAT     H194955   1.716   2.467   7.896
31571WAT     H294956   1.657   2.437   7.746
31572WAT      O94957   1.590   2.994   0.814
31572WAT     H194958   1.541   2.930   0.873
31572WAT     H294959   1.545   3.083   0.817
31573WAT      O94960   2.309   7.322   1.115
31573WAT     H194961   2.259   7.331   1.028
31573WAT     H294962   2.273   7.243   1.165
31574WAT      O94963   0.006   9.263   6.880
31574WAT     H194964   0.080   9.245   6.815
31574WAT     H294965   0.036   9.332   6.946
31575WAT      O94966   5.849   9.390   2.035
31575WAT     H194967   5.753   9.382   2.008
31575WAT     H294968   5.855   9.396   2.135
31576WAT      O94969   2.139   3.040   3.363
31576WAT     H194970   2.072   2.969   3.383
31576WAT     H294971   2.229   2.998   3.346
31577WAT      O94972   2.732   4.762   3.966
31577WAT     H194973   2.807   4.716   3.917
31577WAT     H294974   2.752   4.764   4.064
31578WAT      O94975   9.734   8.771   6.906
31578WAT     H194976   9.809   8.771   6.972
31578WAT     H294977   9.701   8.864   6.893
31579WAT      O94978   6.545   1.281   8.261
31579WAT     H194979   6.628   1.272   8.206
31579WAT     H294980   6.559   1.354   8.329
31580WAT      O94981   1.687   0.788   2.155
31580WAT     H194982   1.720   0.881   2.172
31580WAT     H294983   1.594   0.779   2.191
31581WAT      O94984   0.617   0.079   3.306
31581WAT     H194985   0.687   0.104   3.373
31581WAT     H294986   0.644  -0.006   3.261
31582WAT      O94987   4.251   8.332   3.333
31582WAT     H194988   4.224   8.305   3.240
31582WAT     H294989   4.293   8.254   3.379
31583WAT      O94990   6.022   8.928   9.510
31583WAT     H194991   6.111   8.953   9.472
31583WAT     H294992   6.031   8.916   9.609
31584WAT      O94993   9.650   0.856   4.544
31584WAT     H194994   9.591   0.799   4.487
31584WAT     H294995   9.737   0.872   4.496
31585WAT      O94996   9.332   1.872   0.128
31585WAT     H194997   9.359   1.952   0.074
31585WAT     H294998   9.250   1.831   0.088
31586WAT      O94999   7.301   2.400   2.153
31586WAT     H195000   7.376   2.378   2.215
31586WAT     H295001   7.231   2.330   2.159
31587WAT      O95002   3.097   2.034   6.687
31587WAT     H195003   3.108   2.117   6.634
31587WAT     H295004   3.109   1.954   6.627
31588WAT      O95005   7.428   7.884   1.488
31588WAT     H195006   7.379   7.864   1.572
31588WAT     H295007   7.381   7.841   1.411
31589WAT      O95008   7.197   2.913   9.089
31589WAT     H195009   7.129   2.903   9.016
31589WAT     H295010   7.246   2.826   9.101
31590WAT      O95011   4.674   7.029   1.114
31590WAT     H195012   4.619   7.105   1.148
31590WAT     H295013   4.613   6.959   1.076
31591WAT      O95014   7.971   1.837   5.544
31591WAT     H195015   7.971   1.764   5.612
31591WAT     H295016   7.998   1.923   5.587
31592WAT      O95017   2.825   4.757   0.383
31592WAT     H195018   2.890   4.695   0.340
31592WAT     H295019   2.841   4.850   0.349
31593WAT      O95020   9.155   3.039   3.592
31593WAT     H195021   9.167   3.137   3.578
31593WAT     H295022   9.081   3.024   3.657
31594WAT      O95023   6.079   6.653   2.288
31594WAT     H195024   5.996   6.691   2.246
31594WAT     H295025   6.066   6.555   2.304
31595WAT      O95026   5.992   5.829   8.932
31595WAT     H195027   6.033   5.920   8.920
31595WAT     H295028   6.065   5.761   8.940
31596WAT      O95029   0.614   5.070   7.190
31596WAT     H195030   0.637   5.028   7.102
31596WAT     H295031   0.665   5.155   7.200
31597WAT      O95032   9.079   2.330   6.007
31597WAT     H195033   9.149   2.261   6.030
31597WAT     H295034   9.048   2.374   6.091
31598WAT      O95035   5.376   9.440   9.289
31598WAT     H195036   5.383   9.400   9.380
31598WAT     H295037   5.294   9.496   9.283
31599WAT      O95038   5.853   4.050   3.733
31599WAT     H195039   5.913   4.042   3.812
31599WAT     H295040   5.901   4.097   3.659
31600WAT      O95041   6.851   0.709   2.495
31600WAT     H195042   6.873   0.694   2.591
31600WAT     H295043   6.805   0.629   2.458
31601WAT      O95044   2.041   4.422   1.015
31601WAT     H195045   2.084   4.496   1.067
31601WAT     H295046   2.112   4.358   0.984
31602WAT      O95047   0.963   9.127   2.739
31602WAT     H195048   0.985   9.224   2.725
31602WAT     H295049   0.894   9.118   2.811
31603WAT      O95050   3.775   8.631   1.099
31603WAT     H195051   3.818   8.541   1.103
31603WAT     H295052   3.798   8.684   1.180
31604WAT      O95053   5.465   3.635   4.869
31604WAT     H195054   5.430   3.686   4.790
31604WAT     H295055   5.435   3.540   4.863
31605WAT      O95056   9.279   0.020   8.016
31605WAT     H195057   9.258  -0.004   8.110
31605WAT     H295058   9.349  -0.042   7.980
31606WAT      O95059   2.577   4.572   0.140
31606WAT     H195060   2.568   4.602   0.235
31606WAT     H295061   2.674   4.563   0.117
31607WAT      O95062   7.989   7.437   3.320
31607WAT     H195063   7.919   7.369   3.344
31607WAT     H295064   7.999   7.502   3.394
31608WAT      O95065   7.382   7.854   7.273
31608WAT     H195066   7.367   7.951   7.256
31608WAT     H295067   7.402   7.807   7.187
31609WAT      O95068   6.421   3.484   3.906
31609WAT     H195069   6.492   3.446   3.965
31609WAT     H295070   6.347   3.417   3.897
31610WAT      O95071   2.953   2.327   4.585
31610WAT     H195072   2.891   2.312   4.662
31610WAT     H295073   3.020   2.397   4.610
31611WAT      O95074   6.144   9.317   7.616
31611WAT     H195075   6.079   9.261   7.564
31611WAT     H295076   6.212   9.355   7.554
31612WAT      O95077   9.384   0.238   7.929
31612WAT     H195078   9.334   0.153   7.947
31612WAT     H295079   9.328   0.298   7.871
31613WAT      O95080   9.283   2.950   1.243
31613WAT     H195081   9.287   2.935   1.342
31613WAT     H295082   9.340   2.883   1.196
31614WAT      O95083   3.050   7.987   3.289
31614WAT     H195084   3.010   7.957   3.203
31614WAT     H295085   3.013   8.076   3.315
31615WAT      O95086   7.217   4.537   5.345
31615WAT     H195087   7.158   4.463   5.312
31615WAT     H295088   7.313   4.514   5.327
31616WAT      O95089   7.461   3.686   6.773
31616WAT     H195090   7.387   3.622   6.795
31616WAT     H295091   7.491   3.670   6.679
31617WAT      O95092   6.109   1.583   2.865
31617WAT     H195093   6.133   1.595   2.768
31617WAT     H295094   6.113   1.486   2.888
31618WAT      O95095   2.709   2.881   2.428
31618WAT     H195096   2.624   2.930   2.411
31618WAT     H295097   2.763   2.877   2.344
31619WAT      O95098   4.165   7.840   5.507
31619WAT     H195099   4.067   7.830   5.525
31619WAT     H295100   4.190   7.785   5.427
31620WAT      O95101   6.287   6.008   6.110
31620WAT     H195102   6.291   5.915   6.145
31620WAT     H295103   6.204   6.020   6.056
31621WAT      O95104   5.286   8.435   3.131
31621WAT     H195105   5.237   8.453   3.045
31621WAT     H295106   5.223   8.446   3.208
31622WAT      O95107   6.209   1.274   3.913
31622WAT     H195108   6.149   1.330   3.970
31622WAT     H295109   6.238   1.194   3.964
31623WAT      O95110   3.783   4.128   6.746
31623WAT     H195111   3.799   4.210   6.691
31623WAT     H295112   3.716   4.148   6.817
31624WAT      O95113   5.952   5.933   7.019
31624WAT     H195114   6.003   6.004   7.067
31624WAT     H295115   5.961   5.946   6.920
31625WAT      O95116   5.935   8.628   9.806
31625WAT     H195117   5.968   8.541   9.771
31625WAT     H295118   5.989   8.702   9.766
31626WAT      O95119   9.642   4.688   3.805
31626WAT     H195120   9.739   4.675   3.826
31626WAT     H295121   9.628   4.682   3.706
31627WAT      O95122   0.058   4.703   9.177
31627WAT     H195123   0.040   4.694   9.079
31627WAT     H295124  -0.025   4.679   9.228
31628WAT      O95125   2.273   6.657   0.228
31628WAT     H195126   2.260   6.733   0.292
31628WAT     H295127   2.335   6.685   0.155
31629WAT      O95128   4.826   6.654   0.690
31629WAT     H195129   4.761   6.729   0.702
31629WAT     H295130   4.917   6.692   0.671
31630WAT      O95131   6.765   3.014   4.264
31630WAT     H195132   6.836   2.985   4.328
31630WAT     H295133   6.681   3.033   4.315
31631WAT      O95134   9.197   0.283   4.890
31631WAT     H195135   9.260   0.331   4.950
31631WAT     H295136   9.104   0.288   4.927
31632WAT      O95137   1.213   6.932   9.139
31632WAT     H195138   1.279   6.857   9.136
31632WAT     H295139   1.261   7.019   9.129
31633WAT      O95140   6.761   0.485   2.390
31633WAT     H195141   6.794   0.405   2.441
31633WAT     H295142   6.739   0.459   2.296
31634WAT      O95143   3.007   2.722   3.368
31634WAT     H195144   3.064   2.778   3.308
31634WAT     H295145   3.056   2.704   3.454
31635WAT      O95146   4.945   4.456   7.213
31635WAT     H195147   5.012   4.401   7.263
31635WAT     H295148   4.880   4.395   7.167
31636WAT      O95149   1.955   8.788   5.320
31636WAT     H195150   1.893   8.859   5.287
31636WAT     H295151   1.918   8.698   5.298
31637WAT      O95152   5.485   1.410   3.745
31637WAT     H195153   5.562   1.350   3.769
31637WAT     H295154   5.417   1.359   3.693
31638WAT      O95155   4.385   2.474   8.300
31638WAT     H195156   4.395   2.545   8.370
31638WAT     H295157   4.358   2.516   8.213
31639WAT      O95158   1.274   0.441   3.526
31639WAT     H195159   1.322   0.415   3.609
31639WAT     H295160   1.180   0.468   3.549
31640WAT      O95161   2.965   3.497   3.531
31640WAT     H195162   3.017   3.421   3.493
31640WAT     H295163   2.986   3.581   3.480
31641WAT      O95164   2.087   2.233   6.469
31641WAT     H195165   2.042   2.244   6.380
31641WAT     H295166   2.149   2.155   6.466
31642WAT      O95167   0.219   2.976   0.756
31642WAT     H195168   0.225   2.900   0.691
31642WAT     H295169   0.289   3.044   0.734
31643WAT      O95170   8.027   1.015   8.274
31643WAT     H195171   8.044   1.111   8.296
31643WAT     H295172   8.014   1.004   8.175
31644WAT      O95173   8.072   3.465   6.084
31644WAT     H195174   8.142   3.414   6.133
31644WAT     H295175   7.985   3.457   6.132
31645WAT      O95176   2.713   6.596   3.497
31645WAT     H195177   2.738   6.513   3.547
31645WAT     H295178   2.695   6.670   3.562
31646WAT      O95179   5.132   0.112   9.042
31646WAT     H195180   5.125   0.088   8.945
31646WAT     H295181   5.046   0.089   9.088
31647WAT      O95182   6.646   9.830   8.506
31647WAT     H195183   6.659   9.794   8.598
31647WAT     H295184   6.729   9.876   8.476
31648WAT      O95185   1.743   0.103   8.813
31648WAT     H195186   1.648   0.071   8.819
31648WAT     H295187   1.797   0.035   8.764
31649WAT      O95188   4.384   0.957   2.982
31649WAT     H195189   4.350   0.963   3.076
31649WAT     H295190   4.312   0.921   2.923
31650WAT      O95191   8.619   3.874   3.032
31650WAT     H195192   8.567   3.801   2.987
31650WAT     H295193   8.704   3.836   3.069
31651WAT      O95194   1.207   6.625   8.249
31651WAT     H195195   1.168   6.585   8.332
31651WAT     H295196   1.142   6.618   8.174
31652WAT      O95197   3.887   8.737   9.275
31652WAT     H195198   3.804   8.702   9.232
31652WAT     H295199   3.874   8.833   9.300
31653WAT      O95200   1.169   6.829   5.468
31653WAT     H195201   1.161   6.782   5.556
31653WAT     H295202   1.226   6.775   5.406
31654WAT      O95203   7.023   6.125   1.199
31654WAT     H195204   7.078   6.045   1.175
31654WAT     H295205   6.986   6.166   1.115
31655WAT      O95206   9.181   5.796   8.559
31655WAT     H195207   9.258   5.801   8.496
31655WAT     H295208   9.150   5.701   8.567
31656WAT      O95209   4.495   3.546   2.389
31656WAT     H195210   4.448   3.589   2.466
31656WAT     H295211   4.537   3.460   2.419
31657WAT      O95212   1.868   0.118   0.030
31657WAT     H195213   1.876   0.028  -0.014
31657WAT     H295214   1.777   0.155   0.012
31658WAT      O95215   8.983   5.929   1.488
31658WAT     H195216   9.006   6.026   1.488
31658WAT     H295217   8.888   5.917   1.459
31659WAT      O95218   9.727   6.662   3.685
31659WAT     H195219   9.692   6.643   3.593
31659WAT     H295220   9.669   6.730   3.730
31660WAT      O95221   3.859   7.198   6.553
31660WAT     H195222   3.839   7.170   6.459
31660WAT     H295223   3.958   7.196   6.567
31661WAT      O95224   5.507   4.782   8.821
31661WAT     H195225   5.550   4.722   8.888
31661WAT     H295226   5.577   4.828   8.767
31662WAT      O95227   4.755   5.551   3.339
31662WAT     H195228   4.853   5.569   3.346
31662WAT     H295229   4.707   5.637   3.320
31663WAT      O95230   7.856   3.481   5.465
31663WAT     H195231   7.836   3.537   5.385
31663WAT     H295232   7.937   3.425   5.448
31664WAT      O95233   0.308   2.404   9.718
31664WAT     H195234   0.266   2.327   9.669
31664WAT     H295235   0.405   2.410   9.694
31665WAT      O95236   4.805   0.880   0.419
31665WAT     H195237   4.851   0.820   0.484
31665WAT     H295238   4.760   0.954   0.470
31666WAT      O95239   1.580   5.420   1.498
31666WAT     H195240   1.490   5.464   1.496
31666WAT     H295241   1.576   5.333   1.448
31667WAT      O95242   2.046   5.058   3.819
31667WAT     H195243   2.024   5.068   3.916
31667WAT     H295244   2.085   5.144   3.785
31668WAT      O95245   8.567   8.022   8.665
31668WAT     H195246   8.526   7.958   8.600
31668WAT     H295247   8.495   8.066   8.718
31669WAT      O95248   5.740   3.872   7.275
31669WAT     H195249   5.702   3.910   7.360
31669WAT     H295250   5.679   3.895   7.199
31670WAT      O95251   7.501   2.041   4.931
31670WAT     H195252   7.425   2.066   4.870
31670WAT     H295253   7.494   2.093   5.015
31671WAT      O95254   8.861   6.526   7.010
31671WAT     H195255   8.767   6.516   6.976
31671WAT     H295256   8.893   6.619   6.991
31672WAT      O95257   4.424   0.262   6.724
31672WAT     H195258   4.398   0.297   6.814
31672WAT     H295259   4.433   0.163   6.727
31673WAT      O95260   3.410   6.097   7.856
31673WAT     H195261   3.363   6.013   7.884
31673WAT     H295262   3.355   6.176   7.882
31674WAT      O95263   2.722   0.251   2.450
31674WAT     H195264   2.652   0.210   2.391
31674WAT     H295265   2.813   0.230   2.413
31675WAT      O95266   4.911   2.503   0.902
31675WAT     H195267   4.937   2.591   0.941
31675WAT     H295268   4.818   2.508   0.867
31676WAT      O95269   2.380   3.622   8.827
31676WAT     H195270   2.401   3.545   8.768
31676WAT     H295271   2.409   3.707   8.783
31677WAT      O95272   7.288   0.369   1.532
31677WAT     H195273   7.384   0.343   1.549
31677WAT     H295274   7.250   0.409   1.615
31678WAT      O95275   0.315   8.917   6.266
31678WAT     H195276   0.413   8.903   6.255
31678WAT     H295277   0.297   9.013   6.288
31679WAT      O95278   6.965   8.061   4.413
31679WAT     H195279   7.061   8.062   4.384
31679WAT     H295280   6.906   8.075   4.334
31680WAT      O95281   6.997   0.528   0.300
31680WAT     H195282   6.937   0.513   0.378
31680WAT     H295283   7.045   0.615   0.310
31681WAT      O95284   8.520   2.322   3.265
31681WAT     H195285   8.456   2.247   3.279
31681WAT     H295286   8.572   2.305   3.181
31682WAT      O95287   9.485   1.322   1.072
31682WAT     H195288   9.438   1.290   1.154
31682WAT     H295289   9.542   1.400   1.095
31683WAT      O95290   5.959   5.818   5.804
31683WAT     H195291   5.956   5.775   5.714
31683WAT     H295292   6.053   5.845   5.825
31684WAT      O95293   1.398   8.382   2.763
31684WAT     H195294   1.375   8.286   2.779
31684WAT     H295295   1.345   8.440   2.824
31685WAT      O95296   1.836   1.460   9.670
31685WAT     H195297   1.857   1.368   9.703
31685WAT     H295298   1.916   1.498   9.624
31686WAT      O95299   4.265   5.820   8.971
31686WAT     H195300   4.214   5.735   8.984
31686WAT     H295301   4.356   5.811   9.010
31687WAT      O95302   7.885   5.423   1.804
31687WAT     H195303   7.789   5.450   1.808
31687WAT     H295304   7.892   5.324   1.814
31688WAT      O95305   5.873   6.463   0.288
31688WAT     H195306   5.892   6.379   0.237
31688WAT     H295307   5.947   6.529   0.272
31689WAT      O95308   3.886   6.255   9.299
31689WAT     H195309   3.985   6.257   9.309
31689WAT     H295310   3.843   6.290   9.382
31690WAT      O95311   7.600   7.364   4.584
31690WAT     H195312   7.506   7.374   4.616
31690WAT     H295313   7.647   7.451   4.590
31691WAT      O95314   5.387   7.308   6.247
31691WAT     H195315   5.313   7.244   6.227
31691WAT     H295316   5.475   7.267   6.224
31692WAT      O95317   8.682   0.789   8.845
31692WAT     H195318   8.592   0.794   8.888
31692WAT     H295319   8.675   0.816   8.749
31693WAT      O95320   1.744   3.230   7.628
31693WAT     H195321   1.707   3.151   7.677
31693WAT     H295322   1.834   3.253   7.665
31694WAT      O95323   5.469   1.601   8.288
31694WAT     H195324   5.502   1.591   8.194
31694WAT     H295325   5.394   1.538   8.304
31695WAT      O95326   3.369   5.614   2.317
31695WAT     H195327   3.344   5.709   2.301
31695WAT     H295328   3.335   5.558   2.241
31696WAT      O95329   0.902   3.551   2.697
31696WAT     H195330   0.863   3.518   2.783
31696WAT     H295331   0.949   3.476   2.651
31697WAT      O95332   4.046   5.974   8.111
31697WAT     H195333   3.969   5.924   8.071
31697WAT     H295334   4.054   6.064   8.068
31698WAT      O95335   2.072   5.745   4.119
31698WAT     H195336   2.168   5.750   4.149
31698WAT     H295337   2.050   5.651   4.095
31699WAT      O95338   0.099   1.055   7.995
31699WAT     H195339   0.142   1.024   7.910
31699WAT     H295340   0.164   1.044   8.071
31700WAT      O95341   0.958   8.813   9.444
31700WAT     H195342   0.862   8.791   9.458
31700WAT     H295343   1.014   8.731   9.454
31701WAT      O95344   0.168   3.956   8.702
31701WAT     H195345   0.095   4.006   8.748
31701WAT     H295346   0.208   3.890   8.765
31702WAT      O95347   1.609   7.216   3.274
31702WAT     H195348   1.624   7.315   3.281
31702WAT     H295349   1.531   7.190   3.330
31703WAT      O95350   1.891   8.991   6.190
31703WAT     H195351   1.929   8.912   6.238
31703WAT     H295352   1.826   9.038   6.250
31704WAT      O95353   6.029   3.758   4.251
31704WAT     H195354   6.115   3.795   4.217
31704WAT     H295355   6.039   3.733   4.348
31705WAT      O95356   6.887   9.206   5.068
31705WAT     H195357   6.973   9.232   5.113
31705WAT     H295358   6.822   9.282   5.074
31706WAT      O95359   4.335   4.080   2.335
31706WAT     H195360   4.352   4.169   2.293
31706WAT     H295361   4.341   4.008   2.266
31707WAT      O95362   5.555   3.160   2.460
31707WAT     H195363   5.606   3.152   2.546
31707WAT     H295364   5.560   3.255   2.427
31708WAT      O95365   6.937   5.652   2.328
31708WAT     H195366   7.027   5.613   2.310
31708WAT     H295367   6.926   5.736   2.275
31709WAT      O95368   8.502   0.149   6.512
31709WAT     H195369   8.416   0.130   6.464
31709WAT     H295370   8.578   0.147   6.447
31710WAT      O95371   7.215   0.037   8.370
31710WAT     H195372   7.282   0.046   8.298
31710WAT     H295373   7.248  -0.028   8.439
31711WAT      O95374   7.249   7.881   5.814
31711WAT     H195375   7.249   7.967   5.763
31711WAT     H295376   7.204   7.810   5.759
31712WAT      O95377   0.992   4.097   0.200
31712WAT     H195378   0.914   4.038   0.181
31712WAT     H295379   1.072   4.041   0.222
31713WAT      O95380   7.509   5.451   7.065
31713WAT     H195381   7.600   5.489   7.086
31713WAT     H295382   7.514   5.400   6.979
31714WAT      O95383   7.909   3.951   4.871
31714WAT     H195384   7.828   3.930   4.816
31714WAT     H295385   7.882   3.959   4.967
31715WAT      O95386   8.640   8.665   7.338
31715WAT     H195387   8.612   8.761   7.351
31715WAT     H295388   8.575   8.605   7.385
31716WAT      O95389   5.879   9.597   0.686
31716WAT     H195390   5.811   9.582   0.615
31716WAT     H295391   5.850   9.551   0.770
31717WAT      O95392   1.222   2.611   1.401
31717WAT     H195393   1.311   2.586   1.364
31717WAT     H295394   1.185   2.534   1.453
31718WAT      O95395   2.903   9.779   1.106
31718WAT     H195396   2.881   9.771   1.008
31718WAT     H295397   2.948   9.695   1.136
31719WAT      O95398   6.112   4.965   9.539
31719WAT     H195399   6.043   5.023   9.495
31719WAT     H295400   6.089   4.869   9.522
31720WAT      O95401   6.035   4.774   4.975
31720WAT     H195402   6.131   4.760   4.998
31720WAT     H295403   5.979   4.758   5.056
31721WAT      O95404   3.915   3.913   4.337
31721WAT     H195405   3.952   3.858   4.411
31721WAT     H295406   3.818   3.892   4.324
31722WAT      O95407   3.550   7.176   4.482
31722WAT     H195408   3.645   7.151   4.468
31722WAT     H295409   3.517   7.137   4.568
31723WAT      O95410   2.175   0.204   6.199
31723WAT     H195411   2.137   0.149   6.274
31723WAT     H295412   2.275   0.206   6.207
31724WAT      O95413   2.390   1.456   5.066
31724WAT     H195414   2.396   1.492   5.159
31724WAT     H295415   2.339   1.370   5.065
31725WAT      O95416   1.213   6.058   5.275
31725WAT     H195417   1.190   6.107   5.190
31725WAT     H295418   1.222   5.961   5.255
31726WAT      O95419   8.847   0.846   1.431
31726WAT     H195420   8.903   0.782   1.482
31726WAT     H295421   8.778   0.796   1.378
31727WAT      O95422   1.169   0.839   2.620
31727WAT     H195423   1.070   0.850   2.624
31727WAT     H295424   1.204   0.819   2.712
31728WAT      O95425   4.526   8.945   2.793
31728WAT     H195426   4.587   9.023   2.773
31728WAT     H295427   4.468   8.927   2.714
31729WAT      O95428   6.196   0.336   7.040
31729WAT     H195429   6.235   0.319   6.950
31729WAT     H295430   6.105   0.376   7.031
31730WAT      O95431   8.108   0.348   4.071
31730WAT     H195432   8.113   0.434   4.122
31730WAT     H295433   8.084   0.274   4.133
31731WAT      O95434   5.439   9.786   5.007
31731WAT     H195435   5.526   9.823   4.974
31731WAT     H295436   5.454   9.695   5.045
31732WAT      O95437   5.208   6.126   0.883
31732WAT     H195438   5.116   6.085   0.884
31732WAT     H295439   5.204   6.214   0.836
31733WAT      O95440   8.332   6.625   4.257
31733WAT     H195441   8.410   6.685   4.271
31733WAT     H295442   8.302   6.631   4.161
31734WAT      O95443   0.282   8.118   9.598
31734WAT     H195444   0.362   8.168   9.566
31734WAT     H295445   0.199   8.165   9.568
31735WAT      O95446   5.279   8.665   2.162
31735WAT     H195447   5.316   8.655   2.070
31735WAT     H295448   5.237   8.755   2.171
31736WAT      O95449   0.880   1.035   8.045
31736WAT     H195450   0.942   1.080   8.110
31736WAT     H295451   0.832   1.105   7.991
31737WAT      O95452   2.806   1.342   8.031
31737WAT     H195453   2.873   1.312   8.099
31737WAT     H295454   2.715   1.338   8.070
31738WAT      O95455   9.450   6.548   5.776
31738WAT     H195456   9.449   6.630   5.718
31738WAT     H295457   9.373   6.551   5.839
31739WAT      O95458   8.967   6.192   6.195
31739WAT     H195459   8.931   6.274   6.150
31739WAT     H295460   9.064   6.182   6.173
31740WAT      O95461   3.852   4.639   9.731
31740WAT     H195462   3.949   4.662   9.739
31740WAT     H295463   3.843   4.547   9.693
31741WAT      O95464   6.327   3.181   2.794
31741WAT     H195465   6.313   3.087   2.826
31741WAT     H295466   6.401   3.184   2.728
31742WAT      O95467   8.112   4.936   1.245
31742WAT     H195468   8.114   4.875   1.166
31742WAT     H295469   8.192   4.997   1.241
31743WAT      O95470   0.353   3.711   6.288
31743WAT     H195471   0.351   3.613   6.274
31743WAT     H295472   0.432   3.736   6.345
31744WAT      O95473   1.118   4.593   5.479
31744WAT     H195474   1.183   4.521   5.501
31744WAT     H295475   1.144   4.637   5.393
31745WAT      O95476   1.523   7.122   9.299
31745WAT     H195477   1.509   7.115   9.398
31745WAT     H295478   1.620   7.135   9.280
31746WAT      O95479   9.111   2.266   8.070
31746WAT     H195480   9.037   2.228   8.127
31746WAT     H295481   9.170   2.191   8.040
31747WAT      O95482   8.207   1.809   7.154
31747WAT     H195483   8.210   1.908   7.142
31747WAT     H295484   8.244   1.785   7.244
31748WAT      O95485   9.701   8.413   3.740
31748WAT     H195486   9.729   8.442   3.648
31748WAT     H295487   9.611   8.369   3.735
31749WAT      O95488   7.109   7.136   9.159
31749WAT     H195489   7.122   7.165   9.254
31749WAT     H295490   7.061   7.049   9.157
31750WAT      O95491   5.339   1.568   6.956
31750WAT     H195492   5.264   1.565   7.022
31750WAT     H295493   5.383   1.658   6.959
31751WAT      O95494   1.683   9.597   1.838
31751WAT     H195495   1.659   9.694   1.846
31751WAT     H295496   1.696   9.574   1.741
31752WAT      O95497   2.070   9.218   1.573
31752WAT     H195498   1.975   9.237   1.549
31752WAT     H295499   2.126   9.220   1.490
31753WAT      O95500   1.195   9.657   6.149
31753WAT     H195501   1.156   9.568   6.126
31753WAT     H295502   1.295   9.653   6.137
31754WAT      O95503   2.847   1.524   2.155
31754WAT     H195504   2.850   1.589   2.079
31754WAT     H295505   2.849   1.574   2.242
31755WAT      O95506   0.660   8.484   3.686
31755WAT     H195507   0.622   8.572   3.656
31755WAT     H295508   0.681   8.428   3.607
31756WAT      O95509   9.044   5.354   4.375
31756WAT     H195510   8.968   5.289   4.378
31756WAT     H295511   9.131   5.304   4.370
31757WAT      O95512   4.563   1.879   6.930
31757WAT     H195513   4.639   1.931   6.969
31757WAT     H295514   4.584   1.782   6.932
31758WAT      O95515   5.764   0.702   7.907
31758WAT     H195516   5.787   0.789   7.863
31758WAT     H295517   5.665   0.696   7.920
31759WAT      O95518   1.128   4.975   5.347
31759WAT     H195519   1.154   4.992   5.442
31759WAT     H295520   1.029   4.985   5.336
31760WAT      O95521   8.127   5.044   5.743
31760WAT     H195522   8.059   5.046   5.670
31760WAT     H295523   8.218   5.034   5.703
31761WAT      O95524   2.894   7.663   0.209
31761WAT     H195525   2.817   7.712   0.249
31761WAT     H295526   2.963   7.646   0.279
31762WAT      O95527   1.004   7.021   6.030
31762WAT     H195528   1.076   7.089   6.018
31762WAT     H295529   0.922   7.064   6.066
31763WAT      O95530   3.497   6.638   2.830
31763WAT     H195531   3.443   6.645   2.746
31763WAT     H295532   3.527   6.543   2.843
31764WAT      O95533   5.805   4.942   8.089
31764WAT     H195534   5.877   4.961   8.156
31764WAT     H295535   5.763   5.027   8.059
31765WAT      O95536   6.364   2.204   4.255
31765WAT     H195537   6.375   2.301   4.277
31765WAT     H295538   6.325   2.156   4.334
31766WAT      O95539   3.877   8.644   3.547
31766WAT     H195540   3.875   8.667   3.450
31766WAT     H295541   3.784   8.651   3.585
31767WAT      O95542   8.241   1.016   9.738
31767WAT     H195543   8.189   0.956   9.798
31767WAT     H295544   8.329   1.038   9.780
31768WAT      O95545   0.421   5.759   4.107
31768WAT     H195546   0.477   5.825   4.057
31768WAT     H295547   0.429   5.669   4.063
31769WAT      O95548   4.654   2.845   0.104
31769WAT     H195549   4.748   2.812   0.098
31769WAT     H295550   4.651   2.943   0.081
31770WAT      O95551   2.750   5.377   4.816
31770WAT     H195552   2.698   5.291   4.818
31770WAT     H295553   2.760   5.411   4.910
31771WAT      O95554   8.763   6.251   9.606
31771WAT     H195555   8.824   6.301   9.667
31771WAT     H295556   8.736   6.311   9.530
31772WAT      O95557   9.637   3.885   0.194
31772WAT     H195558   9.677   3.953   0.256
31772WAT     H295559   9.601   3.930   0.113
31773WAT      O95560   8.214   6.914   7.385
31773WAT     H195561   8.269   6.992   7.416
31773WAT     H295562   8.236   6.833   7.440
31774WAT      O95563   6.911   5.358   0.536
31774WAT     H195564   6.907   5.401   0.445
31774WAT     H295565   6.819   5.346   0.571
31775WAT      O95566   9.326   8.897   1.098
31775WAT     H195567   9.418   8.936   1.087
31775WAT     H295568   9.261   8.971   1.119
31776WAT      O95569   3.387   8.326   7.851
31776WAT     H195570   3.372   8.400   7.916
31776WAT     H295571   3.317   8.255   7.864
31777WAT      O95572   6.490   6.448   7.206
31777WAT     H195573   6.420   6.508   7.246
31777WAT     H295574   6.550   6.414   7.279
31778WAT      O95575   4.941   1.769   4.832
31778WAT     H195576   4.845   1.794   4.846
31778WAT     H295577   4.974   1.809   4.746
31779WAT      O95578   9.358   4.273   7.295
31779WAT     H195579   9.373   4.270   7.394
31779WAT     H295580   9.295   4.200   7.268
31780WAT      O95581   1.051   3.759   0.681
31780WAT     H195582   0.985   3.684   0.690
31780WAT     H295583   1.077   3.792   0.771
31781WAT      O95584   1.879   9.795   2.031
31781WAT     H195585   1.811   9.823   2.098
31781WAT     H295586   1.934   9.721   2.069
31782WAT      O95587   0.923   0.366   5.257
31782WAT     H195588   0.952   0.381   5.352
31782WAT     H295589   0.889   0.272   5.248
31783WAT      O95590   1.376   2.477   4.560
31783WAT     H195591   1.399   2.381   4.574
31783WAT     H295592   1.305   2.484   4.490
31784WAT      O95593   6.304   5.805   6.847
31784WAT     H195594   6.392   5.766   6.873
31784WAT     H295595   6.276   5.768   6.758
31785WAT      O95596   9.634   4.566   1.569
31785WAT     H195597   9.684   4.637   1.517
31785WAT     H295598   9.643   4.479   1.522
31786WAT      O95599   4.020   5.165   7.502
31786WAT     H195600   4.117   5.187   7.516
31786WAT     H295601   4.010   5.114   7.416
31787WAT      O95602   1.671   4.711   8.714
31787WAT     H195603   1.647   4.745   8.805
31787WAT     H295604   1.760   4.665   8.719
31788WAT      O95605   4.493   1.802   2.853
31788WAT     H195606   4.502   1.708   2.821
31788WAT     H295607   4.575   1.828   2.904
31789WAT      O95608   8.448   8.859   5.326
31789WAT     H195609   8.350   8.856   5.348
31789WAT     H295610   8.464   8.926   5.254
31790WAT      O95611   4.220   0.654   2.985
31790WAT     H195612   4.282   0.600   2.928
31790WAT     H295613   4.180   0.595   3.055
31791WAT      O95614   9.075   2.396   5.043
31791WAT     H195615   9.055   2.338   5.122
31791WAT     H295616   9.130   2.344   4.977
31792WAT      O95617   1.459   9.111   1.666
31792WAT     H195618   1.471   9.204   1.632
31792WAT     H295619   1.370   9.076   1.637
31793WAT      O95620   0.632   7.804   4.297
31793WAT     H195621   0.663   7.899   4.289
31793WAT     H295622   0.642   7.758   4.209
31794WAT      O95623   2.664   7.129   3.240
31794WAT     H195624   2.723   7.208   3.228
31794WAT     H295625   2.602   7.121   3.162
31795WAT      O95626   3.472   9.455   0.339
31795WAT     H195627   3.441   9.509   0.261
31795WAT     H295628   3.557   9.408   0.315
31796WAT      O95629   1.775   9.693   8.033
31796WAT     H195630   1.790   9.769   7.970
31796WAT     H295631   1.702   9.635   7.998
31797WAT      O95632   8.993   0.743   2.598
31797WAT     H195633   9.060   0.669   2.603
31797WAT     H295634   8.935   0.740   2.680
31798WAT      O95635   6.369   6.014   1.097
31798WAT     H195636   6.327   5.931   1.060
31798WAT     H295637   6.468   5.999   1.107
31799WAT      O95638   5.755   5.353   4.549
31799WAT     H195639   5.659   5.370   4.568
31799WAT     H295640   5.775   5.377   4.454
31800WAT      O95641   2.977   2.942   2.555
31800WAT     H195642   2.885   2.965   2.522
31800WAT     H295643   3.043   3.009   2.521
31801WAT      O95644   2.433   8.964   5.968
31801WAT     H195645   2.446   9.046   6.026
31801WAT     H295646   2.489   8.973   5.886
31802WAT      O95647   0.006   3.514   6.364
31802WAT     H195648   0.011   3.456   6.446
31802WAT     H295649   0.045   3.465   6.286
31803WAT      O95650   7.395   7.547   1.160
31803WAT     H195651   7.418   7.468   1.218
31803WAT     H295652   7.470   7.564   1.097
31804WAT      O95653   8.929   3.919   0.469
31804WAT     H195654   8.936   3.962   0.558
31804WAT     H295655   9.015   3.873   0.447
31805WAT      O95656   3.762   8.513   4.468
31805WAT     H195657   3.822   8.588   4.496
31805WAT     H295658   3.802   8.425   4.494
31806WAT      O95659   8.169   7.017   6.276
31806WAT     H195660   8.165   6.948   6.204
31806WAT     H295661   8.213   6.979   6.357
31807WAT      O95662   2.457   3.585   2.609
31807WAT     H195663   2.557   3.578   2.609
31807WAT     H295664   2.422   3.561   2.699
31808WAT      O95665   8.273   0.412   9.830
31808WAT     H195666   8.232   0.501   9.814
31808WAT     H295667   8.216   0.340   9.790
31809WAT      O95668   7.299   2.812   2.452
31809WAT     H195669   7.293   2.902   2.409
31809WAT     H295670   7.242   2.747   2.401
31810WAT      O95671   9.331   7.863   8.265
31810WAT     H195672   9.243   7.883   8.310
31810WAT     H295673   9.323   7.776   8.216
31811WAT      O95674   0.701   0.020   1.398
31811WAT     H195675   0.682   0.066   1.485
31811WAT     H295676   0.635  -0.053   1.383
31812WAT      O95677   0.961   0.576   4.575
31812WAT     H195678   0.985   0.566   4.479
31812WAT     H295679   0.880   0.521   4.595
31813WAT      O95680   1.607   2.071   5.171
31813WAT     H195681   1.528   2.045   5.115
31813WAT     H295682   1.684   2.012   5.149
31814WAT      O95683   5.059   5.790   4.891
31814WAT     H195684   5.019   5.746   4.811
31814WAT     H295685   5.078   5.886   4.871
31815WAT      O95686   4.916   8.151   9.890
31815WAT     H195687   4.879   8.134   9.799
31815WAT     H295688   4.941   8.247   9.899
31816WAT      O95689   5.063   3.305   4.906
31816WAT     H195690   5.004   3.327   4.828
31816WAT     H295691   5.087   3.208   4.904
31817WAT      O95692   9.581   5.659   8.895
31817WAT     H195693   9.590   5.659   8.995
31817WAT     H295694   9.668   5.633   8.854
31818WAT      O95695   4.788   3.120   6.532
31818WAT     H195696   4.823   3.039   6.486
31818WAT     H295697   4.768   3.191   6.464
31819WAT      O95698   7.566   5.567   8.636
31819WAT     H195699   7.466   5.577   8.642
31819WAT     H295700   7.588   5.472   8.612
31820WAT      O95701   4.702   9.373   4.976
31820WAT     H195702   4.643   9.299   4.943
31820WAT     H295703   4.645   9.452   5.000
31821WAT      O95704   2.069   9.556   5.630
31821WAT     H195705   2.112   9.521   5.713
31821WAT     H295706   2.010   9.633   5.653
31822WAT      O95707   5.714   1.236   9.755
31822WAT     H195708   5.758   1.155   9.796
31822WAT     H295709   5.624   1.248   9.796
31823WAT      O95710   1.719   6.286   8.516
31823WAT     H195711   1.632   6.318   8.554
31823WAT     H295712   1.772   6.242   8.587
31824WAT      O95713   7.146   7.903   1.881
31824WAT     H195714   7.049   7.892   1.859
31824WAT     H295715   7.159   7.987   1.933
31825WAT      O95716   9.338   3.069   3.791
31825WAT     H195717   9.303   3.078   3.885
31825WAT     H295718   9.262   3.060   3.728
31826WAT      O95719   8.228   2.662   3.083
31826WAT     H195720   8.300   2.612   3.130
31826WAT     H295721   8.171   2.598   3.030
31827WAT      O95722   0.185   1.121   6.711
31827WAT     H195723   0.245   1.120   6.790
31827WAT     H295724   0.227   1.172   6.637
31828WAT      O95725   2.910   0.459   2.610
31828WAT     H195726   2.849   0.496   2.539
31828WAT     H295727   2.991   0.519   2.618
31829WAT      O95728   8.207   3.415   2.672
31829WAT     H195729   8.133   3.483   2.665
31829WAT     H295730   8.235   3.387   2.580
31830WAT      O95731   4.058   5.730   0.193
31830WAT     H195732   4.124   5.709   0.121
31830WAT     H295733   4.100   5.715   0.283
31831WAT      O95734   3.033   0.002   8.659
31831WAT     H195735   3.052  -0.072   8.595
31831WAT     H295736   3.098   0.076   8.644
31832WAT      O95737   0.616   2.862   2.531
31832WAT     H195738   0.642   2.959   2.530
31832WAT     H295739   0.556   2.844   2.609
31833WAT      O95740   8.985   1.642   3.063
31833WAT     H195741   9.029   1.615   3.148
31833WAT     H295742   9.055   1.660   2.993
31834WAT      O95743   1.149   2.323   7.439
31834WAT     H195744   1.247   2.299   7.440
31834WAT     H295745   1.103   2.268   7.370
31835WAT      O95746   2.718   4.730   9.368
31835WAT     H195747   2.753   4.651   9.318
31835WAT     H295748   2.755   4.729   9.461
31836WAT      O95749   1.227   5.905   8.152
31836WAT     H195750   1.290   5.832   8.179
31836WAT     H295751   1.252   5.939   8.061
31837WAT      O95752   0.919   6.973   7.270
31837WAT     H195753   0.849   6.902   7.268
31837WAT     H295754   1.009   6.932   7.285
31838WAT      O95755   5.719   9.302   0.654
31838WAT     H195756   5.638   9.322   0.710
31838WAT     H295757   5.737   9.380   0.594
31839WAT      O95758   0.173   2.313   1.560
31839WAT     H195759   0.162   2.265   1.472
31839WAT     H295760   0.091   2.299   1.615
31840WAT      O95761   8.876   7.259   7.831
31840WAT     H195762   8.787   7.274   7.787
31840WAT     H295763   8.899   7.338   7.887
31841WAT      O95764   7.288   5.232   6.460
31841WAT     H195765   7.346   5.298   6.508
31841WAT     H295766   7.218   5.280   6.407
31842WAT      O95767   5.768   0.374   9.294
31842WAT     H195768   5.728   0.285   9.315
31842WAT     H295769   5.733   0.407   9.207
31843WAT      O95770   9.831   8.407   7.220
31843WAT     H195771   9.791   8.499   7.214
31843WAT     H295772   9.851   8.374   7.128
31844WAT      O95773   2.942   5.440   4.005
31844WAT     H195774   2.952   5.377   3.927
31844WAT     H295775   2.866   5.503   3.987
31845WAT      O95776   2.601   9.053   7.455
31845WAT     H195777   2.539   9.101   7.518
31845WAT     H295778   2.578   8.956   7.453
31846WAT      O95779   3.828   5.547   3.177
31846WAT     H195780   3.844   5.646   3.176
31846WAT     H295781   3.831   5.514   3.271
31847WAT      O95782   5.570   2.036   3.736
31847WAT     H195783   5.603   2.104   3.671
31847WAT     H295784   5.623   1.951   3.724
31848WAT      O95785   1.940   5.245   0.204
31848WAT     H195786   1.851   5.254   0.250
31848WAT     H295787   1.980   5.156   0.226
31849WAT      O95788   1.934   5.444   8.437
31849WAT     H195789   1.879   5.508   8.384
31849WAT     H295790   1.873   5.389   8.494
31850WAT      O95791   3.618   1.874   2.307
31850WAT     H195792   3.683   1.843   2.237
31850WAT     H295793   3.661   1.866   2.397
31851WAT      O95794   8.418   6.980   5.324
31851WAT     H195795   8.480   6.926   5.267
31851WAT     H295796   8.403   6.932   5.411
31852WAT      O95797   6.434   3.446   3.076
31852WAT     H195798   6.383   3.484   2.999
31852WAT     H295799   6.526   3.421   3.046
31853WAT      O95800   7.090   5.139   5.496
31853WAT     H195801   7.004   5.160   5.543
31853WAT     H295802   7.111   5.042   5.507
31854WAT      O95803   9.095   8.857   4.944
31854WAT     H195804   9.051   8.785   4.998
31854WAT     H295805   9.159   8.815   4.879
31855WAT      O95806   8.875   3.508   9.488
31855WAT     H195807   8.886   3.451   9.569
31855WAT     H295808   8.800   3.572   9.502
31856WAT      O95809   5.833   7.676   5.183
31856WAT     H195810   5.897   7.743   5.221
31856WAT     H295811   5.884   7.599   5.144
31857WAT      O95812   7.083   1.698   7.771
31857WAT     H195813   7.179   1.696   7.743
31857WAT     H295814   7.049   1.604   7.782
31858WAT      O95815   4.569   5.151   1.964
31858WAT     H195816   4.653   5.115   1.923
31858WAT     H295817   4.510   5.188   1.892
31859WAT      O95818   6.360   6.407   5.411
31859WAT     H195819   6.436   6.372   5.466
31859WAT     H295820   6.383   6.398   5.314
31860WAT      O95821   2.334   0.968   3.775
31860WAT     H195822   2.255   1.022   3.804
31860WAT     H295823   2.414   1.027   3.766
31861WAT      O95824   9.726   2.676   3.466
31861WAT     H195825   9.701   2.590   3.509
31861WAT     H295826   9.798   2.660   3.398
31862WAT      O95827   5.950   7.285   1.140
31862WAT     H195828   5.994   7.354   1.081
31862WAT     H295829   6.010   7.265   1.218
31863WAT      O95830   7.491   8.479   2.882
31863WAT     H195831   7.424   8.410   2.907
31863WAT     H295832   7.445   8.566   2.864
31864WAT      O95833   4.230   6.705   5.781
31864WAT     H195834   4.319   6.660   5.782
31864WAT     H295835   4.217   6.752   5.694
31865WAT      O95836   3.812   6.608   9.195
31865WAT     H195837   3.795   6.704   9.217
31865WAT     H295838   3.750   6.551   9.249
31866WAT      O95839   1.382   0.610   4.813
31866WAT     H195840   1.292   0.569   4.800
31866WAT     H295841   1.374   0.709   4.809
31867WAT      O95842   8.648   9.218   2.694
31867WAT     H195843   8.585   9.145   2.720
31867WAT     H295844   8.624   9.253   2.603
31868WAT      O95845   0.514   1.768   6.926
31868WAT     H195846   0.503   1.729   6.835
31868WAT     H295847   0.609   1.759   6.955
31869WAT      O95848   7.714   5.973   8.658
31869WAT     H195849   7.619   5.962   8.628
31869WAT     H295850   7.717   5.981   8.758
31870WAT      O95851   4.046   5.266   5.207
31870WAT     H195852   4.048   5.278   5.307
31870WAT     H295853   4.076   5.173   5.184
31871WAT      O95854   3.203   3.394   2.614
31871WAT     H195855   3.163   3.454   2.544
31871WAT     H295856   3.255   3.450   2.679
31872WAT      O95857   2.344   7.538   4.317
31872WAT     H195858   2.251   7.562   4.289
31872WAT     H295859   2.349   7.537   4.417
31873WAT      O95860   3.108   8.282   6.860
31873WAT     H195861   3.142   8.219   6.930
31873WAT     H295862   3.073   8.230   6.782
31874WAT      O95863   6.266   5.865   5.813
31874WAT     H195864   6.302   5.781   5.771
31874WAT     H295865   6.342   5.919   5.849
31875WAT      O95866   0.734   1.851   5.647
31875WAT     H195867   0.778   1.787   5.711
31875WAT     H295868   0.644   1.876   5.682
31876WAT      O95869   6.123   6.501   8.093
31876WAT     H195870   6.151   6.593   8.120
31876WAT     H295871   6.200   6.454   8.049
31877WAT      O95872   6.108   7.732   4.046
31877WAT     H195873   6.132   7.636   4.058
31877WAT     H295874   6.010   7.745   4.064
31878WAT      O95875   7.276   1.029   6.890
31878WAT     H195876   7.242   1.119   6.915
31878WAT     H295877   7.221   0.959   6.936
31879WAT      O95878   6.657   4.820   7.611
31879WAT     H195879   6.646   4.823   7.511
31879WAT     H295880   6.626   4.907   7.650
31880WAT      O95881   4.391   7.368   7.037
31880WAT     H195882   4.459   7.340   6.969
31880WAT     H295883   4.406   7.464   7.060
31881WAT      O95884   1.954   4.431   4.189
31881WAT     H195885   2.029   4.368   4.170
31881WAT     H295886   1.983   4.501   4.254
31882WAT      O95887   8.010   7.276   3.587
31882WAT     H195888   7.938   7.241   3.527
31882WAT     H295889   8.012   7.376   3.584
31883WAT      O95890   6.368   9.603   2.305
31883WAT     H195891   6.349   9.522   2.249
31883WAT     H295892   6.464   9.630   2.293
31884WAT      O95893   1.781   4.668   7.744
31884WAT     H195894   1.864   4.620   7.770
31884WAT     H295895   1.709   4.602   7.722
31885WAT      O95896   2.241   3.978   2.796
31885WAT     H195897   2.243   3.974   2.696
31885WAT     H295898   2.329   3.947   2.832
31886WAT      O95899   1.572   9.773   4.017
31886WAT     H195900   1.509   9.833   3.966
31886WAT     H295901   1.628   9.722   3.952
31887WAT      O95902   1.124   0.775   7.504
31887WAT     H195903   1.218   0.808   7.501
31887WAT     H295904   1.076   0.820   7.579
31888WAT      O95905   7.254   4.342   1.284
31888WAT     H195906   7.191   4.346   1.206
31888WAT     H295907   7.202   4.336   1.369
31889WAT      O95908   3.071   7.944   2.031
31889WAT     H195909   3.159   7.942   1.984
31889WAT     H295910   3.001   7.902   1.974
31890WAT      O95911   5.674   8.863   0.864
31890WAT     H195912   5.656   8.940   0.926
31890WAT     H295913   5.625   8.878   0.778
31891WAT      O95914   7.151   1.643   5.858
31891WAT     H195915   7.103   1.701   5.793
31891WAT     H295916   7.245   1.677   5.870
31892WAT      O95917   3.487   8.331   6.908
31892WAT     H195918   3.425   8.316   6.830
31892WAT     H295919   3.516   8.426   6.910
31893WAT      O95920   9.301   7.375   5.948
31893WAT     H195921   9.283   7.473   5.940
31893WAT     H295922   9.231   7.333   6.006
31894WAT      O95923   5.302   1.396   9.657
31894WAT     H195924   5.394   1.421   9.685
31894WAT     H295925   5.247   1.479   9.647
31895WAT      O95926   4.077   6.453   2.729
31895WAT     H195927   4.085   6.458   2.629
31895WAT     H295928   3.989   6.412   2.753
31896WAT      O95929   1.707   4.884   4.503
31896WAT     H195930   1.763   4.958   4.541
31896WAT     H295931   1.627   4.869   4.561
31897WAT      O95932   4.405   5.982   6.536
31897WAT     H195933   4.453   6.065   6.563
31897WAT     H295934   4.354   6.000   6.452
31898WAT      O95935   9.663   0.214   6.589
31898WAT     H195936   9.574   0.237   6.628
31898WAT     H295937   9.729   0.285   6.613
31899WAT      O95938   3.093   5.096   1.319
31899WAT     H195939   3.064   5.149   1.239
31899WAT     H295940   3.072   5.147   1.402
   9.88928    9.84380    9.89279 
