GROningen MAchine for Chemical Simulation
95940
    1G5    HO5'    1   5.289   5.757   4.328
    1G5     O5'    2   5.349   5.809   4.274
    1G5     C5'    3   5.478   5.749   4.286
    1G5     H5'    4   5.535   5.741   4.194
    1G5    H5''    5   5.458   5.645   4.312
    1G5     C4'    6   5.561   5.822   4.392
    1G5     H4'    7   5.661   5.779   4.397
    1G5     O4'    8   5.561   5.968   4.378
    1G5     C1'    9   5.584   6.024   4.504
    1G5     H1'   10   5.684   6.066   4.507
    1G5      N9   11   5.493   6.140   4.531
    1G5      C8   12   5.407   6.206   4.443
    1G5      H8   13   5.391   6.166   4.344
    1G5      N7   14   5.350   6.318   4.489
    1G5      C5   15   5.406   6.334   4.618
    1G5      C6   16   5.394   6.439   4.722
    1G5      O6   17   5.330   6.542   4.724
    1G5      N1   18   5.474   6.413   4.832
    1G5      H1   19   5.454   6.465   4.916
    1G5      C2   20   5.554   6.311   4.840
    1G5      N2   21   5.628   6.312   4.943
    1G5     H21   22   5.616   6.381   5.016
    1G5     H22   23   5.694   6.235   4.949
    1G5      N3   24   5.577   6.219   4.742
    1G5      C4   25   5.493   6.230   4.635
    1G5     C3'   26   5.493   5.792   4.525
    1G5     H3'   27   5.386   5.802   4.512
    1G5     C2'   28   5.555   5.907   4.604
    1G5     H2'   29   5.484   5.936   4.682
    1G5     O2'   30   5.685   5.875   4.653
    1G5    HO2'   31   5.745   5.843   4.585
    1G5     O3'   32   5.531   5.666   4.578
    2G        P   33   5.431   5.589   4.676
    2G      OP1   34   5.502   5.473   4.744
    2G      OP2   35   5.304   5.563   4.602
    2G      O5'   36   5.390   5.697   4.780
    2G      C5'   37   5.468   5.721   4.895
    2G      H5'   38   5.574   5.739   4.882
    2G     H5''   39   5.458   5.630   4.954
    2G      C4'   40   5.402   5.837   4.976
    2G      H4'   41   5.447   5.848   5.075
    2G      O4'   42   5.407   5.957   4.905
    2G      C1'   43   5.288   6.035   4.929
    2G      H1'   44   5.311   6.130   4.977
    2G       N9   45   5.221   6.054   4.799
    2G       C8   46   5.205   5.967   4.688
    2G       H8   47   5.246   5.867   4.686
    2G       N7   48   5.134   6.011   4.590
    2G       C5   49   5.087   6.139   4.641
    2G       C6   50   5.003   6.230   4.581
    2G       O6   51   4.945   6.222   4.470
    2G       N1   52   4.981   6.343   4.652
    2G       H1   53   4.940   6.424   4.607
    2G       C2   54   5.046   6.357   4.776
    2G       N2   55   5.002   6.465   4.845
    2G      H21   56   4.926   6.521   4.807
    2G      H22   57   5.050   6.506   4.924
    2G       N3   58   5.134   6.278   4.835
    2G       C4   59   5.147   6.164   4.765
    2G      C3'   60   5.252   5.812   5.005
    2G      H3'   61   5.191   5.785   4.919
    2G      C2'   62   5.212   5.960   5.033
    2G      H2'   63   5.108   5.974   5.001
    2G      O2'   64   5.255   6.013   5.160
    2G     HO2'   65   5.181   6.052   5.208
    2G      O3'   66   5.241   5.721   5.116
    3G        P   67   5.105   5.641   5.141
    3G      OP1   68   5.112   5.579   5.279
    3G      OP2   69   5.071   5.556   5.024
    3G      O5'   70   5.002   5.757   5.150
    3G      C5'   71   4.993   5.840   5.266
    3G      H5'   72   5.091   5.886   5.277
    3G     H5''   73   4.951   5.783   5.349
    3G      C4'   74   4.888   5.959   5.251
    3G      H4'   75   4.899   6.022   5.339
    3G      O4'   76   4.923   6.049   5.146
    3G      C1'   77   4.802   6.082   5.072
    3G      H1'   78   4.792   6.191   5.070
    3G       N9   79   4.805   6.041   4.932
    3G       C8   80   4.855   5.922   4.889
    3G       H8   81   4.915   5.862   4.956
    3G       N7   82   4.831   5.901   4.762
    3G       C5   83   4.757   6.006   4.720
    3G       C6   84   4.699   6.037   4.595
    3G       O6   85   4.701   5.982   4.488
    3G       N1   86   4.622   6.154   4.602
    3G       H1   87   4.571   6.182   4.519
    3G       C2   88   4.604   6.235   4.716
    3G       N2   89   4.523   6.340   4.704
    3G      H21   90   4.485   6.354   4.612
    3G      H22   91   4.498   6.393   4.786
    3G       N3   92   4.663   6.210   4.831
    3G       C4   93   4.740   6.095   4.829
    3G      C3'   94   4.742   5.903   5.234
    3G      H3'   95   4.749   5.817   5.166
    3G      C2'   96   4.678   6.016   5.149
    3G      H2'   97   4.608   5.985   5.071
    3G      O2'   98   4.614   6.113   5.230
    3G     HO2'   99   4.570   6.069   5.303
    3G      O3'  100   4.680   5.881   5.362
    4U        P  101   4.548   5.795   5.375
    4U      OP1  102   4.557   5.744   5.510
    4U      OP2  103   4.537   5.703   5.259
    4U      O5'  104   4.432   5.903   5.367
    4U      C5'  105   4.378   5.964   5.484
    4U      H5'  106   4.450   6.026   5.537
    4U     H5''  107   4.348   5.885   5.554
    4U      C4'  108   4.244   6.034   5.467
    4U      H4'  109   4.212   6.074   5.563
    4U      O4'  110   4.257   6.152   5.386
    4U      C1'  111   4.135   6.168   5.311
    4U      H1'  112   4.076   6.257   5.333
    4U       N1  113   4.165   6.179   5.166
    4U       C6  114   4.290   6.162   5.114
    4U       H6  115   4.376   6.143   5.177
    4U       C5  116   4.309   6.160   4.979
    4U       H5  117   4.404   6.143   4.931
    4U       C4  118   4.198   6.187   4.885
    4U       O4  119   4.203   6.183   4.761
    4U       N3  120   4.079   6.225   4.944
    4U       H3  121   3.997   6.237   4.886
    4U       C2  122   4.054   6.210   5.081
    4U       O2  123   3.942   6.232   5.119
    4U      C3'  124   4.143   5.940   5.405
    4U      H3'  125   4.192   5.886   5.324
    4U      C2'  126   4.046   6.043   5.338
    4U      H2'  127   4.012   6.005   5.241
    4U      O2'  128   3.944   6.073   5.426
    4U     HO2'  129   3.937   5.988   5.470
    4U      O3'  130   4.080   5.856   5.499
    5U        P  131   4.047   5.706   5.462
    5U      OP1  132   3.934   5.667   5.547
    5U      OP2  133   4.179   5.631   5.464
    5U      O5'  134   4.000   5.707   5.308
    5U      C5'  135   3.864   5.718   5.272
    5U      H5'  136   3.816   5.799   5.329
    5U     H5''  137   3.812   5.631   5.313
    5U      C4'  138   3.836   5.742   5.125
    5U      H4'  139   3.731   5.767   5.112
    5U      O4'  140   3.910   5.850   5.082
    5U      C1'  141   3.936   5.836   4.946
    5U      H1'  142   3.887   5.913   4.887
    5U       N1  143   4.084   5.841   4.923
    5U       C6  144   4.173   5.823   5.032
    5U       H6  145   4.135   5.808   5.132
    5U       C5  146   4.306   5.817   5.013
    5U       H5  147   4.373   5.805   5.097
    5U       C4  148   4.362   5.842   4.885
    5U       O4  149   4.483   5.828   4.869
    5U       N3  150   4.268   5.873   4.792
    5U       H3  151   4.304   5.883   4.698
    5U       C2  152   4.132   5.869   4.796
    5U       O2  153   4.057   5.895   4.703
    5U      C3'  154   3.893   5.636   5.040
    5U      H3'  155   3.998   5.618   5.062
    5U      C2'  156   3.873   5.702   4.903
    5U      H2'  157   3.928   5.649   4.826
    5U      O2'  158   3.730   5.728   4.872
    5U     HO2'  159   3.686   5.643   4.871
    5U      O3'  160   3.814   5.519   5.039
    6A        P  161   3.879   5.366   5.026
    6A      OP1  162   3.772   5.265   5.059
    6A      OP2  163   4.002   5.365   5.113
    6A      O5'  164   3.930   5.334   4.876
    6A      C5'  165   3.844   5.282   4.776
    6A      H5'  166   3.755   5.344   4.781
    6A     H5''  167   3.816   5.180   4.804
    6A      C4'  168   3.897   5.294   4.634
    6A      H4'  169   3.819   5.265   4.563
    6A      O4'  170   3.916   5.430   4.605
    6A      C1'  171   4.014   5.439   4.500
    6A      H1'  172   3.970   5.485   4.411
    6A       N9  173   4.131   5.519   4.557
    6A       C8  174   4.172   5.543   4.685
    6A       H8  175   4.105   5.504   4.760
    6A       N7  176   4.290   5.599   4.702
    6A       C5  177   4.327   5.620   4.565
    6A       C6  178   4.432   5.697   4.503
    6A       N6  179   4.535   5.743   4.575
    6A      H61  180   4.603   5.787   4.515
    6A      H62  181   4.544   5.734   4.675
    6A       N1  182   4.432   5.702   4.370
    6A       C2  183   4.339   5.651   4.298
    6A       H2  184   4.333   5.680   4.194
    6A       N3  185   4.231   5.582   4.341
    6A       C4  186   4.234   5.567   4.474
    6A      C3'  187   4.035   5.226   4.600
    6A      H3'  188   4.100   5.248   4.684
    6A      C2'  189   4.061   5.298   4.465
    6A      H2'  190   4.166   5.300   4.437
    6A      O2'  191   3.969   5.260   4.360
    6A     HO2'  192   3.995   5.282   4.270
    6A      O3'  193   4.020   5.084   4.587
    7G        P  194   4.154   4.993   4.581
    7G      OP1  195   4.111   4.846   4.558
    7G      OP2  196   4.235   5.027   4.697
    7G      O5'  197   4.229   5.028   4.445
    7G      C5'  198   4.178   4.992   4.319
    7G      H5'  199   4.077   5.025   4.294
    7G     H5''  200   4.178   4.883   4.314
    7G      C4'  201   4.263   5.033   4.196
    7G      H4'  202   4.220   4.995   4.103
    7G      O4'  203   4.278   5.172   4.196
    7G      C1'  204   4.413   5.203   4.157
    7G      H1'  205   4.413   5.269   4.069
    7G       N9  206   4.488   5.266   4.268
    7G       C8  207   4.463   5.263   4.402
    7G       H8  208   4.381   5.208   4.447
    7G       N7  209   4.533   5.347   4.476
    7G       C5  210   4.618   5.402   4.381
    7G       C6  211   4.721   5.502   4.398
    7G       O6  212   4.759   5.560   4.497
    7G       N1  213   4.793   5.525   4.280
    7G       H1  214   4.882   5.572   4.285
    7G       C2  215   4.761   5.462   4.160
    7G       N2  216   4.829   5.492   4.053
    7G      H21  217   4.897   5.565   4.060
    7G      H22  218   4.796   5.458   3.964
    7G       N3  219   4.670   5.369   4.146
    7G       C4  220   4.597   5.348   4.257
    7G      C3'  221   4.407   4.968   4.204
    7G      H3'  222   4.449   4.969   4.305
    7G      C2'  223   4.489   5.076   4.130
    7G      H2'  224   4.595   5.080   4.156
    7G      O2'  225   4.482   5.038   3.991
    7G     HO2'  226   4.434   4.955   3.990
    7G      O3'  227   4.404   4.841   4.140
    8G        P  228   4.503   4.733   4.189
    8G      OP1  229   4.476   4.612   4.116
    8G      OP2  230   4.489   4.740   4.334
    8G      O5'  231   4.652   4.782   4.162
    8G      C5'  232   4.723   4.763   4.039
    8G      H5'  233   4.670   4.791   3.948
    8G     H5''  234   4.732   4.654   4.035
    8G      C4'  235   4.855   4.832   4.052
    8G      H4'  236   4.915   4.811   3.963
    8G      O4'  237   4.839   4.970   4.072
    8G      C1'  238   4.941   5.022   4.154
    8G      H1'  239   4.998   5.089   4.089
    8G       N9  240   4.890   5.083   4.274
    8G       C8  241   4.772   5.054   4.336
    8G       H8  242   4.706   4.976   4.302
    8G       N7  243   4.759   5.116   4.454
    8G       C5  244   4.876   5.191   4.464
    8G       C6  245   4.919   5.288   4.565
    8G       O6  246   4.854   5.336   4.662
    8G       N1  247   5.044   5.339   4.538
    8G       H1  248   5.077   5.411   4.601
    8G       C2  249   5.118   5.314   4.428
    8G       N2  250   5.236   5.367   4.404
    8G      H21  251   5.277   5.444   4.456
    8G      H22  252   5.294   5.339   4.327
    8G       N3  253   5.078   5.233   4.332
    8G       C4  254   4.959   5.170   4.353
    8G      C3'  255   4.939   4.799   4.177
    8G      H3'  256   4.890   4.801   4.274
    8G      C2'  257   5.040   4.906   4.182
    8G      H2'  258   5.084   4.916   4.281
    8G      O2'  259   5.141   4.896   4.082
    8G     HO2'  260   5.204   4.826   4.100
    8G      O3'  261   5.008   4.674   4.161
    9G        P  262   5.020   4.579   4.294
    9G      OP1  263   5.077   4.454   4.245
    9G      OP2  264   4.891   4.581   4.360
    9G      O5'  265   5.127   4.658   4.379
    9G      C5'  266   5.249   4.688   4.330
    9G      H5'  267   5.235   4.734   4.232
    9G     H5''  268   5.292   4.589   4.316
    9G      C4'  269   5.337   4.787   4.417
    9G      H4'  270   5.429   4.819   4.368
    9G      O4'  271   5.278   4.913   4.432
    9G      C1'  272   5.313   4.960   4.564
    9G      H1'  273   5.360   5.058   4.568
    9G       N9  274   5.196   4.968   4.644
    9G       C8  275   5.088   4.884   4.643
    9G       H8  276   5.076   4.797   4.580
    9G       N7  277   4.991   4.933   4.716
    9G       C5  278   5.034   5.045   4.773
    9G       C6  279   4.963   5.143   4.852
    9G       O6  280   4.847   5.134   4.886
    9G       N1  281   5.035   5.253   4.887
    9G       H1  282   4.989   5.329   4.936
    9G       C2  283   5.160   5.272   4.842
    9G       N2  284   5.233   5.364   4.898
    9G      H21  285   5.192   5.433   4.959
    9G      H22  286   5.328   5.362   4.863
    9G       N3  287   5.229   5.182   4.764
    9G       C4  288   5.156   5.070   4.726
    9G      C3'  289   5.371   4.735   4.555
    9G      H3'  290   5.282   4.704   4.610
    9G      C2'  291   5.421   4.861   4.621
    9G      H2'  292   5.412   4.858   4.730
    9G      O2'  293   5.556   4.900   4.580
    9G     HO2'  294   5.603   4.840   4.639
    9G      O3'  295   5.467   4.626   4.549
   10U        P  296   5.513   4.538   4.662
   10U      OP1  297   5.611   4.438   4.613
   10U      OP2  298   5.387   4.494   4.726
   10U      O5'  299   5.592   4.642   4.761
   10U      C5'  300   5.728   4.686   4.732
   10U      H5'  301   5.724   4.731   4.632
   10U     H5''  302   5.798   4.603   4.735
   10U      C4'  303   5.760   4.791   4.846
   10U      H4'  304   5.858   4.836   4.832
   10U      O4'  305   5.668   4.900   4.847
   10U      C1'  306   5.659   4.954   4.977
   10U      H1'  307   5.724   5.041   4.983
   10U       N1  308   5.517   4.971   5.012
   10U       C6  309   5.430   4.860   5.008
   10U       H6  310   5.458   4.757   4.991
   10U       C5  311   5.295   4.880   5.039
   10U       H5  312   5.233   4.794   5.060
   10U       C4  313   5.240   5.004   5.076
   10U       O4  314   5.120   5.021   5.104
   10U       N3  315   5.329   5.110   5.067
   10U       H3  316   5.297   5.201   5.096
   10U       C2  317   5.470   5.100   5.037
   10U       O2  318   5.540   5.200   5.033
   10U      C3'  319   5.749   4.720   4.981
   10U      H3'  320   5.672   4.643   4.983
   10U      C2'  321   5.721   4.844   5.069
   10U      H2'  322   5.650   4.813   5.146
   10U      O2'  323   5.835   4.899   5.114
   10U     HO2'  324   5.870   4.836   5.177
   10U      O3'  325   5.874   4.664   5.016
   11U        P  326   5.885   4.581   5.155
   11U      OP1  327   5.960   4.459   5.133
   11U      OP2  328   5.756   4.587   5.226
   11U      O5'  329   5.971   4.676   5.241
   11U      C5'  330   6.105   4.705   5.213
   11U      H5'  331   6.123   4.754   5.117
   11U     H5''  332   6.159   4.610   5.221
   11U      C4'  333   6.165   4.802   5.320
   11U      H4'  334   6.265   4.836   5.292
   11U      O4'  335   6.094   4.930   5.325
   11U      C1'  336   6.026   4.919   5.449
   11U      H1'  337   6.081   4.982   5.519
   11U       N1  338   5.903   4.995   5.434
   11U       C6  339   5.781   4.930   5.434
   11U       H6  340   5.770   4.823   5.445
   11U       C5  341   5.668   5.004   5.413
   11U       H5  342   5.574   4.950   5.418
   11U       C4  343   5.674   5.147   5.384
   11U       O4  344   5.581   5.220   5.345
   11U       N3  345   5.799   5.199   5.377
   11U       H3  346   5.814   5.292   5.344
   11U       C2  347   5.909   5.130   5.420
   11U       O2  348   6.013   5.191   5.450
   11U      C3'  349   6.165   4.741   5.461
   11U      H3'  350   6.181   4.633   5.465
   11U      C2'  351   6.026   4.783   5.517
   11U      H2'  352   5.951   4.710   5.483
   11U      O2'  353   6.015   4.787   5.660
   11U     HO2'  354   6.108   4.780   5.682
   11U      O3'  355   6.268   4.807   5.530
   12A        P  356   6.358   4.736   5.634
   12A      OP1  357   6.488   4.802   5.648
   12A      OP2  358   6.358   4.592   5.602
   12A      O5'  359   6.283   4.762   5.773
   12A      C5'  360   6.329   4.702   5.896
   12A      H5'  361   6.428   4.743   5.918
   12A     H5''  362   6.334   4.593   5.903
   12A      C4'  363   6.250   4.776   6.011
   12A      H4'  364   6.287   4.743   6.108
   12A      O4'  365   6.260   4.915   6.008
   12A      C1'  366   6.138   4.973   6.045
   12A      H1'  367   6.159   5.034   6.133
   12A       N9  368   6.095   5.064   5.936
   12A       C8  369   6.164   5.094   5.818
   12A       H8  370   6.266   5.059   5.810
   12A       N7  371   6.084   5.141   5.725
   12A       C5  372   5.969   5.159   5.797
   12A       C6  373   5.845   5.230   5.765
   12A       N6  374   5.828   5.302   5.655
   12A      H61  375   5.746   5.360   5.642
   12A      H62  376   5.897   5.295   5.582
   12A       N1  377   5.750   5.253   5.861
   12A       C2  378   5.772   5.197   5.980
   12A       H2  379   5.694   5.198   6.055
   12A       N3  380   5.875   5.126   6.018
   12A       C4  381   5.970   5.112   5.924
   12A      C3'  382   6.098   4.742   6.003
   12A      H3'  383   6.067   4.752   5.899
   12A      C2'  384   6.038   4.864   6.073
   12A      H2'  385   5.938   4.881   6.032
   12A      O2'  386   6.032   4.858   6.218
   12A     HO2'  387   5.949   4.812   6.232
   12A      O3'  388   6.072   4.607   6.044
   13G        P  389   5.932   4.537   6.041
   13G      OP1  390   5.949   4.390   6.064
   13G      OP2  391   5.856   4.579   5.920
   13G      O5'  392   5.849   4.599   6.164
   13G      C5'  393   5.878   4.553   6.296
   13G      H5'  394   5.986   4.553   6.312
   13G     H5''  395   5.839   4.451   6.303
   13G      C4'  396   5.808   4.635   6.399
   13G      H4'  397   5.870   4.634   6.489
   13G      O4'  398   5.817   4.769   6.355
   13G      C1'  399   5.703   4.844   6.386
   13G      H1'  400   5.731   4.940   6.430
   13G       N9  401   5.631   4.886   6.266
   13G       C8  402   5.667   4.855   6.139
   13G       H8  403   5.759   4.802   6.120
   13G       N7  404   5.588   4.913   6.045
   13G       C5  405   5.486   4.967   6.122
   13G       C6  406   5.361   5.026   6.077
   13G       O6  407   5.328   5.040   5.960
   13G       N1  408   5.281   5.065   6.183
   13G       H1  409   5.200   5.118   6.155
   13G       C2  410   5.313   5.055   6.313
   13G       N2  411   5.233   5.097   6.400
   13G      H21  412   5.141   5.130   6.378
   13G      H22  413   5.263   5.092   6.497
   13G       N3  414   5.433   5.009   6.356
   13G       C4  415   5.514   4.958   6.256
   13G      C3'  416   5.661   4.607   6.418
   13G      H3'  417   5.623   4.594   6.317
   13G      C2'  418   5.612   4.748   6.470
   13G      H2'  419   5.507   4.770   6.453
   13G      O2'  420   5.651   4.778   6.606
   13G     HO2'  421   5.575   4.752   6.659
   13G      O3'  422   5.634   4.487   6.495
   14G        P  423   5.551   4.372   6.429
   14G      OP1  424   5.555   4.260   6.529
   14G      OP2  425   5.586   4.350   6.284
   14G      O5'  426   5.409   4.447   6.428
   14G      C5'  427   5.324   4.458   6.538
   14G      H5'  428   5.379   4.474   6.631
   14G     H5''  429   5.280   4.359   6.548
   14G      C4'  430   5.214   4.559   6.528
   14G      H4'  431   5.171   4.573   6.627
   14G      O4'  432   5.267   4.682   6.489
   14G      C1'  433   5.167   4.742   6.405
   14G      H1'  434   5.142   4.846   6.424
   14G       N9  435   5.215   4.728   6.261
   14G       C8  436   5.338   4.686   6.211
   14G       H8  437   5.416   4.640   6.270
   14G       N7  438   5.343   4.694   6.078
   14G       C5  439   5.216   4.748   6.043
   14G       C6  440   5.164   4.788   5.916
   14G       O6  441   5.207   4.766   5.807
   14G       N1  442   5.038   4.857   5.920
   14G       H1  443   4.988   4.865   5.832
   14G       C2  444   4.974   4.877   6.033
   14G       N2  445   4.857   4.945   6.035
   14G      H21  446   4.820   4.987   5.951
   14G      H22  447   4.817   4.951   6.127
   14G       N3  448   5.019   4.841   6.157
   14G       C4  449   5.140   4.774   6.154
   14G      C3'  450   5.100   4.519   6.438
   14G      H3'  451   5.141   4.496   6.340
   14G      C2'  452   5.039   4.659   6.422
   14G      H2'  453   4.982   4.661   6.329
   14G      O2'  454   4.972   4.698   6.538
   14G     HO2'  455   4.915   4.633   6.579
   14G      O3'  456   5.001   4.433   6.490
   15G        P  457   4.944   4.315   6.401
   15G      OP1  458   4.891   4.205   6.484
   15G      OP2  459   5.051   4.276   6.308
   15G      O5'  460   4.828   4.381   6.315
   15G      C5'  461   4.709   4.436   6.375
   15G      H5'  462   4.744   4.496   6.459
   15G     H5''  463   4.652   4.350   6.409
   15G      C4'  464   4.632   4.512   6.265
   15G      H4'  465   4.538   4.552   6.304
   15G      O4'  466   4.717   4.618   6.218
   15G      C1'  467   4.688   4.634   6.078
   15G      H1'  468   4.641   4.731   6.059
   15G       N9  469   4.807   4.602   5.997
   15G       C8  470   4.913   4.518   6.032
   15G       H8  471   4.913   4.485   6.135
   15G       N7  472   4.995   4.499   5.934
   15G       C5  473   4.943   4.562   5.823
   15G       C6  474   4.977   4.556   5.684
   15G       O6  475   5.068   4.496   5.631
   15G       N1  476   4.883   4.621   5.602
   15G       H1  477   4.894   4.615   5.501
   15G       C2  478   4.765   4.668   5.644
   15G       N2  479   4.682   4.710   5.551
   15G      H21  480   4.718   4.698   5.457
   15G      H22  481   4.588   4.735   5.577
   15G       N3  482   4.726   4.675   5.777
   15G       C4  483   4.820   4.612   5.858
   15G      C3'  484   4.595   4.424   6.147
   15G      H3'  485   4.683   4.377   6.103
   15G      C2'  486   4.572   4.537   6.045
   15G      H2'  487   4.584   4.498   5.944
   15G      O2'  488   4.442   4.592   6.061
   15G     HO2'  489   4.390   4.600   5.981
   15G      O3'  490   4.486   4.336   6.163
   16U        P  491   4.495   4.183   6.115
   16U      OP1  492   4.375   4.103   6.141
   16U      OP2  493   4.624   4.125   6.165
   16U      O5'  494   4.512   4.204   5.957
   16U      C5'  495   4.409   4.271   5.879
   16U      H5'  496   4.389   4.368   5.926
   16U     H5''  497   4.313   4.219   5.879
   16U      C4'  498   4.444   4.281   5.735
   16U      H4'  499   4.363   4.338   5.690
   16U      O4'  500   4.565   4.358   5.712
   16U      C1'  501   4.640   4.299   5.603
   16U      H1'  502   4.638   4.378   5.528
   16U       N1  503   4.781   4.271   5.635
   16U       C6  504   4.816   4.237   5.767
   16U       H6  505   4.746   4.234   5.849
   16U       C5  506   4.951   4.199   5.789
   16U       H5  507   4.978   4.172   5.890
   16U       C4  508   5.045   4.196   5.682
   16U       O4  509   5.170   4.170   5.694
   16U       N3  510   4.991   4.221   5.560
   16U       H3  511   5.055   4.217   5.482
   16U       C2  512   4.869   4.281   5.531
   16U       O2  513   4.849   4.321   5.417
   16U      C3'  514   4.475   4.150   5.671
   16U      H3'  515   4.531   4.095   5.747
   16U      C2'  516   4.563   4.181   5.549
   16U      H2'  517   4.629   4.098   5.522
   16U      O2'  518   4.480   4.222   5.445
   16U     HO2'  519   4.407   4.159   5.447
   16U      O3'  520   4.364   4.077   5.633
   17U        P  521   4.362   3.922   5.578
   17U      OP1  522   4.226   3.882   5.628
   17U      OP2  523   4.477   3.837   5.606
   17U      O5'  524   4.354   3.933   5.419
   17U      C5'  525   4.233   3.951   5.350
   17U      H5'  526   4.170   4.022   5.404
   17U     H5''  527   4.176   3.860   5.329
   17U      C4'  528   4.267   4.002   5.209
   17U      H4'  529   4.175   4.017   5.152
   17U      O4'  530   4.340   4.126   5.218
   17U      C1'  531   4.415   4.136   5.093
   17U      H1'  532   4.370   4.209   5.027
   17U       N1  533   4.557   4.175   5.122
   17U       C6  534   4.639   4.096   5.201
   17U       H6  535   4.598   4.011   5.254
   17U       C5  536   4.773   4.120   5.206
   17U       H5  537   4.831   4.046   5.260
   17U       C4  538   4.836   4.216   5.121
   17U       O4  539   4.960   4.235   5.119
   17U       N3  540   4.746   4.295   5.058
   17U       H3  541   4.787   4.387   5.046
   17U       C2  542   4.613   4.283   5.061
   17U       O2  543   4.543   4.369   5.005
   17U      C3'  544   4.354   3.904   5.138
   17U      H3'  545   4.430   3.865   5.205
   17U      C2'  546   4.415   4.001   5.032
   17U      H2'  547   4.519   3.980   5.005
   17U      O2'  548   4.330   4.025   4.923
   17U     HO2'  549   4.339   3.941   4.876
   17U      O3'  550   4.285   3.801   5.071
   18A        P  551   4.364   3.699   4.978
   18A      OP1  552   4.288   3.571   4.979
   18A      OP2  553   4.505   3.690   5.019
   18A      O5'  554   4.350   3.775   4.836
   18A      C5'  555   4.221   3.791   4.778
   18A      H5'  556   4.163   3.849   4.850
   18A     H5''  557   4.174   3.694   4.764
   18A      C4'  558   4.233   3.870   4.644
   18A      H4'  559   4.131   3.882   4.606
   18A      O4'  560   4.276   4.006   4.667
   18A      C1'  561   4.369   4.044   4.581
   18A      H1'  562   4.337   4.134   4.528
   18A       N9  563   4.504   4.066   4.651
   18A       C8  564   4.593   3.970   4.705
   18A       H8  565   4.569   3.865   4.709
   18A       N7  566   4.705   4.019   4.752
   18A       C5  567   4.692   4.155   4.716
   18A       C6  568   4.777   4.267   4.717
   18A       N6  569   4.903   4.264   4.762
   18A      H61  570   4.960   4.347   4.756
   18A      H62  571   4.940   4.172   4.784
   18A       N1  572   4.742   4.389   4.681
   18A       C2  573   4.624   4.402   4.623
   18A       H2  574   4.593   4.502   4.597
   18A       N3  575   4.534   4.309   4.608
   18A       C4  576   4.570   4.185   4.662
   18A      C3'  577   4.334   3.808   4.544
   18A      H3'  578   4.419   3.764   4.595
   18A      C2'  579   4.390   3.939   4.474
   18A      H2'  580   4.494   3.927   4.443
   18A      O2'  581   4.306   3.982   4.364
   18A     HO2'  582   4.329   3.928   4.288
   18A      O3'  583   4.269   3.720   4.447
   19G        P  584   4.361   3.610   4.362
   19G      OP1  585   4.273   3.496   4.314
   19G      OP2  586   4.485   3.579   4.430
   19G      O5'  587   4.395   3.690   4.234
   19G      C5'  588   4.306   3.695   4.128
   19G      H5'  589   4.209   3.714   4.173
   19G     H5''  590   4.292   3.596   4.085
   19G      C4'  591   4.351   3.810   4.035
   19G      H4'  592   4.277   3.822   3.956
   19G      O4'  593   4.381   3.932   4.101
   19G      C1'  594   4.502   3.991   4.053
   19G      H1'  595   4.484   4.091   4.012
   19G       N9  596   4.596   3.997   4.166
   19G       C8  597   4.660   3.893   4.225
   19G       H8  598   4.639   3.789   4.204
   19G       N7  599   4.762   3.923   4.306
   19G       C5  600   4.754   4.063   4.305
   19G       C6  601   4.823   4.167   4.378
   19G       O6  602   4.915   4.156   4.465
   19G       N1  603   4.785   4.297   4.361
   19G       H1  604   4.831   4.365   4.421
   19G       C2  605   4.694   4.328   4.270
   19G       N2  606   4.668   4.455   4.262
   19G      H21  607   4.732   4.519   4.307
   19G      H22  608   4.594   4.491   4.203
   19G       N3  609   4.620   4.246   4.199
   19G       C4  610   4.654   4.113   4.222
   19G      C3'  611   4.481   3.765   3.966
   19G      H3'  612   4.534   3.713   4.046
   19G      C2'  613   4.553   3.903   3.944
   19G      H2'  614   4.662   3.891   3.938
   19G      O2'  615   4.512   3.958   3.822
   19G     HO2'  616   4.559   3.915   3.751
   19G      O3'  617   4.474   3.687   3.851
   20G        P  618   4.608   3.634   3.773
   20G      OP1  619   4.556   3.540   3.678
   20G      OP2  620   4.705   3.595   3.880
   20G      O5'  621   4.660   3.756   3.696
   20G      C5'  622   4.604   3.792   3.570
   20G      H5'  623   4.499   3.821   3.582
   20G     H5''  624   4.616   3.709   3.501
   20G      C4'  625   4.671   3.909   3.513
   20G      H4'  626   4.627   3.936   3.417
   20G      O4'  627   4.666   4.026   3.592
   20G      C1'  628   4.794   4.073   3.626
   20G      H1'  629   4.783   4.181   3.622
   20G       N9  630   4.837   4.046   3.765
   20G       C8  631   4.887   3.928   3.815
   20G       H8  632   4.866   3.831   3.774
   20G       N7  633   4.949   3.940   3.928
   20G       C5  634   4.942   4.075   3.960
   20G       C6  635   4.983   4.149   4.072
   20G       O6  636   5.041   4.108   4.174
   20G       N1  637   4.964   4.281   4.061
   20G       H1  638   4.993   4.341   4.137
   20G       C2  639   4.905   4.341   3.952
   20G       N2  640   4.926   4.470   3.957
   20G      H21  641   4.957   4.518   4.040
   20G      H22  642   4.876   4.521   3.886
   20G       N3  643   4.858   4.274   3.852
   20G       C4  644   4.875   4.140   3.859
   20G      C3'  645   4.821   3.872   3.493
   20G      H3'  646   4.861   3.804   3.567
   20G      C2'  647   4.880   4.014   3.512
   20G      H2'  648   4.983   4.004   3.545
   20G      O2'  649   4.867   4.101   3.401
   20G     HO2'  650   4.933   4.070   3.338
   20G      O3'  651   4.836   3.814   3.362
   21G3       P  652   4.980   3.775   3.309
   21G3     OP1  653   4.951   3.689   3.191
   21G3     OP2  654   5.053   3.711   3.426
   21G3     O5'  655   5.047   3.915   3.273
   21G3     C5'  656   5.015   3.984   3.150
   21G3     H5'  657   4.913   4.023   3.149
   21G3    H5''  658   5.026   3.909   3.071
   21G3     C4'  659   5.119   4.099   3.125
   21G3     H4'  660   5.089   4.143   3.029
   21G3     O4'  661   5.112   4.184   3.236
   21G3     C1'  662   5.237   4.198   3.301
   21G3     H1'  663   5.261   4.304   3.309
   21G3      N9  664   5.236   4.144   3.436
   21G3      C8  665   5.245   4.013   3.480
   21G3      H8  666   5.246   3.936   3.405
   21G3      N7  667   5.238   3.994   3.614
   21G3      C5  668   5.233   4.128   3.652
   21G3      C6  669   5.214   4.183   3.783
   21G3      O6  670   5.231   4.126   3.891
   21G3      N1  671   5.189   4.319   3.789
   21G3      H1  672   5.183   4.365   3.879
   21G3      C2  673   5.194   4.401   3.681
   21G3      N2  674   5.180   4.525   3.694
   21G3     H21  675   5.189   4.562   3.788
   21G3     H22  676   5.167   4.590   3.618
   21G3      N3  677   5.206   4.351   3.557
   21G3      C4  678   5.226   4.220   3.549
   21G3     C3'  679   5.259   4.044   3.117
   21G3     H3'  680   5.281   3.942   3.149
   21G3     C2'  681   5.339   4.130   3.214
   21G3     H2'  682   5.403   4.070   3.279
   21G3     O2'  683   5.415   4.236   3.146
   21G3    HO2'  684   5.503   4.243   3.184
   21G3     O3'  685   5.306   4.046   2.982
   21G3    HO3'  686   5.329   4.138   2.968
   22Cl-    Cl-  687   2.183   6.223   7.593
   23Cl-    Cl-  688   9.492   2.667   3.269
   24Cl-    Cl-  689   2.549   2.637   3.355
   25Cl-    Cl-  690   6.271   3.867   8.985
   26Cl-    Cl-  691   1.672   0.951   8.439
   27Cl-    Cl-  692   0.008   8.591   7.771
   28Cl-    Cl-  693   5.404   8.007   6.267
   29Cl-    Cl-  694   0.252   1.955   6.120
   30Cl-    Cl-  695   2.655   0.445   3.720
   31Cl-    Cl-  696   7.386   6.336   4.996
   32Cl-    Cl-  697   2.550   5.250   9.684
   33Cl-    Cl-  698   8.973   1.297   6.062
   34Cl-    Cl-  699   2.791   7.713   0.777
   35Cl-    Cl-  700   1.811   9.683   1.772
   36Cl-    Cl-  701   4.963   2.795   3.273
   37Cl-    Cl-  702   9.540   9.167   1.006
   38Cl-    Cl-  703   6.405   9.196   9.534
   39Cl-    Cl-  704   5.314   2.338   9.728
   40Cl-    Cl-  705   8.084   9.358   9.230
   41Cl-    Cl-  706   0.408   0.452   2.685
   42Cl-    Cl-  707   7.746   9.424   2.500
   43Cl-    Cl-  708   6.426   1.788   8.292
   44Cl-    Cl-  709   4.653   5.130   3.367
   45Cl-    Cl-  710   1.421   6.763   7.601
   46Cl-    Cl-  711   8.884   8.446   9.789
   47Cl-    Cl-  712   4.565   8.658   8.541
   48Cl-    Cl-  713   2.294   8.584   2.661
   49Cl-    Cl-  714   2.318   6.610   4.503
   50Cl-    Cl-  715   4.539   9.795   3.648
   51Cl-    Cl-  716   7.673   6.526   2.938
   52Cl-    Cl-  717   5.279   6.992   1.573
   53Cl-    Cl-  718   0.706   3.435   8.468
   54Cl-    Cl-  719   3.091   1.786   7.033
   55Cl-    Cl-  720   7.141   3.929   2.835
   56Cl-    Cl-  721   4.326   4.665   0.843
   57Cl-    Cl-  722   7.241   5.089   8.267
   58Cl-    Cl-  723   0.082   9.214   2.276
   59Cl-    Cl-  724   1.273   1.429   5.189
   60Cl-    Cl-  725   0.088   7.121   8.268
   61Cl-    Cl-  726   2.639   7.423   2.260
   62Cl-    Cl-  727   9.170   7.596   6.646
   63Cl-    Cl-  728   0.356   0.143   5.838
   64Cl-    Cl-  729   1.879   2.620   8.123
   65Cl-    Cl-  730   0.331   5.895   6.335
   66Cl-    Cl-  731   7.923   2.554   0.298
   67Cl-    Cl-  732   4.680   0.299   9.449
   68Cl-    Cl-  733   5.354   3.562   1.591
   69Cl-    Cl-  734   4.580   0.364   1.321
   70Cl-    Cl-  735   1.519   4.691   2.886
   71Cl-    Cl-  736   3.356   8.803   4.697
   72Cl-    Cl-  737   5.034   5.267   1.991
   73Cl-    Cl-  738   3.633   5.028   3.149
   74Cl-    Cl-  739   6.611   6.967   3.056
   75Cl-    Cl-  740   6.627   7.699   7.414
   76Cl-    Cl-  741   2.479   9.164   0.310
   77Cl-    Cl-  742   4.210   0.850   9.123
   78Cl-    Cl-  743   6.411   8.539   3.278
   79Cl-    Cl-  744   8.693   6.405   9.237
   80Cl-    Cl-  745   8.651   8.624   4.850
   81Cl-    Cl-  746   2.326   3.928   4.680
   82Cl-    Cl-  747   1.086   0.148   8.878
   83Cl-    Cl-  748   4.877   1.118   6.260
   84Cl-    Cl-  749   0.295   0.786   1.710
   85Cl-    Cl-  750   2.030   7.108   6.615
   86Cl-    Cl-  751   6.702   1.081   9.889
   87Cl-    Cl-  752   4.811   6.431   8.881
   88Cl-    Cl-  753   1.909   4.485   6.924
   89Cl-    Cl-  754   2.781   3.226   4.441
   90Cl-    Cl-  755   6.981   6.090   7.669
   91Cl-    Cl-  756   9.319   7.922   3.202
   92Cl-    Cl-  757   6.925   2.050   9.749
   93Cl-    Cl-  758   4.747   4.074   0.197
   94Cl-    Cl-  759   3.003   3.326   2.616
   95Cl-    Cl-  760   9.263   4.692   5.304
   96Cl-    Cl-  761   0.909   0.780   0.693
   97Cl-    Cl-  762   7.589   5.347   1.958
   98Cl-    Cl-  763   1.648   1.389   6.286
   99Cl-    Cl-  764   4.215   1.727   5.880
  100Cl-    Cl-  765   6.506   5.448   4.116
  101Cl-    Cl-  766   7.894   6.247   7.224
  102Cl-    Cl-  767   8.826   1.645   7.361
  103Cl-    Cl-  768   5.504   0.091   1.382
  104Cl-    Cl-  769   8.876   0.950   2.007
  105Cl-    Cl-  770   1.095   1.079   5.895
  106Cl-    Cl-  771   7.566   4.436   4.244
  107K+      K+  772   4.635   5.205   4.729
  108K+      K+  773   1.030   0.000   2.991
  109K+      K+  774   6.300   6.088   0.294
  110K+      K+  775   6.842   8.634   6.083
  111K+      K+  776   3.863   6.838   7.605
  112K+      K+  777   2.177   3.421   2.826
  113K+      K+  778   2.010   9.522   8.870
  114K+      K+  779   5.848   5.227   4.394
  115K+      K+  780   3.540   5.396   5.101
  116K+      K+  781   5.167   5.187   5.757
  117K+      K+  782   1.322   9.165   3.510
  118K+      K+  783   3.990   2.806   6.491
  119K+      K+  784   2.033   6.022   0.632
  120K+      K+  785   6.170   1.683   0.195
  121K+      K+  786   6.758   4.674   4.470
  122K+      K+  787   1.416   4.260   4.939
  123K+      K+  788   5.356   4.230   5.865
  124K+      K+  789   5.404   9.310   3.492
  125K+      K+  790   9.313   1.030   4.060
  126K+      K+  791   5.271   3.929   4.051
  127K+      K+  792   8.225   8.823   2.896
  128K+      K+  793   2.917   2.886   1.164
  129K+      K+  794   4.500   4.655   1.311
  130K+      K+  795   3.979   5.207   8.326
  131K+      K+  796   0.259   9.282   6.733
  132K+      K+  797   9.093   4.946   6.149
  133K+      K+  798   4.846   8.816   0.134
  134K+      K+  799   8.092   7.351   3.938
  135K+      K+  800   9.333   8.816   7.617
  136K+      K+  801   6.837   5.968   1.057
  137K+      K+  802   3.725   9.620   4.436
  138K+      K+  803   1.576   5.792   7.038
  139K+      K+  804   2.528   5.385   7.578
  140K+      K+  805   7.445   5.815   3.341
  141K+      K+  806   2.611   3.567   4.071
  142K+      K+  807   1.579   3.492   7.201
  143K+      K+  808   2.724   1.608   6.256
  144K+      K+  809   3.237   7.953   1.803
  145K+      K+  810   3.726   0.428   9.716
  146K+      K+  811   4.259   5.142   3.724
  147K+      K+  812   7.104   4.558   4.092
  148K+      K+  813   7.375   5.142   7.680
  149K+      K+  814   5.192   9.618   3.681
  150K+      K+  815   5.682   4.310   5.251
  151K+      K+  816   6.163   1.649   8.883
  152K+      K+  817   2.896   7.786   1.238
  153K+      K+  818   8.595   0.621   7.650
  154K+      K+  819   1.156   7.800   4.410
  155K+      K+  820   3.950   0.806   5.834
  156K+      K+  821   3.577   2.780   4.912
  157K+      K+  822   3.950   1.859   2.724
  158K+      K+  823   0.305   8.987   8.485
  159K+      K+  824   9.775   9.383   3.942
  160K+      K+  825   5.478   4.771   5.853
  161K+      K+  826   6.133   7.838   6.774
  162K+      K+  827   5.190   4.216   4.428
  163K+      K+  828   7.904   8.649   4.938
  164K+      K+  829   1.281   2.180   6.176
  165K+      K+  830   2.016   8.291   0.936
  166K+      K+  831   3.520   3.648   0.447
  167K+      K+  832   0.498   2.188   5.929
  168K+      K+  833   3.604   5.850   2.442
  169K+      K+  834   5.198   3.904   4.804
  170K+      K+  835   6.144   3.226   9.701
  171K+      K+  836   4.786   5.610   4.743
  172K+      K+  837   5.094   7.343   6.063
  173K+      K+  838   5.489   1.765   4.399
  174K+      K+  839   0.453   6.572   6.214
  175K+      K+  840   2.156   9.421   5.588
  176K+      K+  841   5.358   7.849   8.105
  177K+      K+  842   4.624   4.199   3.300
  178K+      K+  843   1.217   6.819   7.085
  179K+      K+  844   9.699   0.823   0.266
  180K+      K+  845   6.477   3.645   9.360
  181K+      K+  846   2.211   0.995   6.482
  182K+      K+  847   0.509   9.354   2.158
  183K+      K+  848   3.956   3.497   1.672
  184K+      K+  849   9.732   2.997   7.305
  185K+      K+  850   9.016   1.127   0.204
  186K+      K+  851   5.631   0.439   6.746
  187K+      K+  852   6.180   7.966   3.611
  188K+      K+  853   9.075   9.539   4.429
  189K+      K+  854   3.195   0.914   8.261
  190K+      K+  855   7.220   2.114   1.062
  191K+      K+  856   8.550   6.306   1.969
  192K+      K+  857   1.935   1.954   7.438
  193K+      K+  858   7.466   5.477   2.187
  194K+      K+  859   9.188   6.394   9.060
  195K+      K+  860   9.150   2.257   9.293
  196K+      K+  861   3.245   8.139   2.965
  197K+      K+  862   5.336   0.660   4.424
  198K+      K+  863   7.449   7.300   7.642
  199K+      K+  864   0.899   3.933   1.093
  200K+      K+  865   5.619   6.411   8.299
  201K+      K+  866   4.677   5.467   8.348
  202K+      K+  867   9.348   7.668   9.786
  203K+      K+  868   1.736   5.592   9.467
  204K+      K+  869   4.398   4.838   4.832
  205K+      K+  870   8.993   3.408   5.272
  206K+      K+  871   6.228   2.843   2.652
  207K+      K+  872   3.240   5.976   3.468
  208K+      K+  873   6.669   5.074   5.295
  209K+      K+  874   1.536   5.934   7.976
  210K+      K+  875   5.153   5.799   9.475
  211K+      K+  876   4.506   3.882   6.241
  212WAT      O  877   6.053   2.864   7.002
  212WAT     H1  878   6.152   2.866   7.007
  212WAT     H2  879   6.014   2.866   7.094
  213WAT      O  880   2.731   1.996   7.102
  213WAT     H1  881   2.788   1.958   7.175
  213WAT     H2  882   2.747   2.094   7.095
  214WAT      O  883   9.398   0.653   8.327
  214WAT     H1  884   9.434   0.737   8.367
  214WAT     H2  885   9.299   0.662   8.313
  215WAT      O  886   6.368   4.926   4.266
  215WAT     H1  887   6.296   4.971   4.213
  215WAT     H2  888   6.433   4.995   4.298
  216WAT      O  889   5.222   3.666   3.902
  216WAT     H1  890   5.267   3.677   3.813
  216WAT     H2  891   5.125   3.646   3.888
  217WAT      O  892   6.706   8.342   9.174
  217WAT     H1  893   6.618   8.333   9.220
  217WAT     H2  894   6.692   8.381   9.083
  218WAT      O  895   3.555   8.398   2.243
  218WAT     H1  896   3.641   8.362   2.209
  218WAT     H2  897   3.490   8.323   2.256
  219WAT      O  898   2.263   2.876   4.808
  219WAT     H1  899   2.301   2.800   4.861
  219WAT     H2  900   2.286   2.963   4.853
  220WAT      O  901   4.020   8.846   0.054
  220WAT     H1  902   4.091   8.819   0.120
  220WAT     H2  903   4.042   8.937   0.018
  221WAT      O  904   0.486   4.718   0.621
  221WAT     H1  905   0.484   4.619   0.636
  221WAT     H2  906   0.395   4.756   0.638
  222WAT      O  907   1.451   3.076   6.020
  222WAT     H1  908   1.363   3.095   6.064
  222WAT     H2  909   1.443   3.092   5.922
  223WAT      O  910   6.413   1.314   0.776
  223WAT     H1  911   6.487   1.250   0.792
  223WAT     H2  912   6.356   1.322   0.858
  224WAT      O  913   0.025   4.462   8.677
  224WAT     H1  914   0.036   4.363   8.670
  224WAT     H2  915  -0.012   4.498   8.592
  225WAT      O  916   1.062   4.090   9.587
  225WAT     H1  917   0.979   4.035   9.579
  225WAT     H2  918   1.140   4.030   9.603
  226WAT      O  919   3.620   3.991   9.128
  226WAT     H1  920   3.626   3.989   9.228
  226WAT     H2  921   3.622   4.086   9.097
  227WAT      O  922   9.072   9.325   2.987
  227WAT     H1  923   9.000   9.394   2.976
  227WAT     H2  924   9.151   9.350   2.932
  228WAT      O  925   0.380   7.121   5.818
  228WAT     H1  926   0.416   7.131   5.725
  228WAT     H2  927   0.430   7.182   5.879
  229WAT      O  928   6.093   3.327   0.106
  229WAT     H1  929   6.129   3.378   0.185
  229WAT     H2  930   6.153   3.249   0.088
  230WAT      O  931   0.385   2.311   2.292
  230WAT     H1  932   0.449   2.366   2.239
  230WAT     H2  933   0.357   2.232   2.237
  231WAT      O  934   0.291   3.375   1.646
  231WAT     H1  935   0.237   3.407   1.724
  231WAT     H2  936   0.247   3.401   1.561
  232WAT      O  937   8.006   8.457   1.714
  232WAT     H1  938   8.099   8.487   1.691
  232WAT     H2  939   8.009   8.367   1.757
  233WAT      O  940   1.184   8.493   6.897
  233WAT     H1  941   1.274   8.462   6.927
  233WAT     H2  942   1.126   8.507   6.977
  234WAT      O  943   3.480   5.448   3.159
  234WAT     H1  944   3.480   5.383   3.083
  234WAT     H2  945   3.429   5.409   3.235
  235WAT      O  946   1.887   8.472   7.963
  235WAT     H1  947   1.842   8.497   8.049
  235WAT     H2  948   1.983   8.448   7.981
  236WAT      O  949   3.132   5.132   3.115
  236WAT     H1  950   3.162   5.101   3.205
  236WAT     H2  951   3.050   5.189   3.125
  237WAT      O  952   9.378   5.671   3.246
  237WAT     H1  953   9.301   5.733   3.256
  237WAT     H2  954   9.379   5.606   3.322
  238WAT      O  955   2.194   4.889   3.185
  238WAT     H1  956   2.224   4.830   3.110
  238WAT     H2  957   2.225   4.983   3.167
  239WAT      O  958   6.636   5.234   9.389
  239WAT     H1  959   6.609   5.320   9.344
  239WAT     H2  960   6.714   5.252   9.449
  240WAT      O  961   4.740   0.916   8.755
  240WAT     H1  962   4.809   0.859   8.799
  240WAT     H2  963   4.772   0.943   8.665
  241WAT      O  964   6.759   9.719   5.873
  241WAT     H1  965   6.669   9.688   5.843
  241WAT     H2  966   6.796   9.784   5.807
  242WAT      O  967   9.656   1.126   3.867
  242WAT     H1  968   9.648   1.176   3.953
  242WAT     H2  969   9.693   1.035   3.884
  243WAT      O  970   0.832   6.480   7.261
  243WAT     H1  971   0.800   6.530   7.342
  243WAT     H2  972   0.930   6.462   7.271
  244WAT      O  973   9.768   0.588   9.231
  244WAT     H1  974   9.693   0.652   9.244
  244WAT     H2  975   9.823   0.617   9.152
  245WAT      O  976   7.487   0.667   3.988
  245WAT     H1  977   7.554   0.605   3.947
  245WAT     H2  978   7.396   0.627   3.983
  246WAT      O  979   6.613   3.410   8.753
  246WAT     H1  980   6.545   3.476   8.722
  246WAT     H2  981   6.648   3.358   8.674
  247WAT      O  982   2.933   0.928   6.253
  247WAT     H1  983   3.021   0.912   6.298
  247WAT     H2  984   2.914   0.854   6.188
  248WAT      O  985   1.547   9.709   8.859
  248WAT     H1  986   1.510   9.732   8.948
  248WAT     H2  987   1.473   9.701   8.793
  249WAT      O  988   1.876   0.766   8.672
  249WAT     H1  989   1.832   0.816   8.597
  249WAT     H2  990   1.907   0.831   8.741
  250WAT      O  991   1.841   7.925   8.968
  250WAT     H1  992   1.842   7.847   9.032
  250WAT     H2  993   1.919   7.985   8.988
  251WAT      O  994   2.616   4.251   0.713
  251WAT     H1  995   2.639   4.283   0.805
  251WAT     H2  996   2.519   4.265   0.696
  252WAT      O  997   7.167   8.507   5.747
  252WAT     H1  998   7.218   8.592   5.761
  252WAT     H2  999   7.076   8.528   5.710
  253WAT      O 1000   2.252   6.327   0.765
  253WAT     H1 1001   2.274   6.238   0.805
  253WAT     H2 1002   2.326   6.355   0.704
  254WAT      O 1003   6.465   8.818   3.983
  254WAT     H1 1004   6.540   8.832   4.048
  254WAT     H2 1005   6.402   8.895   3.988
  255WAT      O 1006   2.925   5.695   3.808
  255WAT     H1 1007   2.930   5.697   3.908
  255WAT     H2 1008   3.005   5.648   3.771
  256WAT      O 1009   3.480   1.010   9.389
  256WAT     H1 1010   3.528   1.095   9.412
  256WAT     H2 1011   3.526   0.933   9.433
  257WAT      O 1012   8.939   4.814   4.077
  257WAT     H1 1013   8.865   4.857   4.130
  257WAT     H2 1014   8.900   4.762   4.001
  258WAT      O 1015   1.285   9.212   6.281
  258WAT     H1 1016   1.324   9.303   6.290
  258WAT     H2 1017   1.207   9.214   6.218
  259WAT      O 1018   5.344   8.392   4.846
  259WAT     H1 1019   5.285   8.360   4.920
  259WAT     H2 1020   5.310   8.480   4.813
  260WAT      O 1021   3.691   1.532   6.128
  260WAT     H1 1022   3.726   1.467   6.196
  260WAT     H2 1023   3.766   1.590   6.097
  261WAT      O 1024   8.291   2.801   6.343
  261WAT     H1 1025   8.259   2.707   6.329
  261WAT     H2 1026   8.212   2.860   6.362
  262WAT      O 1027   4.461   6.636   7.019
  262WAT     H1 1028   4.507   6.562   7.067
  262WAT     H2 1029   4.377   6.602   6.977
  263WAT      O 1030   4.174   5.473   0.071
  263WAT     H1 1031   4.180   5.414  -0.009
  263WAT     H2 1032   4.252   5.535   0.073
  264WAT      O 1033   6.715   1.822   7.470
  264WAT     H1 1034   6.715   1.732   7.514
  264WAT     H2 1035   6.645   1.824   7.399
  265WAT      O 1036   2.463   2.196   8.652
  265WAT     H1 1037   2.425   2.274   8.602
  265WAT     H2 1038   2.468   2.117   8.592
  266WAT      O 1039   1.136   7.824   1.422
  266WAT     H1 1040   1.217   7.881   1.434
  266WAT     H2 1041   1.143   7.743   1.480
  267WAT      O 1042   6.267   8.897   9.416
  267WAT     H1 1043   6.178   8.876   9.456
  267WAT     H2 1044   6.294   8.990   9.441
  268WAT      O 1045   2.053   1.242   8.774
  268WAT     H1 1046   2.138   1.207   8.733
  268WAT     H2 1047   1.998   1.165   8.805
  269WAT      O 1048   8.227   7.335   0.226
  269WAT     H1 1049   8.199   7.252   0.179
  269WAT     H2 1050   8.147   7.380   0.265
  270WAT      O 1051   7.184   1.869   3.910
  270WAT     H1 1052   7.164   1.955   3.864
  270WAT     H2 1053   7.165   1.793   3.848
  271WAT      O 1054   0.514   3.477   0.780
  271WAT     H1 1055   0.512   3.515   0.873
  271WAT     H2 1056   0.429   3.428   0.762
  272WAT      O 1057   6.449   5.779   4.046
  272WAT     H1 1058   6.431   5.683   4.068
  272WAT     H2 1059   6.363   5.830   4.046
  273WAT      O 1060   5.606   4.341   7.723
  273WAT     H1 1061   5.528   4.284   7.698
  273WAT     H2 1062   5.678   4.283   7.761
  274WAT      O 1063   6.836   8.736   2.569
  274WAT     H1 1064   6.908   8.774   2.627
  274WAT     H2 1065   6.779   8.811   2.535
  275WAT      O 1066   9.389   1.999   5.928
  275WAT     H1 1067   9.337   1.945   5.993
  275WAT     H2 1068   9.363   1.974   5.835
  276WAT      O 1069   8.440   4.992   2.455
  276WAT     H1 1070   8.495   5.075   2.444
  276WAT     H2 1071   8.353   5.014   2.499
  277WAT      O 1072   6.787   8.572   0.544
  277WAT     H1 1073   6.802   8.664   0.581
  277WAT     H2 1074   6.698   8.538   0.574
  278WAT      O 1075   7.349   4.296   8.325
  278WAT     H1 1076   7.256   4.261   8.336
  278WAT     H2 1077   7.412   4.239   8.377
  279WAT      O 1078   6.887   1.438   2.179
  279WAT     H1 1079   6.837   1.379   2.242
  279WAT     H2 1080   6.840   1.440   2.091
  280WAT      O 1081   1.760   6.809   1.939
  280WAT     H1 1082   1.718   6.729   1.981
  280WAT     H2 1083   1.708   6.836   1.858
  281WAT      O 1084   2.184   1.969   2.783
  281WAT     H1 1085   2.168   2.027   2.862
  281WAT     H2 1086   2.251   2.013   2.723
  282WAT      O 1087   3.575   1.419   8.667
  282WAT     H1 1088   3.618   1.355   8.730
  282WAT     H2 1089   3.548   1.502   8.717
  283WAT      O 1090   3.563   8.526   7.748
  283WAT     H1 1091   3.638   8.522   7.814
  283WAT     H2 1092   3.508   8.443   7.755
  284WAT      O 1093   7.757   0.053   3.355
  284WAT     H1 1094   7.733   0.123   3.288
  284WAT     H2 1095   7.782  -0.032   3.308
  285WAT      O 1096   7.502   1.240   0.989
  285WAT     H1 1097   7.437   1.284   0.926
  285WAT     H2 1098   7.575   1.196   0.937
  286WAT      O 1099   8.797   3.929   0.603
  286WAT     H1 1100   8.702   3.957   0.591
  286WAT     H2 1101   8.856   4.009   0.591
  287WAT      O 1102   5.835   2.543   2.607
  287WAT     H1 1103   5.782   2.559   2.524
  287WAT     H2 1104   5.785   2.482   2.668
  288WAT      O 1105   9.500   8.202   1.819
  288WAT     H1 1106   9.411   8.159   1.836
  288WAT     H2 1107   9.529   8.181   1.725
  289WAT      O 1108   1.535   2.870   6.222
  289WAT     H1 1109   1.537   2.938   6.149
  289WAT     H2 1110   1.616   2.812   6.217
  290WAT      O 1111   3.015   4.415   7.051
  290WAT     H1 1112   3.029   4.400   7.149
  290WAT     H2 1113   3.016   4.514   7.032
  291WAT      O 1114   1.909   5.911   0.354
  291WAT     H1 1115   1.877   5.933   0.262
  291WAT     H2 1116   1.847   5.951   0.422
  292WAT      O 1117   8.491   3.914   1.978
  292WAT     H1 1118   8.449   4.000   1.949
  292WAT     H2 1119   8.469   3.896   2.074
  293WAT      O 1120   6.844   9.154   3.545
  293WAT     H1 1121   6.922   9.216   3.553
  293WAT     H2 1122   6.870   9.075   3.489
  294WAT      O 1123   3.640   6.115   5.533
  294WAT     H1 1124   3.695   6.035   5.557
  294WAT     H2 1125   3.557   6.116   5.587
  295WAT      O 1126   5.632   0.404   5.817
  295WAT     H1 1127   5.586   0.346   5.885
  295WAT     H2 1128   5.728   0.415   5.842
  296WAT      O 1129   5.524   0.246   9.510
  296WAT     H1 1130   5.607   0.280   9.552
  296WAT     H2 1131   5.452   0.315   9.516
  297WAT      O 1132   5.640   6.068   6.595
  297WAT     H1 1133   5.656   6.039   6.501
  297WAT     H2 1134   5.716   6.126   6.625
  298WAT      O 1135   2.088   1.186   8.443
  298WAT     H1 1136   1.989   1.198   8.445
  298WAT     H2 1137   2.133   1.267   8.480
  299WAT      O 1138   1.990   1.749   0.768
  299WAT     H1 1139   2.004   1.661   0.813
  299WAT     H2 1140   1.915   1.797   0.813
  300WAT      O 1141   9.130   0.647   6.048
  300WAT     H1 1142   9.180   0.686   5.971
  300WAT     H2 1143   9.032   0.655   6.032
  301WAT      O 1144   6.652   0.100   8.308
  301WAT     H1 1145   6.574   0.144   8.352
  301WAT     H2 1146   6.735   0.152   8.326
  302WAT      O 1147   8.527   0.718   4.570
  302WAT     H1 1148   8.482   0.797   4.611
  302WAT     H2 1149   8.561   0.743   4.479
  303WAT      O 1150   6.496   5.065   4.628
  303WAT     H1 1151   6.501   5.145   4.687
  303WAT     H2 1152   6.408   5.064   4.580
  304WAT      O 1153   2.206   5.028   6.591
  304WAT     H1 1154   2.245   5.119   6.579
  304WAT     H2 1155   2.209   4.979   6.504
  305WAT      O 1156   2.023   1.718   6.908
  305WAT     H1 1157   1.963   1.791   6.942
  305WAT     H2 1158   1.987   1.683   6.821
  306WAT      O 1159   5.584   7.915   2.261
  306WAT     H1 1160   5.516   7.843   2.269
  306WAT     H2 1161   5.611   7.925   2.165
  307WAT      O 1162   6.713   3.440   3.854
  307WAT     H1 1163   6.671   3.349   3.859
  307WAT     H2 1164   6.648   3.509   3.887
  308WAT      O 1165   1.809   8.934   2.278
  308WAT     H1 1166   1.752   9.004   2.320
  308WAT     H2 1167   1.880   8.977   2.222
  309WAT      O 1168   9.343   7.029   5.429
  309WAT     H1 1169   9.433   7.020   5.472
  309WAT     H2 1170   9.274   7.044   5.500
  310WAT      O 1171   9.410   9.053   9.672
  310WAT     H1 1172   9.408   9.108   9.756
  310WAT     H2 1173   9.441   9.110   9.596
  311WAT      O 1174   5.431   7.703   4.909
  311WAT     H1 1175   5.485   7.629   4.868
  311WAT     H2 1176   5.405   7.768   4.838
  312WAT      O 1177   9.322   8.847   2.424
  312WAT     H1 1178   9.290   8.781   2.492
  312WAT     H2 1179   9.312   8.940   2.460
  313WAT      O 1180   8.415   3.144   2.323
  313WAT     H1 1181   8.497   3.179   2.368
  313WAT     H2 1182   8.368   3.080   2.384
  314WAT      O 1183   3.897   7.054   9.406
  314WAT     H1 1184   3.825   6.994   9.443
  314WAT     H2 1185   3.860   7.146   9.394
  315WAT      O 1186   9.054   0.711   0.720
  315WAT     H1 1187   9.136   0.687   0.771
  315WAT     H2 1188   9.054   0.809   0.701
  316WAT      O 1189   6.427   7.748   5.592
  316WAT     H1 1190   6.343   7.799   5.612
  316WAT     H2 1191   6.436   7.737   5.494
  317WAT      O 1192   9.140   5.945   3.920
  317WAT     H1 1193   9.129   6.030   3.972
  317WAT     H2 1194   9.228   5.946   3.872
  318WAT      O 1195   6.300   7.137   6.302
  318WAT     H1 1196   6.384   7.189   6.286
  318WAT     H2 1197   6.323   7.040   6.312
  319WAT      O 1198   2.842   2.892   5.377
  319WAT     H1 1199   2.812   2.916   5.285
  319WAT     H2 1200   2.909   2.818   5.372
  320WAT      O 1201   3.412   5.936   1.433
  320WAT     H1 1202   3.349   5.941   1.510
  320WAT     H2 1203   3.386   6.006   1.365
  321WAT      O 1204   7.949   1.881   0.577
  321WAT     H1 1205   8.046   1.871   0.603
  321WAT     H2 1206   7.941   1.875   0.478
  322WAT      O 1207   8.159   5.344   7.787
  322WAT     H1 1208   8.102   5.292   7.724
  322WAT     H2 1209   8.222   5.402   7.735
  323WAT      O 1210   9.139   4.086   6.836
  323WAT     H1 1211   9.086   4.094   6.752
  323WAT     H2 1212   9.112   4.158   6.900
  324WAT      O 1213   8.682   6.302   0.351
  324WAT     H1 1214   8.634   6.284   0.265
  324WAT     H2 1215   8.743   6.380   0.340
  325WAT      O 1216   1.397   2.100   4.660
  325WAT     H1 1217   1.331   2.147   4.601
  325WAT     H2 1218   1.464   2.166   4.694
  326WAT      O 1219   8.035   8.859   5.325
  326WAT     H1 1220   8.121   8.807   5.324
  326WAT     H2 1221   7.974   8.824   5.254
  327WAT      O 1222   7.634   4.558   8.398
  327WAT     H1 1223   7.538   4.571   8.371
  327WAT     H2 1224   7.686   4.640   8.375
  328WAT      O 1225   9.674   3.267   5.362
  328WAT     H1 1226   9.650   3.218   5.446
  328WAT     H2 1227   9.708   3.202   5.294
  329WAT      O 1228   1.486   9.508   4.650
  329WAT     H1 1229   1.569   9.482   4.699
  329WAT     H2 1230   1.487   9.606   4.631
  330WAT      O 1231   6.136   8.349   6.445
  330WAT     H1 1232   6.163   8.374   6.352
  330WAT     H2 1233   6.036   8.348   6.451
  331WAT      O 1234   4.904   0.744   8.912
  331WAT     H1 1235   4.843   0.671   8.942
  331WAT     H2 1236   4.935   0.797   8.991
  332WAT      O 1237   4.716   5.198   1.254
  332WAT     H1 1238   4.746   5.181   1.160
  332WAT     H2 1239   4.668   5.286   1.258
  333WAT      O 1240   7.252   5.534   2.433
  333WAT     H1 1241   7.271   5.503   2.526
  333WAT     H2 1242   7.155   5.522   2.413
  334WAT      O 1243   8.596   2.671   6.983
  334WAT     H1 1244   8.602   2.645   7.080
  334WAT     H2 1245   8.688   2.694   6.949
  335WAT      O 1246   4.428   1.362   3.669
  335WAT     H1 1247   4.388   1.354   3.760
  335WAT     H2 1248   4.475   1.450   3.661
  336WAT      O 1249   8.175   0.247   3.210
  336WAT     H1 1250   8.087   0.254   3.163
  336WAT     H2 1251   8.239   0.195   3.153
  337WAT      O 1252   5.761   6.008   4.102
  337WAT     H1 1253   5.832   6.043   4.162
  337WAT     H2 1254   5.699   6.083   4.077
  338WAT      O 1255   4.504   3.552   7.179
  338WAT     H1 1256   4.594   3.512   7.161
  338WAT     H2 1257   4.433   3.483   7.165
  339WAT      O 1258   8.919   1.141   5.795
  339WAT     H1 1259   8.948   1.211   5.861
  339WAT     H2 1260   8.827   1.110   5.817
  340WAT      O 1261   4.800   7.717   7.764
  340WAT     H1 1262   4.783   7.761   7.852
  340WAT     H2 1263   4.777   7.781   7.690
  341WAT      O 1264   9.220   8.998   5.055
  341WAT     H1 1265   9.318   8.981   5.052
  341WAT     H2 1266   9.200   9.069   5.123
  342WAT      O 1267   7.841   8.031   4.903
  342WAT     H1 1268   7.809   7.946   4.861
  342WAT     H2 1269   7.806   8.109   4.850
  343WAT      O 1270   4.274   9.555   6.916
  343WAT     H1 1271   4.178   9.561   6.888
  343WAT     H2 1272   4.280   9.514   7.006
  344WAT      O 1273   0.374   9.107   2.910
  344WAT     H1 1274   0.379   9.013   2.876
  344WAT     H2 1275   0.313   9.111   2.989
  345WAT      O 1276   1.736   2.917   6.732
  345WAT     H1 1277   1.680   2.857   6.790
  345WAT     H2 1278   1.688   3.004   6.719
  346WAT      O 1279   8.802   1.248   1.566
  346WAT     H1 1280   8.896   1.258   1.597
  346WAT     H2 1281   8.773   1.153   1.575
  347WAT      O 1282   0.456   5.876   4.028
  347WAT     H1 1283   0.489   5.824   3.949
  347WAT     H2 1284   0.412   5.960   3.996
  348WAT      O 1285   6.252   3.363   5.044
  348WAT     H1 1286   6.330   3.423   5.028
  348WAT     H2 1287   6.207   3.343   4.957
  349WAT      O 1288   5.342   0.365   0.242
  349WAT     H1 1289   5.304   0.342   0.153
  349WAT     H2 1290   5.417   0.302   0.264
  350WAT      O 1291   7.485   9.327   9.819
  350WAT     H1 1292   7.470   9.239   9.866
  350WAT     H2 1293   7.400   9.355   9.774
  351WAT      O 1294   3.084   3.482   6.782
  351WAT     H1 1295   3.184   3.484   6.783
  351WAT     H2 1296   3.053   3.392   6.813
  352WAT      O 1297   8.939   4.579   9.645
  352WAT     H1 1298   8.969   4.606   9.736
  352WAT     H2 1299   8.885   4.652   9.604
  353WAT      O 1300   8.186   1.918   0.926
  353WAT     H1 1301   8.173   1.830   0.971
  353WAT     H2 1302   8.098   1.963   0.913
  354WAT      O 1303   8.231   1.813   0.595
  354WAT     H1 1304   8.303   1.883   0.590
  354WAT     H2 1305   8.250   1.752   0.672
  355WAT      O 1306   2.154   6.227   3.286
  355WAT     H1 1307   2.099   6.198   3.208
  355WAT     H2 1308   2.239   6.269   3.253
  356WAT      O 1309   2.722   7.592   3.301
  356WAT     H1 1310   2.785   7.516   3.284
  356WAT     H2 1311   2.635   7.556   3.335
  357WAT      O 1312   7.315   5.275   6.699
  357WAT     H1 1313   7.261   5.203   6.742
  357WAT     H2 1314   7.261   5.318   6.626
  358WAT      O 1315   3.339   2.639   5.921
  358WAT     H1 1316   3.277   2.573   5.880
  358WAT     H2 1317   3.425   2.593   5.945
  359WAT      O 1318   9.263   4.095   2.098
  359WAT     H1 1319   9.198   4.168   2.119
  359WAT     H2 1320   9.276   4.038   2.179
  360WAT      O 1321   1.050   0.920   5.414
  360WAT     H1 1322   1.147   0.944   5.421
  360WAT     H2 1323   1.008   0.923   5.505
  361WAT      O 1324   2.984   4.588   8.535
  361WAT     H1 1325   3.011   4.683   8.520
  361WAT     H2 1326   2.898   4.585   8.586
  362WAT      O 1327   4.673   8.207   5.789
  362WAT     H1 1328   4.761   8.211   5.837
  362WAT     H2 1329   4.606   8.161   5.847
  363WAT      O 1330   8.611   6.837   0.655
  363WAT     H1 1331   8.624   6.786   0.740
  363WAT     H2 1332   8.690   6.898   0.641
  364WAT      O 1333   1.676   9.547   6.855
  364WAT     H1 1334   1.585   9.588   6.866
  364WAT     H2 1335   1.721   9.542   6.944
  365WAT      O 1336   4.866   4.985   1.980
  365WAT     H1 1337   4.906   4.926   2.050
  365WAT     H2 1338   4.917   5.071   1.976
  366WAT      O 1339   5.942   9.133   9.405
  366WAT     H1 1340   5.909   9.190   9.480
  366WAT     H2 1341   5.947   9.038   9.434
  367WAT      O 1342   6.840   4.184   6.218
  367WAT     H1 1343   6.901   4.262   6.205
  367WAT     H2 1344   6.761   4.193   6.159
  368WAT      O 1345   8.794   0.791   9.714
  368WAT     H1 1346   8.723   0.725   9.692
  368WAT     H2 1347   8.794   0.864   9.646
  369WAT      O 1348   7.633   2.417   9.485
  369WAT     H1 1349   7.632   2.349   9.558
  369WAT     H2 1350   7.544   2.418   9.439
  370WAT      O 1351   1.603   3.923   0.240
  370WAT     H1 1352   1.620   3.838   0.291
  370WAT     H2 1353   1.516   3.962   0.268
  371WAT      O 1354   5.195   7.390   2.348
  371WAT     H1 1355   5.213   7.452   2.271
  371WAT     H2 1356   5.101   7.402   2.379
  372WAT      O 1357   1.502   8.759   8.749
  372WAT     H1 1358   1.403   8.763   8.758
  372WAT     H2 1359   1.529   8.810   8.667
  373WAT      O 1360   2.921   0.257   1.725
  373WAT     H1 1361   2.839   0.307   1.699
  373WAT     H2 1362   2.987   0.320   1.767
  374WAT      O 1363   7.893   1.161   8.052
  374WAT     H1 1364   7.926   1.069   8.074
  374WAT     H2 1365   7.800   1.172   8.087
  375WAT      O 1366   8.809   3.708   9.331
  375WAT     H1 1367   8.816   3.729   9.428
  375WAT     H2 1368   8.714   3.693   9.306
  376WAT      O 1369   3.439   5.813   7.481
  376WAT     H1 1370   3.433   5.771   7.571
  376WAT     H2 1371   3.423   5.744   7.410
  377WAT      O 1372   5.224   2.757   2.115
  377WAT     H1 1373   5.316   2.717   2.116
  377WAT     H2 1374   5.229   2.848   2.074
  378WAT      O 1375   1.292   0.575   1.740
  378WAT     H1 1376   1.312   0.597   1.835
  378WAT     H2 1377   1.193   0.564   1.729
  379WAT      O 1378   8.683   8.786   6.530
  379WAT     H1 1379   8.745   8.780   6.452
  379WAT     H2 1380   8.697   8.873   6.577
  380WAT      O 1381   7.754   2.653   6.989
  380WAT     H1 1382   7.740   2.748   6.960
  380WAT     H2 1383   7.684   2.595   6.948
  381WAT      O 1384   4.755   6.614   4.783
  381WAT     H1 1385   4.670   6.583   4.826
  381WAT     H2 1386   4.755   6.585   4.687
  382WAT      O 1387   0.501   3.054   3.394
  382WAT     H1 1388   0.404   3.058   3.369
  382WAT     H2 1389   0.509   3.051   3.494
  383WAT      O 1390   0.101   3.334   9.118
  383WAT     H1 1391   0.146   3.422   9.101
  383WAT     H2 1392   0.021   3.348   9.175
  384WAT      O 1393   7.641   0.615   8.368
  384WAT     H1 1394   7.740   0.604   8.376
  384WAT     H2 1395   7.605   0.552   8.299
  385WAT      O 1396   0.285   2.032   4.811
  385WAT     H1 1397   0.276   2.132   4.806
  385WAT     H2 1398   0.377   2.008   4.840
  386WAT      O 1399   4.074   9.210   4.138
  386WAT     H1 1400   4.156   9.251   4.178
  386WAT     H2 1401   4.025   9.280   4.085
  387WAT      O 1402   5.517   2.391   3.758
  387WAT     H1 1403   5.494   2.488   3.771
  387WAT     H2 1404   5.610   2.383   3.723
  388WAT      O 1405   0.237   8.226   5.019
  388WAT     H1 1406   0.155   8.184   4.979
  388WAT     H2 1407   0.228   8.326   5.017
  389WAT      O 1408   6.478   2.246   8.501
  389WAT     H1 1409   6.381   2.227   8.488
  389WAT     H2 1410   6.524   2.163   8.532
  390WAT      O 1411   8.717   7.986   2.518
  390WAT     H1 1412   8.769   7.922   2.462
  390WAT     H2 1413   8.780   8.042   2.572
  391WAT      O 1414   6.268   5.416   2.665
  391WAT     H1 1415   6.284   5.513   2.645
  391WAT     H2 1416   6.203   5.409   2.741
  392WAT      O 1417   1.900   2.613   1.456
  392WAT     H1 1418   1.948   2.650   1.536
  392WAT     H2 1419   1.945   2.644   1.373
  393WAT      O 1420   6.745   8.228   3.343
  393WAT     H1 1421   6.694   8.288   3.403
  393WAT     H2 1422   6.696   8.218   3.256
  394WAT      O 1423   5.100   4.755   7.142
  394WAT     H1 1424   5.153   4.838   7.125
  394WAT     H2 1425   5.077   4.712   7.055
  395WAT      O 1426   0.114   4.246   7.305
  395WAT     H1 1427   0.062   4.295   7.234
  395WAT     H2 1428   0.201   4.216   7.267
  396WAT      O 1429   5.635   9.437   9.004
  396WAT     H1 1430   5.621   9.409   9.099
  396WAT     H2 1431   5.731   9.427   8.980
  397WAT      O 1432   1.140   3.886   3.460
  397WAT     H1 1433   1.217   3.922   3.408
  397WAT     H2 1434   1.135   3.933   3.549
  398WAT      O 1435   8.306   2.119   1.871
  398WAT     H1 1436   8.300   2.199   1.930
  398WAT     H2 1437   8.362   2.049   1.915
  399WAT      O 1438   0.299   0.597   8.286
  399WAT     H1 1439   0.305   0.509   8.239
  399WAT     H2 1440   0.261   0.665   8.223
  400WAT      O 1441   8.158   3.864   1.298
  400WAT     H1 1442   8.234   3.907   1.346
  400WAT     H2 1443   8.194   3.801   1.228
  401WAT      O 1444   6.741   7.599   9.550
  401WAT     H1 1445   6.787   7.611   9.462
  401WAT     H2 1446   6.728   7.688   9.593
  402WAT      O 1447   7.770   9.281   6.542
  402WAT     H1 1448   7.752   9.210   6.609
  402WAT     H2 1449   7.857   9.327   6.565
  403WAT      O 1450   8.026   1.811   0.040
  403WAT     H1 1451   8.021   1.900   0.084
  403WAT     H2 1452   8.013   1.739   0.109
  404WAT      O 1453   6.417   4.015   9.767
  404WAT     H1 1454   6.484   4.089   9.774
  404WAT     H2 1455   6.328   4.053   9.742
  405WAT      O 1456   4.325   8.204   7.440
  405WAT     H1 1457   4.334   8.106   7.421
  405WAT     H2 1458   4.289   8.216   7.533
  406WAT      O 1459   1.118   2.938   2.294
  406WAT     H1 1460   1.111   3.029   2.253
  406WAT     H2 1461   1.211   2.924   2.328
  407WAT      O 1462   7.227   1.642   1.155
  407WAT     H1 1463   7.136   1.648   1.197
  407WAT     H2 1464   7.227   1.573   1.083
  408WAT      O 1465   8.975   6.891   1.310
  408WAT     H1 1466   8.882   6.888   1.346
  408WAT     H2 1467   8.975   6.861   1.215
  409WAT      O 1468   1.402   0.604   7.661
  409WAT     H1 1469   1.338   0.577   7.589
  409WAT     H2 1470   1.385   0.550   7.743
  410WAT      O 1471   5.639   7.040   5.337
  410WAT     H1 1472   5.613   7.100   5.413
  410WAT     H2 1473   5.738   7.031   5.334
  411WAT      O 1474   2.815   8.067   8.484
  411WAT     H1 1475   2.864   8.076   8.397
  411WAT     H2 1476   2.813   7.971   8.511
  412WAT      O 1477   7.842   3.955   6.481
  412WAT     H1 1478   7.854   3.862   6.516
  412WAT     H2 1479   7.915   4.014   6.518
  413WAT      O 1480   6.562   5.430   1.197
  413WAT     H1 1481   6.612   5.432   1.284
  413WAT     H2 1482   6.548   5.335   1.169
  414WAT      O 1483   4.067   1.671   9.593
  414WAT     H1 1484   3.998   1.714   9.534
  414WAT     H2 1485   4.114   1.599   9.541
  415WAT      O 1486   4.186   2.467   5.101
  415WAT     H1 1487   4.194   2.408   5.181
  415WAT     H2 1488   4.101   2.519   5.106
  416WAT      O 1489   9.530   5.323   8.701
  416WAT     H1 1490   9.545   5.421   8.711
  416WAT     H2 1491   9.553   5.276   8.787
  417WAT      O 1492   3.994   8.162   6.145
  417WAT     H1 1493   3.908   8.213   6.147
  417WAT     H2 1494   4.062   8.212   6.092
  418WAT      O 1495   2.256   7.011   2.478
  418WAT     H1 1496   2.283   7.021   2.382
  418WAT     H2 1497   2.324   6.956   2.526
  419WAT      O 1498   1.072   0.146   2.603
  419WAT     H1 1499   1.105   0.051   2.596
  419WAT     H2 1500   1.015   0.167   2.524
  420WAT      O 1501   7.354   6.797   9.843
  420WAT     H1 1502   7.366   6.726   9.912
  420WAT     H2 1503   7.263   6.838   9.853
  421WAT      O 1504   7.541   2.457   2.728
  421WAT     H1 1505   7.516   2.496   2.817
  421WAT     H2 1506   7.592   2.524   2.675
  422WAT      O 1507   6.446   9.049   8.375
  422WAT     H1 1508   6.367   9.067   8.317
  422WAT     H2 1509   6.462   9.128   8.435
  423WAT      O 1510   2.148   1.453   9.329
  423WAT     H1 1511   2.234   1.403   9.324
  423WAT     H2 1512   2.152   1.519   9.405
  424WAT      O 1513   8.271   0.163   1.388
  424WAT     H1 1514   8.186   0.190   1.433
  424WAT     H2 1515   8.252   0.140   1.292
  425WAT      O 1516   7.202   5.239   1.587
  425WAT     H1 1517   7.135   5.309   1.562
  425WAT     H2 1518   7.278   5.281   1.635
  426WAT      O 1519   8.341   9.832   5.877
  426WAT     H1 1520   8.350   9.907   5.943
  426WAT     H2 1521   8.429   9.785   5.868
  427WAT      O 1522   6.174   1.172   7.690
  427WAT     H1 1523   6.249   1.161   7.625
  427WAT     H2 1524   6.091   1.201   7.642
  428WAT      O 1525   9.045   4.165   7.996
  428WAT     H1 1526   9.016   4.102   8.068
  428WAT     H2 1527   9.143   4.184   8.006
  429WAT      O 1528   2.940   6.846   6.442
  429WAT     H1 1529   2.919   6.900   6.360
  429WAT     H2 1530   2.854   6.815   6.484
  430WAT      O 1531   2.815   0.381   9.557
  430WAT     H1 1532   2.731   0.366   9.505
  430WAT     H2 1533   2.840   0.296   9.604
  431WAT      O 1534   0.697   8.600   9.551
  431WAT     H1 1535   0.763   8.669   9.522
  431WAT     H2 1536   0.606   8.641   9.559
  432WAT      O 1537   5.231   5.982   3.703
  432WAT     H1 1538   5.189   5.930   3.777
  432WAT     H2 1539   5.290   6.053   3.741
  433WAT      O 1540   8.274   9.519   8.601
  433WAT     H1 1541   8.187   9.475   8.625
  433WAT     H2 1542   8.327   9.533   8.685
  434WAT      O 1543   8.885   2.669   7.348
  434WAT     H1 1544   8.980   2.640   7.335
  434WAT     H2 1545   8.867   2.680   7.446
  435WAT      O 1546   9.432   5.413   4.273
  435WAT     H1 1547   9.369   5.354   4.323
  435WAT     H2 1548   9.380   5.478   4.217
  436WAT      O 1549   9.801   6.115   6.998
  436WAT     H1 1550   9.742   6.190   7.028
  436WAT     H2 1551   9.781   6.034   7.053
  437WAT      O 1552   4.626   7.514   5.931
  437WAT     H1 1553   4.672   7.508   5.843
  437WAT     H2 1554   4.590   7.606   5.944
  438WAT      O 1555   1.673   4.990   3.827
  438WAT     H1 1556   1.680   4.891   3.816
  438WAT     H2 1557   1.599   5.012   3.892
  439WAT      O 1558   0.669   0.943   5.578
  439WAT     H1 1559   0.631   0.992   5.656
  439WAT     H2 1560   0.755   0.900   5.604
  440WAT      O 1561   7.729   2.119   6.254
  440WAT     H1 1562   7.665   2.107   6.330
  440WAT     H2 1563   7.808   2.172   6.286
  441WAT      O 1564   2.517   1.296   5.258
  441WAT     H1 1565   2.597   1.242   5.280
  441WAT     H2 1566   2.473   1.259   5.176
  442WAT      O 1567   0.907   5.737   2.766
  442WAT     H1 1568   0.867   5.738   2.674
  442WAT     H2 1569   0.936   5.645   2.789
  443WAT      O 1570   3.677   0.750   4.385
  443WAT     H1 1571   3.635   0.762   4.295
  443WAT     H2 1572   3.606   0.754   4.456
  444WAT      O 1573   8.620   5.241   8.205
  444WAT     H1 1574   8.544   5.237   8.270
  444WAT     H2 1575   8.589   5.206   8.116
  445WAT      O 1576   4.365   2.385   5.724
  445WAT     H1 1577   4.326   2.328   5.651
  445WAT     H2 1578   4.297   2.452   5.753
  446WAT      O 1579   1.603   2.295   6.094
  446WAT     H1 1580   1.698   2.274   6.071
  446WAT     H2 1581   1.600   2.342   6.182
  447WAT      O 1582   1.873   8.250   6.033
  447WAT     H1 1583   1.837   8.343   6.032
  447WAT     H2 1584   1.970   8.251   6.010
  448WAT      O 1585   2.956   9.723   5.479
  448WAT     H1 1586   2.983   9.717   5.575
  448WAT     H2 1587   2.866   9.765   5.471
  449WAT      O 1588   6.131   1.326   9.238
  449WAT     H1 1589   6.207   1.369   9.288
  449WAT     H2 1590   6.071   1.279   9.303
  450WAT      O 1591   9.303   4.534   2.550
  450WAT     H1 1592   9.215   4.557   2.592
  450WAT     H2 1593   9.353   4.470   2.608
  451WAT      O 1594   3.050   4.950   6.684
  451WAT     H1 1595   2.984   4.958   6.609
  451WAT     H2 1596   3.109   5.031   6.685
  452WAT      O 1597   6.499   2.411   9.282
  452WAT     H1 1598   6.580   2.470   9.281
  452WAT     H2 1599   6.456   2.411   9.191
  453WAT      O 1600   4.933   3.865   4.969
  453WAT     H1 1601   4.892   3.795   4.911
  453WAT     H2 1602   4.891   3.953   4.950
  454WAT      O 1603   6.555   6.001   4.485
  454WAT     H1 1604   6.474   6.023   4.432
  454WAT     H2 1605   6.607   5.929   4.439
  455WAT      O 1606   5.634   8.559   2.313
  455WAT     H1 1607   5.611   8.530   2.406
  455WAT     H2 1608   5.728   8.592   2.311
  456WAT      O 1609   2.193   0.786   7.935
  456WAT     H1 1610   2.272   0.777   7.996
  456WAT     H2 1611   2.195   0.875   7.890
  457WAT      O 1612   2.887   7.074   9.351
  457WAT     H1 1613   2.898   7.120   9.439
  457WAT     H2 1614   2.978   7.051   9.315
  458WAT      O 1615   2.475   8.407   1.729
  458WAT     H1 1616   2.376   8.413   1.720
  458WAT     H2 1617   2.517   8.488   1.687
  459WAT      O 1618   1.028   3.399   6.113
  459WAT     H1 1619   0.930   3.405   6.131
  459WAT     H2 1620   1.064   3.491   6.096
  460WAT      O 1621   6.423   3.458   4.035
  460WAT     H1 1622   6.397   3.470   4.131
  460WAT     H2 1623   6.497   3.522   4.012
  461WAT      O 1624   0.572   6.232   5.074
  461WAT     H1 1625   0.537   6.144   5.107
  461WAT     H2 1626   0.602   6.222   4.979
  462WAT      O 1627   7.184   8.216   7.012
  462WAT     H1 1628   7.120   8.149   6.974
  462WAT     H2 1629   7.139   8.305   7.019
  463WAT      O 1630   1.725   7.016   7.890
  463WAT     H1 1631   1.809   7.071   7.884
  463WAT     H2 1632   1.648   7.069   7.854
  464WAT      O 1633   0.116   2.236   4.630
  464WAT     H1 1634   0.104   2.293   4.712
  464WAT     H2 1635   0.205   2.191   4.634
  465WAT      O 1636   1.892   4.747   9.373
  465WAT     H1 1637   1.933   4.837   9.388
  465WAT     H2 1638   1.800   4.745   9.412
  466WAT      O 1639   9.697   2.734   6.178
  466WAT     H1 1640   9.723   2.768   6.268
  466WAT     H2 1641   9.600   2.710   6.178
  467WAT      O 1642   9.313   8.182   4.474
  467WAT     H1 1643   9.302   8.118   4.550
  467WAT     H2 1644   9.381   8.146   4.410
  468WAT      O 1645   6.084   1.251   6.117
  468WAT     H1 1646   6.176   1.212   6.112
  468WAT     H2 1647   6.038   1.215   6.198
  469WAT      O 1648   8.596   4.203   1.380
  469WAT     H1 1649   8.626   4.138   1.450
  469WAT     H2 1650   8.673   4.258   1.349
  470WAT      O 1651   5.184   7.172   4.645
  470WAT     H1 1652   5.218   7.265   4.661
  470WAT     H2 1653   5.225   7.136   4.562
  471WAT      O 1654   9.200   8.764   1.505
  471WAT     H1 1655   9.180   8.855   1.468
  471WAT     H2 1656   9.134   8.743   1.578
  472WAT      O 1657   1.803   6.784   3.382
  472WAT     H1 1658   1.854   6.863   3.345
  472WAT     H2 1659   1.810   6.784   3.481
  473WAT      O 1660   5.429   9.029   4.995
  473WAT     H1 1661   5.403   8.957   4.931
  473WAT     H2 1662   5.520   9.064   4.971
  474WAT      O 1663   8.549   4.684   7.345
  474WAT     H1 1664   8.502   4.632   7.274
  474WAT     H2 1665   8.628   4.633   7.377
  475WAT      O 1666   8.243   7.118   1.969
  475WAT     H1 1667   8.222   7.206   1.927
  475WAT     H2 1668   8.160   7.080   2.010
  476WAT      O 1669   6.066   0.092   8.362
  476WAT     H1 1670   6.089   0.030   8.287
  476WAT     H2 1671   5.967   0.103   8.367
  477WAT      O 1672   2.357   3.712   7.280
  477WAT     H1 1673   2.289   3.696   7.351
  477WAT     H2 1674   2.317   3.770   7.208
  478WAT      O 1675   0.601   9.510   6.240
  478WAT     H1 1676   0.697   9.479   6.243
  478WAT     H2 1677   0.541   9.433   6.260
  479WAT      O 1678   4.174   6.413   4.620
  479WAT     H1 1679   4.169   6.325   4.666
  479WAT     H2 1680   4.168   6.486   4.688
  480WAT      O 1681   2.747   7.313   0.475
  480WAT     H1 1682   2.838   7.355   0.471
  480WAT     H2 1683   2.687   7.371   0.531
  481WAT      O 1684   5.808   0.204   1.767
  481WAT     H1 1685   5.770   0.258   1.692
  481WAT     H2 1686   5.906   0.191   1.753
  482WAT      O 1687   1.131   5.797   6.879
  482WAT     H1 1688   1.129   5.803   6.779
  482WAT     H2 1689   1.146   5.888   6.917
  483WAT      O 1690   0.667   4.111   6.537
  483WAT     H1 1691   0.752   4.142   6.580
  483WAT     H2 1692   0.594   4.175   6.558
  484WAT      O 1693   7.284   1.124   4.271
  484WAT     H1 1694   7.318   1.154   4.182
  484WAT     H2 1695   7.297   1.197   4.338
  485WAT      O 1696   8.359   9.459   5.663
  485WAT     H1 1697   8.408   9.372   5.665
  485WAT     H2 1698   8.349   9.493   5.756
  486WAT      O 1699   0.896   8.717   4.679
  486WAT     H1 1700   0.987   8.750   4.656
  486WAT     H2 1701   0.900   8.618   4.697
  487WAT      O 1702   2.142   2.844   5.712
  487WAT     H1 1703   2.241   2.835   5.709
  487WAT     H2 1704   2.115   2.930   5.668
  488WAT      O 1705   1.241   3.112   7.892
  488WAT     H1 1706   1.159   3.115   7.950
  488WAT     H2 1707   1.280   3.021   7.895
  489WAT      O 1708   6.022   8.320   4.193
  489WAT     H1 1709   6.121   8.315   4.177
  489WAT     H2 1710   6.004   8.312   4.291
  490WAT      O 1711   5.304   6.640   1.302
  490WAT     H1 1712   5.395   6.675   1.282
  490WAT     H2 1713   5.296   6.623   1.401
  491WAT      O 1714   0.816   8.685   6.752
  491WAT     H1 1715   0.898   8.687   6.694
  491WAT     H2 1716   0.811   8.771   6.804
  492WAT      O 1717   2.967   8.766   2.016
  492WAT     H1 1718   3.067   8.763   2.018
  492WAT     H2 1719   2.937   8.810   1.932
  493WAT      O 1720   6.790   0.500   9.693
  493WAT     H1 1721   6.820   0.450   9.611
  493WAT     H2 1722   6.761   0.592   9.667
  494WAT      O 1723   3.937   5.458   0.239
  494WAT     H1 1724   3.934   5.538   0.299
  494WAT     H2 1725   4.030   5.445   0.206
  495WAT      O 1726   4.477   2.801   8.021
  495WAT     H1 1727   4.482   2.888   7.972
  495WAT     H2 1728   4.568   2.778   8.057
  496WAT      O 1729   7.059   9.322   3.250
  496WAT     H1 1730   7.089   9.299   3.342
  496WAT     H2 1731   6.962   9.348   3.252
  497WAT      O 1732   6.712   7.550   0.605
  497WAT     H1 1733   6.727   7.622   0.538
  497WAT     H2 1734   6.614   7.535   0.616
  498WAT      O 1735   1.998   3.612   6.720
  498WAT     H1 1736   2.059   3.686   6.749
  498WAT     H2 1737   2.042   3.560   6.647
  499WAT      O 1738   2.202   4.481   9.846
  499WAT     H1 1739   2.156   4.464   9.934
  499WAT     H2 1740   2.254   4.566   9.851
  500WAT      O 1741   4.521   0.162   2.366
  500WAT     H1 1742   4.536   0.251   2.409
  500WAT     H2 1743   4.599   0.140   2.307
  501WAT      O 1744   8.000   8.898   4.964
  501WAT     H1 1745   8.023   8.954   4.884
  501WAT     H2 1746   8.075   8.902   5.030
  502WAT      O 1747   0.476   7.583   0.369
  502WAT     H1 1748   0.410   7.638   0.420
  502WAT     H2 1749   0.513   7.512   0.429
  503WAT      O 1750   8.787   7.148   6.829
  503WAT     H1 1751   8.880   7.163   6.860
  503WAT     H2 1752   8.730   7.119   6.907
  504WAT      O 1753   0.502   4.131   9.356
  504WAT     H1 1754   0.464   4.172   9.273
  504WAT     H2 1755   0.518   4.034   9.340
  505WAT      O 1756   5.096   0.542   6.057
  505WAT     H1 1757   5.149   0.460   6.036
  505WAT     H2 1758   5.051   0.531   6.146
  506WAT      O 1759   0.606   8.585   6.121
  506WAT     H1 1760   0.607   8.487   6.102
  506WAT     H2 1761   0.584   8.599   6.218
  507WAT      O 1762   9.224   7.762   7.314
  507WAT     H1 1763   9.126   7.757   7.330
  507WAT     H2 1764   9.242   7.782   7.218
  508WAT      O 1765   0.871   4.230   6.716
  508WAT     H1 1766   0.914   4.268   6.634
  508WAT     H2 1767   0.937   4.176   6.767
  509WAT      O 1768   0.311   8.352   8.465
  509WAT     H1 1769   0.258   8.272   8.491
  509WAT     H2 1770   0.321   8.355   8.365
  510WAT      O 1771   1.770   3.310   1.243
  510WAT     H1 1772   1.755   3.306   1.342
  510WAT     H2 1773   1.844   3.246   1.218
  511WAT      O 1774   2.336   5.176   0.816
  511WAT     H1 1775   2.296   5.264   0.843
  511WAT     H2 1776   2.394   5.190   0.735
  512WAT      O 1777   3.869   4.493   9.202
  512WAT     H1 1778   3.877   4.560   9.129
  512WAT     H2 1779   3.783   4.507   9.252
  513WAT      O 1780   6.777   0.453   3.205
  513WAT     H1 1781   6.732   0.536   3.173
  513WAT     H2 1782   6.784   0.455   3.305
  514WAT      O 1783   8.177   2.151   1.134
  514WAT     H1 1784   8.150   2.079   1.198
  514WAT     H2 1785   8.155   2.124   1.041
  515WAT      O 1786   0.338   3.604   5.184
  515WAT     H1 1787   0.364   3.604   5.088
  515WAT     H2 1788   0.279   3.683   5.203
  516WAT      O 1789   1.727   5.172   2.774
  516WAT     H1 1790   1.716   5.196   2.870
  516WAT     H2 1791   1.725   5.072   2.765
  517WAT      O 1792   8.141   8.319   9.488
  517WAT     H1 1793   8.122   8.373   9.406
  517WAT     H2 1794   8.206   8.247   9.466
  518WAT      O 1795   1.916   6.997   5.766
  518WAT     H1 1796   1.894   6.971   5.860
  518WAT     H2 1797   1.989   7.066   5.767
  519WAT      O 1798   3.317   5.189   9.047
  519WAT     H1 1799   3.272   5.141   9.123
  519WAT     H2 1800   3.312   5.288   9.062
  520WAT      O 1801   4.179   0.456   5.039
  520WAT     H1 1802   4.115   0.379   5.044
  520WAT     H2 1803   4.224   0.457   4.950
  521WAT      O 1804   7.167   7.959   9.520
  521WAT     H1 1805   7.161   8.030   9.591
  521WAT     H2 1806   7.262   7.929   9.511
  522WAT      O 1807   2.711   6.111   5.100
  522WAT     H1 1808   2.631   6.168   5.116
  522WAT     H2 1809   2.720   6.093   5.002
  523WAT      O 1810   4.180   0.983   0.440
  523WAT     H1 1811   4.183   0.978   0.540
  523WAT     H2 1812   4.102   1.037   0.411
  524WAT      O 1813   6.289   2.886   1.136
  524WAT     H1 1814   6.216   2.900   1.070
  524WAT     H2 1815   6.319   2.790   1.134
  525WAT      O 1816   2.032   4.987   4.545
  525WAT     H1 1817   2.051   5.017   4.639
  525WAT     H2 1818   1.957   4.922   4.546
  526WAT      O 1819   7.023   2.675   8.556
  526WAT     H1 1820   7.119   2.652   8.538
  526WAT     H2 1821   6.979   2.600   8.605
  527WAT      O 1822   3.541   2.267   5.992
  527WAT     H1 1823   3.538   2.361   6.027
  527WAT     H2 1824   3.470   2.213   6.037
  528WAT      O 1825   7.310   4.993   3.266
  528WAT     H1 1826   7.378   5.025   3.331
  528WAT     H2 1827   7.322   4.895   3.250
  529WAT      O 1828   6.214   1.663   7.199
  529WAT     H1 1829   6.238   1.733   7.132
  529WAT     H2 1830   6.198   1.706   7.288
  530WAT      O 1831   8.186   9.076   0.599
  530WAT     H1 1832   8.095   9.076   0.559
  530WAT     H2 1833   8.205   8.986   0.639
  531WAT      O 1834   8.343   8.561   9.635
  531WAT     H1 1835   8.408   8.542   9.561
  531WAT     H2 1836   8.356   8.655   9.667
  532WAT      O 1837   7.362   6.412   5.461
  532WAT     H1 1838   7.435   6.478   5.478
  532WAT     H2 1839   7.316   6.434   5.375
  533WAT      O 1840   1.962   1.970   8.071
  533WAT     H1 1841   1.954   2.042   8.140
  533WAT     H2 1842   1.962   1.881   8.116
  534WAT      O 1843   7.470   3.244   7.009
  534WAT     H1 1844   7.468   3.210   7.103
  534WAT     H2 1845   7.432   3.174   6.948
  535WAT      O 1846   1.312   5.298   7.738
  535WAT     H1 1847   1.399   5.340   7.762
  535WAT     H2 1848   1.323   5.198   7.736
  536WAT      O 1849   4.729   0.225   1.958
  536WAT     H1 1850   4.775   0.299   1.910
  536WAT     H2 1851   4.728   0.143   1.900
  537WAT      O 1852   3.429   0.987   7.859
  537WAT     H1 1853   3.344   0.996   7.808
  537WAT     H2 1854   3.479   1.074   7.856
  538WAT      O 1855   0.755   9.001   8.424
  538WAT     H1 1856   0.759   8.933   8.497
  538WAT     H2 1857   0.694   9.075   8.450
  539WAT      O 1858   5.661   6.114   9.184
  539WAT     H1 1859   5.637   6.211   9.186
  539WAT     H2 1860   5.600   6.066   9.122
  540WAT      O 1861   7.851   7.922   7.132
  540WAT     H1 1862   7.813   7.867   7.206
  540WAT     H2 1863   7.950   7.907   7.127
  541WAT      O 1864   1.999   0.267   4.457
  541WAT     H1 1865   2.085   0.229   4.425
  541WAT     H2 1866   1.932   0.194   4.469
  542WAT      O 1867   0.837   4.465   3.628
  542WAT     H1 1868   0.756   4.522   3.611
  542WAT     H2 1869   0.914   4.501   3.576
  543WAT      O 1870   8.043   5.433   5.987
  543WAT     H1 1871   8.141   5.445   5.972
  543WAT     H2 1872   8.018   5.338   5.969
  544WAT      O 1873   8.580   5.342   3.370
  544WAT     H1 1874   8.508   5.273   3.373
  544WAT     H2 1875   8.637   5.335   3.452
  545WAT      O 1876   6.244   9.433   3.215
  545WAT     H1 1877   6.167   9.370   3.212
  545WAT     H2 1878   6.309   9.405   3.286
  546WAT      O 1879   6.027   9.095   5.972
  546WAT     H1 1880   5.929   9.111   5.966
  546WAT     H2 1881   6.074   9.182   5.987
  547WAT      O 1882   2.188   2.622   2.030
  547WAT     H1 1883   2.161   2.611   2.126
  547WAT     H2 1884   2.162   2.541   1.978
  548WAT      O 1885   2.530   5.720   8.656
  548WAT     H1 1886   2.527   5.719   8.556
  548WAT     H2 1887   2.604   5.660   8.688
  549WAT      O 1888   0.255   3.600   9.850
  549WAT     H1 1889   0.267   3.621   9.947
  549WAT     H2 1890   0.289   3.508   9.832
  550WAT      O 1891   1.266   1.809   3.400
  550WAT     H1 1892   1.317   1.727   3.375
  550WAT     H2 1893   1.182   1.814   3.346
  551WAT      O 1894   8.044   7.500   4.637
  551WAT     H1 1895   8.080   7.422   4.587
  551WAT     H2 1896   8.059   7.486   4.735
  552WAT      O 1897   4.935   1.739   5.550
  552WAT     H1 1898   5.014   1.796   5.526
  552WAT     H2 1899   4.865   1.797   5.593
  553WAT      O 1900   4.205   2.450   6.580
  553WAT     H1 1901   4.232   2.543   6.558
  553WAT     H2 1902   4.286   2.393   6.590
  554WAT      O 1903   0.978   6.785   1.610
  554WAT     H1 1904   0.949   6.864   1.555
  554WAT     H2 1905   1.061   6.746   1.571
  555WAT      O 1906   8.039   2.990   3.043
  555WAT     H1 1907   8.076   2.992   3.136
  555WAT     H2 1908   8.100   2.937   2.984
  556WAT      O 1909   5.420   7.890   4.654
  556WAT     H1 1910   5.435   7.818   4.586
  556WAT     H2 1911   5.436   7.979   4.612
  557WAT      O 1912   4.599   6.646   8.931
  557WAT     H1 1913   4.651   6.730   8.922
  557WAT     H2 1914   4.661   6.567   8.930
  558WAT      O 1915   6.536   7.896   8.203
  558WAT     H1 1916   6.468   7.845   8.151
  558WAT     H2 1917   6.611   7.923   8.143
  559WAT      O 1918   4.215   4.721   6.236
  559WAT     H1 1919   4.145   4.760   6.176
  559WAT     H2 1920   4.304   4.762   6.214
  560WAT      O 1921   4.884   9.200   4.009
  560WAT     H1 1922   4.816   9.227   3.941
  560WAT     H2 1923   4.883   9.266   4.084
  561WAT      O 1924   2.706   2.520   4.245
  561WAT     H1 1925   2.701   2.498   4.147
  561WAT     H2 1926   2.628   2.478   4.292
  562WAT      O 1927   2.195   7.454   6.233
  562WAT     H1 1928   2.245   7.521   6.178
  562WAT     H2 1929   2.100   7.450   6.203
  563WAT      O 1930   7.012   6.067   0.190
  563WAT     H1 1931   6.927   6.095   0.234
  563WAT     H2 1932   7.085   6.060   0.258
  564WAT      O 1933   8.121   8.071   5.774
  564WAT     H1 1934   8.112   8.169   5.792
  564WAT     H2 1935   8.197   8.034   5.827
  565WAT      O 1936   3.243   2.409   7.465
  565WAT     H1 1937   3.191   2.415   7.380
  565WAT     H2 1938   3.260   2.313   7.487
  566WAT      O 1939   2.653   7.008   4.905
  566WAT     H1 1940   2.701   7.033   4.989
  566WAT     H2 1941   2.560   7.046   4.907
  567WAT      O 1942   0.841   1.447   0.990
  567WAT     H1 1943   0.818   1.541   1.013
  567WAT     H2 1944   0.903   1.446   0.911
  568WAT      O 1945   6.834   7.237   1.416
  568WAT     H1 1946   6.777   7.269   1.341
  568WAT     H2 1947   6.900   7.308   1.442
  569WAT      O 1948   4.388   9.271   5.698
  569WAT     H1 1949   4.436   9.244   5.781
  569WAT     H2 1950   4.341   9.191   5.660
  570WAT      O 1951   4.479   7.147   4.513
  570WAT     H1 1952   4.538   7.099   4.578
  570WAT     H2 1953   4.533   7.212   4.460
  571WAT      O 1954   5.212   3.977   0.399
  571WAT     H1 1955   5.203   3.900   0.336
  571WAT     H2 1956   5.284   4.038   0.367
  572WAT      O 1957   0.799   3.000   9.140
  572WAT     H1 1958   0.741   3.073   9.104
  572WAT     H2 1959   0.745   2.916   9.150
  573WAT      O 1960   6.550   0.614   0.224
  573WAT     H1 1961   6.541   0.557   0.142
  573WAT     H2 1962   6.592   0.701   0.199
  574WAT      O 1963   0.079   8.783   6.376
  574WAT     H1 1964   0.071   8.872   6.332
  574WAT     H2 1965   0.162   8.737   6.345
  575WAT      O 1966   2.107   1.818   1.177
  575WAT     H1 1967   2.045   1.893   1.152
  575WAT     H2 1968   2.160   1.791   1.097
  576WAT      O 1969   3.016   8.106   5.541
  576WAT     H1 1970   3.108   8.095   5.506
  576WAT     H2 1971   2.995   8.031   5.604
  577WAT      O 1972   8.699   8.714   9.763
  577WAT     H1 1973   8.753   8.642   9.808
  577WAT     H2 1974   8.759   8.770   9.706
  578WAT      O 1975   7.827   5.566   0.778
  578WAT     H1 1976   7.920   5.539   0.751
  578WAT     H2 1977   7.787   5.494   0.835
  579WAT      O 1978   4.779   8.619   9.605
  579WAT     H1 1979   4.721   8.617   9.524
  579WAT     H2 1980   4.863   8.568   9.588
  580WAT      O 1981   8.607   5.447   1.698
  580WAT     H1 1982   8.707   5.451   1.697
  580WAT     H2 1983   8.573   5.460   1.605
  581WAT      O 1984   9.675   9.024   5.712
  581WAT     H1 1985   9.660   9.112   5.667
  581WAT     H2 1986   9.663   8.950   5.646
  582WAT      O 1987   3.286   8.185   0.217
  582WAT     H1 1988   3.311   8.097   0.175
  582WAT     H2 1989   3.215   8.229   0.162
  583WAT      O 1990   3.868   3.475   8.157
  583WAT     H1 1991   3.778   3.436   8.171
  583WAT     H2 1992   3.910   3.497   8.245
  584WAT      O 1993   4.494   5.575   0.271
  584WAT     H1 1994   4.569   5.634   0.301
  584WAT     H2 1995   4.411   5.598   0.322
  585WAT      O 1996   5.805   2.955   0.339
  585WAT     H1 1997   5.777   3.038   0.291
  585WAT     H2 1998   5.772   2.875   0.290
  586WAT      O 1999   5.868   5.430   5.221
  586WAT     H1 2000   5.829   5.520   5.199
  586WAT     H2 2001   5.957   5.421   5.175
  587WAT      O 2002   3.607   6.366   6.908
  587WAT     H1 2003   3.706   6.378   6.916
  587WAT     H2 2004   3.585   6.268   6.915
  588WAT      O 2005   5.873   4.094   3.424
  588WAT     H1 2006   5.890   4.009   3.376
  588WAT     H2 2007   5.863   4.169   3.358
  589WAT      O 2008   7.526   4.988   7.467
  589WAT     H1 2009   7.523   5.067   7.406
  589WAT     H2 2010   7.443   4.934   7.456
  590WAT      O 2011   8.434   4.711   2.395
  590WAT     H1 2012   8.484   4.710   2.308
  590WAT     H2 2013   8.410   4.805   2.418
  591WAT      O 2014   2.920   7.465   6.217
  591WAT     H1 2015   2.998   7.409   6.188
  591WAT     H2 2016   2.874   7.421   6.293
  592WAT      O 2017   5.334   7.677   3.299
  592WAT     H1 2018   5.421   7.647   3.260
  592WAT     H2 2019   5.341   7.772   3.328
  593WAT      O 2020   8.394   9.451   6.780
  593WAT     H1 2021   8.333   9.520   6.820
  593WAT     H2 2022   8.479   9.494   6.751
  594WAT      O 2023   6.003   6.061   4.232
  594WAT     H1 2024   6.036   6.142   4.183
  594WAT     H2 2025   5.975   6.087   4.324
  595WAT      O 2026   9.103   8.026   7.576
  595WAT     H1 2027   9.080   7.929   7.571
  595WAT     H2 2028   9.038   8.078   7.520
  596WAT      O 2029   9.880   4.394   1.229
  596WAT     H1 2030   9.965   4.344   1.214
  596WAT     H2 2031   9.900   4.491   1.243
  597WAT      O 2032   4.196   3.749   5.841
  597WAT     H1 2033   4.162   3.823   5.899
  597WAT     H2 2034   4.204   3.781   5.747
  598WAT      O 2035   1.266   0.129   3.242
  598WAT     H1 2036   1.273   0.047   3.186
  598WAT     H2 2037   1.229   0.204   3.187
  599WAT      O 2038   3.270   2.231   5.695
  599WAT     H1 2039   3.274   2.138   5.731
  599WAT     H2 2040   3.192   2.240   5.633
  600WAT      O 2041   1.568   5.277   1.390
  600WAT     H1 2042   1.527   5.317   1.472
  600WAT     H2 2043   1.610   5.350   1.335
  601WAT      O 2044   0.715   1.437   6.106
  601WAT     H1 2045   0.808   1.455   6.074
  601WAT     H2 2046   0.654   1.509   6.076
  602WAT      O 2047   6.412   9.469   1.058
  602WAT     H1 2048   6.343   9.464   1.130
  602WAT     H2 2049   6.453   9.379   1.045
  603WAT      O 2050   7.740   1.093   6.479
  603WAT     H1 2051   7.785   1.029   6.417
  603WAT     H2 2052   7.641   1.075   6.479
  604WAT      O 2053   3.247   9.666   7.341
  604WAT     H1 2054   3.277   9.756   7.311
  604WAT     H2 2055   3.147   9.663   7.343
  605WAT      O 2056   4.622   6.235   5.980
  605WAT     H1 2057   4.719   6.239   6.005
  605WAT     H2 2058   4.573   6.310   6.024
  606WAT      O 2059   3.721   8.571   4.007
  606WAT     H1 2060   3.716   8.618   4.095
  606WAT     H2 2061   3.634   8.524   3.989
  607WAT      O 2062   5.739   2.918   2.170
  607WAT     H1 2063   5.801   2.994   2.186
  607WAT     H2 2064   5.676   2.942   2.095
  608WAT      O 2065   9.669   0.155   4.902
  608WAT     H1 2066   9.706   0.193   4.817
  608WAT     H2 2067   9.718   0.193   4.980
  609WAT      O 2068   4.150   6.605   3.932
  609WAT     H1 2069   4.229   6.559   3.973
  609WAT     H2 2070   4.072   6.543   3.934
  610WAT      O 2071   2.327   0.703   3.940
  610WAT     H1 2072   2.310   0.763   4.018
  610WAT     H2 2073   2.413   0.729   3.896
  611WAT      O 2074   1.360   3.958   3.335
  611WAT     H1 2075   1.419   3.882   3.358
  611WAT     H2 2076   1.393   4.002   3.251
  612WAT      O 2077   4.393   3.068   0.416
  612WAT     H1 2078   4.360   3.038   0.326
  612WAT     H2 2079   4.431   2.990   0.465
  613WAT      O 2080   0.433   4.866   8.599
  613WAT     H1 2081   0.441   4.960   8.630
  613WAT     H2 2082   0.517   4.816   8.620
  614WAT      O 2083   6.039   9.430   5.401
  614WAT     H1 2084   6.119   9.489   5.393
  614WAT     H2 2085   5.982   9.461   5.477
  615WAT      O 2086   6.879   7.609   3.438
  615WAT     H1 2087   6.937   7.553   3.497
  615WAT     H2 2088   6.904   7.593   3.342
  616WAT      O 2089   1.671   6.421   2.479
  616WAT     H1 2090   1.582   6.437   2.436
  616WAT     H2 2091   1.703   6.504   2.523
  617WAT      O 2092   1.161   6.241   1.695
  617WAT     H1 2093   1.125   6.271   1.783
  617WAT     H2 2094   1.198   6.148   1.705
  618WAT      O 2095   3.962   8.115   1.179
  618WAT     H1 2096   4.029   8.183   1.148
  618WAT     H2 2097   3.964   8.036   1.117
  619WAT      O 2098   5.402   1.721   5.797
  619WAT     H1 2099   5.333   1.752   5.862
  619WAT     H2 2100   5.365   1.648   5.741
  620WAT      O 2101   7.099   9.009   3.830
  620WAT     H1 2102   7.125   9.023   3.735
  620WAT     H2 2103   7.178   8.976   3.882
  621WAT      O 2104   5.268   2.011   8.208
  621WAT     H1 2105   5.206   1.933   8.219
  621WAT     H2 2106   5.215   2.095   8.201
  622WAT      O 2107   8.010   6.041   4.967
  622WAT     H1 2108   7.996   5.947   4.999
  622WAT     H2 2109   7.951   6.103   5.019
  623WAT      O 2110   8.569   0.784   9.312
  623WAT     H1 2111   8.579   0.686   9.330
  623WAT     H2 2112   8.474   0.811   9.328
  624WAT      O 2113   8.561   3.731   0.067
  624WAT     H1 2114   8.616   3.814   0.068
  624WAT     H2 2115   8.520   3.717   0.157
  625WAT      O 2116   5.851   5.609   2.829
  625WAT     H1 2117   5.873   5.698   2.869
  625WAT     H2 2118   5.774   5.620   2.765
  626WAT      O 2119   3.460   7.729   0.710
  626WAT     H1 2120   3.441   7.669   0.787
  626WAT     H2 2121   3.496   7.816   0.743
  627WAT      O 2122   9.265   3.056   3.970
  627WAT     H1 2123   9.279   2.986   4.040
  627WAT     H2 2124   9.191   3.029   3.909
  628WAT      O 2125   1.851   7.712   2.330
  628WAT     H1 2126   1.940   7.667   2.326
  628WAT     H2 2127   1.862   7.809   2.309
  629WAT      O 2128   2.925   7.278   4.222
  629WAT     H1 2129   3.021   7.274   4.251
  629WAT     H2 2130   2.921   7.306   4.126
  630WAT      O 2131   4.651   2.029   9.824
  630WAT     H1 2132   4.689   1.944   9.786
  630WAT     H2 2133   4.617   2.086   9.749
  631WAT      O 2134   0.979   2.025   6.620
  631WAT     H1 2135   0.893   2.025   6.569
  631WAT     H2 2136   1.047   2.079   6.572
  632WAT      O 2137   9.678   3.912   1.751
  632WAT     H1 2138   9.663   3.843   1.822
  632WAT     H2 2139   9.672   4.003   1.791
  633WAT      O 2140   7.383   5.391   1.750
  633WAT     H1 2141   7.442   5.429   1.678
  633WAT     H2 2142   7.434   5.385   1.836
  634WAT      O 2143   0.651   1.499   9.322
  634WAT     H1 2144   0.656   1.401   9.304
  634WAT     H2 2145   0.555   1.527   9.328
  635WAT      O 2146   0.630   1.981   5.393
  635WAT     H1 2147   0.601   2.069   5.430
  635WAT     H2 2148   0.730   1.979   5.384
  636WAT      O 2149   3.480   2.125   8.075
  636WAT     H1 2150   3.400   2.088   8.122
  636WAT     H2 2151   3.521   2.198   8.130
  637WAT      O 2152   1.722   2.103   8.540
  637WAT     H1 2153   1.689   2.108   8.634
  637WAT     H2 2154   1.819   2.128   8.537
  638WAT      O 2155   9.287   3.745   1.135
  638WAT     H1 2156   9.362   3.686   1.166
  638WAT     H2 2157   9.240   3.783   1.214
  639WAT      O 2158   7.844   0.013   3.701
  639WAT     H1 2159   7.833   0.002   3.800
  639WAT     H2 2160   7.761  -0.017   3.655
  640WAT      O 2161   2.043   2.371   2.264
  640WAT     H1 2162   2.077   2.459   2.297
  640WAT     H2 2163   2.119   2.315   2.231
  641WAT      O 2164   4.740   9.299   6.463
  641WAT     H1 2165   4.686   9.215   6.451
  641WAT     H2 2166   4.825   9.278   6.510
  642WAT      O 2167   1.027   8.927   2.795
  642WAT     H1 2168   1.081   8.868   2.734
  642WAT     H2 2169   1.028   9.021   2.760
  643WAT      O 2170   8.814   4.031   2.297
  643WAT     H1 2171   8.837   3.996   2.207
  643WAT     H2 2172   8.741   3.975   2.337
  644WAT      O 2173   3.186   7.079   3.851
  644WAT     H1 2174   3.241   7.066   3.933
  644WAT     H2 2175   3.199   7.001   3.789
  645WAT      O 2176   9.369   8.439   4.591
  645WAT     H1 2177   9.350   8.507   4.520
  645WAT     H2 2178   9.352   8.347   4.554
  646WAT      O 2179   2.119   9.252   4.829
  646WAT     H1 2180   2.047   9.183   4.828
  646WAT     H2 2181   2.205   9.212   4.796
  647WAT      O 2182   1.412   6.686   4.547
  647WAT     H1 2183   1.476   6.688   4.624
  647WAT     H2 2184   1.448   6.625   4.476
  648WAT      O 2185   1.355   8.147   8.644
  648WAT     H1 2186   1.453   8.139   8.662
  648WAT     H2 2187   1.304   8.138   8.730
  649WAT      O 2188   8.833   1.507   0.434
  649WAT     H1 2189   8.864   1.585   0.380
  649WAT     H2 2190   8.764   1.456   0.383
  650WAT      O 2191   5.890   5.357   6.513
  650WAT     H1 2192   5.860   5.426   6.578
  650WAT     H2 2193   5.810   5.314   6.470
  651WAT      O 2194   3.172   5.557   7.154
  651WAT     H1 2195   3.161   5.462   7.184
  651WAT     H2 2196   3.269   5.581   7.151
  652WAT      O 2197   6.988   8.373   6.150
  652WAT     H1 2198   6.945   8.300   6.202
  652WAT     H2 2199   7.036   8.334   6.071
  653WAT      O 2200   6.977   3.742   5.951
  653WAT     H1 2201   7.071   3.726   5.982
  653WAT     H2 2202   6.938   3.819   6.002
  654WAT      O 2203   6.034   2.363   8.591
  654WAT     H1 2204   5.985   2.449   8.609
  654WAT     H2 2205   6.054   2.355   8.494
  655WAT      O 2206   3.250   6.486   0.483
  655WAT     H1 2207   3.333   6.491   0.539
  655WAT     H2 2208   3.256   6.407   0.421
  656WAT      O 2209   9.884   4.043   4.071
  656WAT     H1 2210   9.921   4.082   3.988
  656WAT     H2 2211   9.784   4.037   4.064
  657WAT      O 2212   5.861   6.169   7.415
  657WAT     H1 2213   5.846   6.073   7.394
  657WAT     H2 2214   5.869   6.181   7.513
  658WAT      O 2215   7.751   7.361   7.278
  658WAT     H1 2216   7.803   7.310   7.346
  658WAT     H2 2217   7.739   7.306   7.196
  659WAT      O 2218   6.388   3.032   6.354
  659WAT     H1 2219   6.354   3.062   6.443
  659WAT     H2 2220   6.414   3.112   6.299
  660WAT      O 2221   1.396   7.338   1.497
  660WAT     H1 2222   1.424   7.382   1.582
  660WAT     H2 2223   1.463   7.268   1.471
  661WAT      O 2224   8.795   6.452   3.180
  661WAT     H1 2225   8.889   6.466   3.211
  661WAT     H2 2226   8.732   6.475   3.253
  662WAT      O 2227   9.679   0.125   3.257
  662WAT     H1 2228   9.615   0.197   3.229
  662WAT     H2 2229   9.701   0.067   3.178
  663WAT      O 2230   6.695   4.163   3.394
  663WAT     H1 2231   6.725   4.080   3.441
  663WAT     H2 2232   6.670   4.232   3.462
  664WAT      O 2233   6.732   5.981   7.284
  664WAT     H1 2234   6.767   6.045   7.352
  664WAT     H2 2235   6.773   5.891   7.298
  665WAT      O 2236   3.793   9.700   1.213
  665WAT     H1 2237   3.875   9.709   1.269
  665WAT     H2 2238   3.712   9.718   1.269
  666WAT      O 2239   9.580   4.936   6.444
  666WAT     H1 2240   9.512   4.882   6.394
  666WAT     H2 2241   9.533   4.997   6.507
  667WAT      O 2242   1.450   2.946   4.118
  667WAT     H1 2243   1.542   2.980   4.140
  667WAT     H2 2244   1.395   2.944   4.201
  668WAT      O 2245   2.615   4.392   7.763
  668WAT     H1 2246   2.625   4.299   7.727
  668WAT     H2 2247   2.704   4.424   7.796
  669WAT      O 2248   1.384   2.843   1.625
  669WAT     H1 2249   1.477   2.829   1.657
  669WAT     H2 2250   1.363   2.777   1.553
  670WAT      O 2251   0.801   1.784   4.465
  670WAT     H1 2252   0.766   1.837   4.389
  670WAT     H2 2253   0.748   1.805   4.548
  671WAT      O 2254   8.707   2.186   8.797
  671WAT     H1 2255   8.776   2.231   8.741
  671WAT     H2 2256   8.750   2.115   8.853
  672WAT      O 2257   9.250   2.459   5.878
  672WAT     H1 2258   9.324   2.402   5.913
  672WAT     H2 2259   9.268   2.555   5.902
  673WAT      O 2260   1.890   6.941   6.045
  673WAT     H1 2261   1.985   6.961   6.068
  673WAT     H2 2262   1.836   6.936   6.129
  674WAT      O 2263   9.457   5.665   5.041
  674WAT     H1 2264   9.527   5.622   5.099
  674WAT     H2 2265   9.366   5.634   5.070
  675WAT      O 2266   2.645   9.665   0.419
  675WAT     H1 2267   2.624   9.669   0.322
  675WAT     H2 2268   2.744   9.673   0.432
  676WAT      O 2269   1.741   8.280   4.188
  676WAT     H1 2270   1.795   8.267   4.105
  676WAT     H2 2271   1.762   8.370   4.227
  677WAT      O 2272   8.712   6.854   2.396
  677WAT     H1 2273   8.629   6.797   2.397
  677WAT     H2 2274   8.699   6.930   2.332
  678WAT      O 2275   5.883   4.438   9.699
  678WAT     H1 2276   5.819   4.473   9.766
  678WAT     H2 2277   5.866   4.481   9.610
  679WAT      O 2278   3.693   1.971   5.456
  679WAT     H1 2279   3.601   2.010   5.455
  679WAT     H2 2280   3.692   1.884   5.505
  680WAT      O 2281   3.744   8.750   7.982
  680WAT     H1 2282   3.706   8.759   7.890
  680WAT     H2 2283   3.693   8.680   8.032
  681WAT      O 2284   1.985   1.211   9.459
  681WAT     H1 2285   1.975   1.120   9.500
  681WAT     H2 2286   1.949   1.210   9.366
  682WAT      O 2287   2.828   9.074   1.964
  682WAT     H1 2288   2.908   9.069   2.022
  682WAT     H2 2289   2.758   9.131   2.008
  683WAT      O 2290   2.216   0.853   6.924
  683WAT     H1 2291   2.293   0.795   6.897
  683WAT     H2 2292   2.212   0.932   6.862
  684WAT      O 2293   3.623   6.308   6.023
  684WAT     H1 2294   3.666   6.309   5.933
  684WAT     H2 2295   3.640   6.396   6.069
  685WAT      O 2296   7.711   9.093   0.320
  685WAT     H1 2297   7.693   9.074   0.416
  685WAT     H2 2298   7.726   9.191   0.307
  686WAT      O 2299   4.887   8.015   5.025
  686WAT     H1 2300   4.828   7.986   4.951
  686WAT     H2 2301   4.857   7.973   5.111
  687WAT      O 2302   7.002   6.159   3.648
  687WAT     H1 2303   7.100   6.180   3.645
  687WAT     H2 2304   6.958   6.216   3.717
  688WAT      O 2305   9.211   6.149   0.895
  688WAT     H1 2306   9.225   6.204   0.813
  688WAT     H2 2307   9.259   6.062   0.886
  689WAT      O 2308   8.992   2.541   5.940
  689WAT     H1 2309   9.085   2.505   5.936
  689WAT     H2 2310   8.927   2.466   5.950
  690WAT      O 2311   1.015   8.154   9.382
  690WAT     H1 2312   1.060   8.102   9.309
  690WAT     H2 2313   0.951   8.095   9.431
  691WAT      O 2314   0.258   9.758   6.056
  691WAT     H1 2315   0.355   9.744   6.079
  691WAT     H2 2316   0.250   9.830   5.987
  692WAT      O 2317   6.522   9.689   5.739
  692WAT     H1 2318   6.528   9.774   5.686
  692WAT     H2 2319   6.482   9.617   5.682
  693WAT      O 2320   7.662   3.402   4.078
  693WAT     H1 2321   7.722   3.415   3.999
  693WAT     H2 2322   7.588   3.469   4.075
  694WAT      O 2323   1.981   6.031   8.425
  694WAT     H1 2324   2.040   6.034   8.505
  694WAT     H2 2325   1.912   5.960   8.437
  695WAT      O 2326   7.623   3.473   2.382
  695WAT     H1 2327   7.707   3.424   2.406
  695WAT     H2 2328   7.551   3.451   2.448
  696WAT      O 2329   3.755   0.749   1.740
  696WAT     H1 2330   3.827   0.736   1.671
  696WAT     H2 2331   3.734   0.846   1.747
  697WAT      O 2332   3.066   5.515   2.040
  697WAT     H1 2333   3.084   5.426   1.998
  697WAT     H2 2334   3.082   5.509   2.139
  698WAT      O 2335   9.571   6.825   1.734
  698WAT     H1 2336   9.663   6.793   1.753
  698WAT     H2 2337   9.558   6.834   1.635
  699WAT      O 2338   0.561   6.118   2.152
  699WAT     H1 2339   0.486   6.110   2.218
  699WAT     H2 2340   0.649   6.117   2.201
  700WAT      O 2341   9.385   5.351   5.543
  700WAT     H1 2342   9.377   5.423   5.475
  700WAT     H2 2343   9.294   5.323   5.574
  701WAT      O 2344   1.082   3.929   2.052
  701WAT     H1 2345   1.089   3.993   2.129
  701WAT     H2 2346   1.026   3.970   1.980
  702WAT      O 2347   7.581   8.186   0.652
  702WAT     H1 2348   7.602   8.187   0.750
  702WAT     H2 2349   7.662   8.158   0.601
  703WAT      O 2350   3.587   6.439   2.725
  703WAT     H1 2351   3.611   6.359   2.781
  703WAT     H2 2352   3.667   6.499   2.718
  704WAT      O 2353   5.309   7.821   4.098
  704WAT     H1 2354   5.373   7.791   4.027
  704WAT     H2 2355   5.232   7.868   4.055
  705WAT      O 2356   7.163   2.844   2.550
  705WAT     H1 2357   7.076   2.881   2.519
  705WAT     H2 2358   7.164   2.745   2.536
  706WAT      O 2359   0.108   0.190   7.567
  706WAT     H1 2360   0.178   0.123   7.545
  706WAT     H2 2361   0.057   0.214   7.485
  707WAT      O 2362   1.114   6.472   2.796
  707WAT     H1 2363   1.138   6.461   2.893
  707WAT     H2 2364   1.188   6.436   2.739
  708WAT      O 2365   1.302   6.494   5.737
  708WAT     H1 2366   1.233   6.423   5.751
  708WAT     H2 2367   1.296   6.529   5.644
  709WAT      O 2368   1.528   2.497   9.713
  709WAT     H1 2369   1.614   2.471   9.758
  709WAT     H2 2370   1.451   2.464   9.767
  710WAT      O 2371   2.929   6.542   7.697
  710WAT     H1 2372   2.983   6.590   7.766
  710WAT     H2 2373   2.939   6.588   7.609
  711WAT      O 2374   9.028   9.640   4.958
  711WAT     H1 2375   8.974   9.725   4.957
  711WAT     H2 2376   8.972   9.566   4.997
  712WAT      O 2377   7.304   8.776   7.470
  712WAT     H1 2378   7.321   8.791   7.373
  712WAT     H2 2379   7.360   8.838   7.525
  713WAT      O 2380   7.615   4.034   6.902
  713WAT     H1 2381   7.612   4.030   7.002
  713WAT     H2 2382   7.549   3.969   6.864
  714WAT      O 2383   9.602   8.384   6.093
  714WAT     H1 2384   9.656   8.466   6.074
  714WAT     H2 2385   9.619   8.354   6.187
  715WAT      O 2386   9.426   7.276   2.362
  715WAT     H1 2387   9.441   7.350   2.297
  715WAT     H2 2388   9.514   7.235   2.388
  716WAT      O 2389   1.181   0.500   9.523
  716WAT     H1 2390   1.171   0.457   9.613
  716WAT     H2 2391   1.212   0.431   9.457
  717WAT      O 2392   7.071   3.831   2.286
  717WAT     H1 2393   7.118   3.748   2.257
  717WAT     H2 2394   7.037   3.818   2.380
  718WAT      O 2395   3.182   4.451   3.434
  718WAT     H1 2396   3.106   4.418   3.490
  718WAT     H2 2397   3.200   4.385   3.361
  719WAT      O 2398   2.977   1.705   1.185
  719WAT     H1 2399   2.952   1.626   1.128
  719WAT     H2 2400   2.924   1.785   1.156
  720WAT      O 2401   1.980   3.944   4.315
  720WAT     H1 2402   2.016   3.916   4.404
  720WAT     H2 2403   2.055   3.980   4.259
  721WAT      O 2404   3.644   0.570   2.272
  721WAT     H1 2405   3.607   0.555   2.180
  721WAT     H2 2406   3.595   0.645   2.317
  722WAT      O 2407   2.797   0.833   6.652
  722WAT     H1 2408   2.707   0.876   6.656
  722WAT     H2 2409   2.796   0.759   6.584
  723WAT      O 2410   0.201   7.195   3.069
  723WAT     H1 2411   0.145   7.117   3.039
  723WAT     H2 2412   0.200   7.265   2.998
  724WAT      O 2413   3.764   8.491   3.216
  724WAT     H1 2414   3.850   8.533   3.188
  724WAT     H2 2415   3.729   8.537   3.298
  725WAT      O 2416   9.025   8.814   5.012
  725WAT     H1 2417   9.100   8.879   5.025
  725WAT     H2 2418   8.968   8.843   4.936
  726WAT      O 2419   8.611   2.347   4.530
  726WAT     H1 2420   8.662   2.348   4.443
  726WAT     H2 2421   8.593   2.441   4.558
  727WAT      O 2422   0.722   3.715   6.687
  727WAT     H1 2423   0.786   3.735   6.761
  727WAT     H2 2424   0.674   3.630   6.707
  728WAT      O 2425   1.522   0.040   7.080
  728WAT     H1 2426   1.469   0.062   7.162
  728WAT     H2 2427   1.493  -0.049   7.044
  729WAT      O 2428   2.506   8.725   8.910
  729WAT     H1 2429   2.463   8.783   8.978
  729WAT     H2 2430   2.517   8.776   8.824
  730WAT      O 2431   2.086   9.438   9.114
  730WAT     H1 2432   2.112   9.525   9.156
  730WAT     H2 2433   2.028   9.386   9.177
  731WAT      O 2434   6.419   0.737   9.073
  731WAT     H1 2435   6.455   0.830   9.072
  731WAT     H2 2436   6.343   0.730   9.008
  732WAT      O 2437   2.565   0.385   9.131
  732WAT     H1 2438   2.502   0.334   9.072
  732WAT     H2 2439   2.523   0.472   9.157
  733WAT      O 2440   8.638   7.689   0.373
  733WAT     H1 2441   8.624   7.660   0.468
  733WAT     H2 2442   8.665   7.785   0.371
  734WAT      O 2443   5.151   4.607   5.393
  734WAT     H1 2444   5.072   4.626   5.335
  734WAT     H2 2445   5.120   4.564   5.478
  735WAT      O 2446   2.706   2.119   5.564
  735WAT     H1 2447   2.707   2.022   5.543
  735WAT     H2 2448   2.731   2.171   5.482
  736WAT      O 2449   5.270   0.359   5.990
  736WAT     H1 2450   5.323   0.442   6.005
  736WAT     H2 2451   5.327   0.291   5.943
  737WAT      O 2452   3.800   8.256   1.815
  737WAT     H1 2453   3.740   8.204   1.876
  737WAT     H2 2454   3.864   8.310   1.870
  738WAT      O 2455   7.120   2.955   1.504
  738WAT     H1 2456   7.207   2.922   1.539
  738WAT     H2 2457   7.046   2.923   1.563
  739WAT      O 2458   7.869   3.959   8.452
  739WAT     H1 2459   7.963   3.991   8.447
  739WAT     H2 2460   7.848   3.905   8.370
  740WAT      O 2461   4.954   2.681   9.812
  740WAT     H1 2462   5.017   2.641   9.747
  740WAT     H2 2463   4.942   2.620   9.890
  741WAT      O 2464   4.970   3.131   2.191
  741WAT     H1 2465   5.015   3.092   2.111
  741WAT     H2 2466   5.030   3.199   2.233
  742WAT      O 2467   4.164   3.462   6.381
  742WAT     H1 2468   4.214   3.496   6.301
  742WAT     H2 2469   4.121   3.539   6.428
  743WAT      O 2470   7.014   8.650   5.033
  743WAT     H1 2471   7.027   8.742   4.995
  743WAT     H2 2472   7.009   8.656   5.133
  744WAT      O 2473   3.491   4.061   7.446
  744WAT     H1 2474   3.397   4.084   7.422
  744WAT     H2 2475   3.523   3.988   7.386
  745WAT      O 2476   0.539   7.847   6.234
  745WAT     H1 2477   0.508   7.776   6.171
  745WAT     H2 2478   0.470   7.920   6.239
  746WAT      O 2479   9.563   6.540   4.883
  746WAT     H1 2480   9.580   6.536   4.981
  746WAT     H2 2481   9.559   6.635   4.854
  747WAT      O 2482   0.407   6.732   9.625
  747WAT     H1 2483   0.429   6.651   9.680
  747WAT     H2 2484   0.344   6.791   9.676
  748WAT      O 2485   8.516   9.152   8.301
  748WAT     H1 2486   8.444   9.221   8.313
  748WAT     H2 2487   8.513   9.087   8.377
  749WAT      O 2488   0.625   6.276   1.373
  749WAT     H1 2489   0.712   6.299   1.328
  749WAT     H2 2490   0.592   6.188   1.337
  750WAT      O 2491   9.670   9.653   9.603
  750WAT     H1 2492   9.700   9.657   9.508
  750WAT     H2 2493   9.608   9.730   9.621
  751WAT      O 2494   8.585   3.878   3.944
  751WAT     H1 2495   8.548   3.820   4.016
  751WAT     H2 2496   8.643   3.949   3.985
  752WAT      O 2497   6.857   3.576   8.719
  752WAT     H1 2498   6.875   3.544   8.626
  752WAT     H2 2499   6.773   3.535   8.753
  753WAT      O 2500   6.169   1.560   8.621
  753WAT     H1 2501   6.116   1.615   8.556
  753WAT     H2 2502   6.238   1.507   8.570
  754WAT      O 2503   4.830   8.997   3.035
  754WAT     H1 2504   4.840   8.929   2.962
  754WAT     H2 2505   4.919   9.014   3.077
  755WAT      O 2506   8.595   0.522   9.372
  755WAT     H1 2507   8.687   0.497   9.340
  755WAT     H2 2508   8.539   0.439   9.378
  756WAT      O 2509   6.010   6.857   9.207
  756WAT     H1 2510   6.103   6.893   9.212
  756WAT     H2 2511   5.960   6.884   9.290
  757WAT      O 2512   9.280   2.491   4.625
  757WAT     H1 2513   9.270   2.509   4.723
  757WAT     H2 2514   9.228   2.559   4.573
  758WAT      O 2515   5.750   5.011   2.323
  758WAT     H1 2516   5.725   4.918   2.296
  758WAT     H2 2517   5.668   5.060   2.351
  759WAT      O 2518   5.245   7.860   2.705
  759WAT     H1 2519   5.239   7.916   2.622
  759WAT     H2 2520   5.340   7.831   2.718
  760WAT      O 2521   3.553   3.524   5.984
  760WAT     H1 2522   3.541   3.623   5.987
  760WAT     H2 2523   3.650   3.502   5.997
  761WAT      O 2524   5.856   5.556   0.948
  761WAT     H1 2525   5.831   5.634   1.006
  761WAT     H2 2526   5.853   5.472   1.001
  762WAT      O 2527   6.864   8.936   9.290
  762WAT     H1 2528   6.927   8.942   9.367
  762WAT     H2 2529   6.780   8.984   9.312
  763WAT      O 2530   8.163   7.145   9.200
  763WAT     H1 2531   8.149   7.108   9.108
  763WAT     H2 2532   8.240   7.209   9.198
  764WAT      O 2533   8.567   0.571   3.094
  764WAT     H1 2534   8.633   0.588   3.167
  764WAT     H2 2535   8.600   0.614   3.010
  765WAT      O 2536   6.733   9.134   7.562
  765WAT     H1 2537   6.772   9.181   7.483
  765WAT     H2 2538   6.639   9.107   7.541
  766WAT      O 2539   0.854   6.285   7.607
  766WAT     H1 2540   0.764   6.329   7.620
  766WAT     H2 2541   0.842   6.187   7.593
  767WAT      O 2542   2.085   9.192   0.028
  767WAT     H1 2543   2.108   9.234   0.116
  767WAT     H2 2544   2.132   9.105   0.019
  768WAT      O 2545   3.620   2.019   8.319
  768WAT     H1 2546   3.584   2.024   8.226
  768WAT     H2 2547   3.700   1.958   8.321
  769WAT      O 2548   7.866   3.389   2.011
  769WAT     H1 2549   7.874   3.434   1.923
  769WAT     H2 2550   7.944   3.414   2.069
  770WAT      O 2551   6.552   0.159   4.246
  770WAT     H1 2552   6.510   0.071   4.225
  770WAT     H2 2553   6.566   0.168   4.344
  771WAT      O 2554   6.877   4.253   7.310
  771WAT     H1 2555   6.823   4.282   7.389
  771WAT     H2 2556   6.894   4.332   7.250
  772WAT      O 2557   0.377   0.757   2.725
  772WAT     H1 2558   0.289   0.753   2.773
  772WAT     H2 2559   0.423   0.668   2.732
  773WAT      O 2560   0.934   2.340   2.139
  773WAT     H1 2561   0.954   2.412   2.073
  773WAT     H2 2562   0.960   2.370   2.231
  774WAT      O 2563   1.158   5.301   2.107
  774WAT     H1 2564   1.250   5.312   2.146
  774WAT     H2 2565   1.148   5.360   2.027
  775WAT      O 2566   2.051   6.863   3.251
  775WAT     H1 2567   1.982   6.919   3.204
  775WAT     H2 2568   2.129   6.920   3.277
  776WAT      O 2569   4.870   9.240   1.685
  776WAT     H1 2570   4.780   9.257   1.726
  776WAT     H2 2571   4.924   9.324   1.690
  777WAT      O 2572   4.653   3.535   0.730
  777WAT     H1 2573   4.646   3.627   0.767
  777WAT     H2 2574   4.691   3.539   0.637
  778WAT      O 2575   6.387   0.078   9.783
  778WAT     H1 2576   6.384   0.028   9.696
  778WAT     H2 2577   6.482   0.100   9.805
  779WAT      O 2578   7.453   8.192   7.051
  779WAT     H1 2579   7.357   8.209   7.029
  779WAT     H2 2580   7.486   8.264   7.113
  780WAT      O 2581   1.501   2.686   2.015
  780WAT     H1 2582   1.543   2.661   1.928
  780WAT     H2 2583   1.464   2.778   2.009
  781WAT      O 2584   3.369   3.771   5.762
  781WAT     H1 2585   3.389   3.807   5.853
  781WAT     H2 2586   3.380   3.671   5.763
  782WAT      O 2587   8.577   1.056   3.310
  782WAT     H1 2588   8.499   0.994   3.300
  782WAT     H2 2589   8.660   1.010   3.278
  783WAT      O 2590   3.491   6.223   2.894
  783WAT     H1 2591   3.412   6.177   2.934
  783WAT     H2 2592   3.570   6.212   2.954
  784WAT      O 2593   0.211   8.438   8.758
  784WAT     H1 2594   0.247   8.345   8.759
  784WAT     H2 2595   0.284   8.503   8.778
  785WAT      O 2596   4.980   9.017   9.667
  785WAT     H1 2597   4.966   9.115   9.654
  785WAT     H2 2598   5.065   9.001   9.717
  786WAT      O 2599   5.475   1.810   3.702
  786WAT     H1 2600   5.512   1.818   3.795
  786WAT     H2 2601   5.514   1.730   3.657
  787WAT      O 2602   6.547   7.558   3.492
  787WAT     H1 2603   6.628   7.603   3.453
  787WAT     H2 2604   6.558   7.459   3.485
  788WAT      O 2605   4.885   7.175   6.143
  788WAT     H1 2606   4.800   7.195   6.193
  788WAT     H2 2607   4.925   7.091   6.178
  789WAT      O 2608   0.145   3.004   5.795
  789WAT     H1 2609   0.235   2.985   5.755
  789WAT     H2 2610   0.112   3.092   5.760
  790WAT      O 2611   2.437   2.252   0.824
  790WAT     H1 2612   2.383   2.243   0.908
  790WAT     H2 2613   2.495   2.172   0.812
  791WAT      O 2614   8.023   0.953   7.567
  791WAT     H1 2615   8.060   1.023   7.628
  791WAT     H2 2616   8.013   0.867   7.617
  792WAT      O 2617   9.227   5.427   1.211
  792WAT     H1 2618   9.247   5.385   1.300
  792WAT     H2 2619   9.225   5.356   1.140
  793WAT      O 2620   0.725   9.841   1.395
  793WAT     H1 2621   0.705   9.913   1.328
  793WAT     H2 2622   0.815   9.802   1.376
  794WAT      O 2623   3.957   8.847   6.013
  794WAT     H1 2624   4.031   8.913   6.027
  794WAT     H2 2625   3.903   8.874   5.933
  795WAT      O 2626   3.591   8.550   5.886
  795WAT     H1 2627   3.673   8.543   5.829
  795WAT     H2 2628   3.615   8.530   5.981
  796WAT      O 2629   5.221   5.046   1.335
  796WAT     H1 2630   5.148   5.015   1.395
  796WAT     H2 2631   5.224   5.146   1.334
  797WAT      O 2632   5.356   8.665   2.631
  797WAT     H1 2633   5.330   8.637   2.723
  797WAT     H2 2634   5.277   8.704   2.584
  798WAT      O 2635   4.751   2.005   6.385
  798WAT     H1 2636   4.695   1.923   6.370
  798WAT     H2 2637   4.738   2.069   6.309
  799WAT      O 2638   1.183   7.112   0.816
  799WAT     H1 2639   1.222   7.203   0.805
  799WAT     H2 2640   1.125   7.090   0.738
  800WAT      O 2641   4.113   4.347   5.767
  800WAT     H1 2642   4.129   4.365   5.670
  800WAT     H2 2643   4.115   4.248   5.783
  801WAT      O 2644   0.547   3.349   0.261
  801WAT     H1 2645   0.564   3.317   0.354
  801WAT     H2 2646   0.490   3.282   0.213
  802WAT      O 2647   0.867   7.201   5.564
  802WAT     H1 2648   0.897   7.237   5.475
  802WAT     H2 2649   0.930   7.130   5.594
  803WAT      O 2650   9.521   0.455   0.472
  803WAT     H1 2651   9.572   0.401   0.405
  803WAT     H2 2652   9.527   0.552   0.449
  804WAT      O 2653   2.451   9.087   0.744
  804WAT     H1 2654   2.488   9.163   0.798
  804WAT     H2 2655   2.522   9.053   0.682
  805WAT      O 2656   3.161   4.930   6.082
  805WAT     H1 2657   3.243   4.928   6.025
  805WAT     H2 2658   3.084   4.962   6.027
  806WAT      O 2659   7.358   6.944   5.745
  806WAT     H1 2660   7.291   6.874   5.770
  806WAT     H2 2661   7.398   6.923   5.656
  807WAT      O 2662   2.172   7.864   4.282
  807WAT     H1 2663   2.160   7.890   4.185
  807WAT     H2 2664   2.216   7.939   4.331
  808WAT      O 2665   3.678   2.801   4.658
  808WAT     H1 2666   3.638   2.710   4.644
  808WAT     H2 2667   3.714   2.835   4.571
  809WAT      O 2668   9.735   3.261   3.496
  809WAT     H1 2669   9.735   3.348   3.546
  809WAT     H2 2670   9.655   3.207   3.521
  810WAT      O 2671   3.443   3.684   4.354
  810WAT     H1 2672   3.350   3.682   4.389
  810WAT     H2 2673   3.442   3.673   4.254
  811WAT      O 2674   3.979   8.602   7.965
  811WAT     H1 2675   4.049   8.612   7.894
  811WAT     H2 2676   3.920   8.682   7.965
  812WAT      O 2677   1.179   0.259   3.042
  812WAT     H1 2678   1.146   0.353   3.029
  812WAT     H2 2679   1.249   0.239   2.973
  813WAT      O 2680   0.180   3.088   0.647
  813WAT     H1 2681   0.137   3.028   0.714
  813WAT     H2 2682   0.116   3.108   0.573
  814WAT      O 2683   6.253   3.893   7.587
  814WAT     H1 2684   6.337   3.930   7.627
  814WAT     H2 2685   6.231   3.805   7.630
  815WAT      O 2686   5.225   7.537   6.575
  815WAT     H1 2687   5.135   7.580   6.567
  815WAT     H2 2688   5.216   7.451   6.625
  816WAT      O 2689   3.095   8.665   4.138
  816WAT     H1 2690   3.124   8.694   4.047
  816WAT     H2 2691   3.170   8.617   4.183
  817WAT      O 2692   0.080   1.483   0.749
  817WAT     H1 2693   0.002   1.540   0.723
  817WAT     H2 2694   0.116   1.513   0.837
  818WAT      O 2695   6.554   5.079   6.005
  818WAT     H1 2696   6.649   5.062   6.030
  818WAT     H2 2697   6.535   5.034   5.918
  819WAT      O 2698   5.236   9.502   4.165
  819WAT     H1 2699   5.159   9.563   4.184
  819WAT     H2 2700   5.313   9.555   4.130
  820WAT      O 2701   1.929   1.904   6.607
  820WAT     H1 2702   1.931   1.821   6.662
  820WAT     H2 2703   1.858   1.965   6.641
  821WAT      O 2704   6.737   0.430   1.823
  821WAT     H1 2705   6.699   0.505   1.768
  821WAT     H2 2706   6.681   0.417   1.905
  822WAT      O 2707   9.061   5.108   8.870
  822WAT     H1 2708   9.116   5.191   8.879
  822WAT     H2 2709   9.081   5.064   8.783
  823WAT      O 2710   9.652   9.144   6.053
  823WAT     H1 2711   9.735   9.175   6.007
  823WAT     H2 2712   9.667   9.145   6.152
  824WAT      O 2713   2.817   6.338   8.546
  824WAT     H1 2714   2.789   6.242   8.552
  824WAT     H2 2715   2.903   6.351   8.595
  825WAT      O 2716   0.608   6.042   2.779
  825WAT     H1 2717   0.594   6.140   2.789
  825WAT     H2 2718   0.665   6.008   2.853
  826WAT      O 2719   3.874   4.325   8.845
  826WAT     H1 2720   3.906   4.419   8.833
  826WAT     H2 2721   3.871   4.304   8.943
  827WAT      O 2722   9.447   2.730   4.969
  827WAT     H1 2723   9.378   2.749   5.039
  827WAT     H2 2724   9.537   2.721   5.012
  828WAT      O 2725   3.496   2.453   1.115
  828WAT     H1 2726   3.545   2.420   1.035
  828WAT     H2 2727   3.516   2.394   1.193
  829WAT      O 2728   6.132   0.691   2.954
  829WAT     H1 2729   6.135   0.591   2.961
  829WAT     H2 2730   6.224   0.728   2.968
  830WAT      O 2731   6.138   4.171   3.377
  830WAT     H1 2732   6.049   4.145   3.415
  830WAT     H2 2733   6.139   4.153   3.279
  831WAT      O 2734   4.413   4.645   8.589
  831WAT     H1 2735   4.433   4.547   8.588
  831WAT     H2 2736   4.344   4.665   8.658
  832WAT      O 2737   9.114   4.278   7.048
  832WAT     H1 2738   9.189   4.302   7.110
  832WAT     H2 2739   9.033   4.256   7.102
  833WAT      O 2740   5.728   8.196   6.503
  833WAT     H1 2741   5.689   8.162   6.418
  833WAT     H2 2742   5.681   8.154   6.581
  834WAT      O 2743   3.296   8.326   3.139
  834WAT     H1 2744   3.343   8.315   3.227
  834WAT     H2 2745   3.287   8.423   3.118
  835WAT      O 2746   6.199   5.956   5.361
  835WAT     H1 2747   6.173   5.988   5.452
  835WAT     H2 2748   6.233   5.862   5.367
  836WAT      O 2749   9.131   7.445   8.978
  836WAT     H1 2750   9.131   7.476   8.883
  836WAT     H2 2751   9.038   7.419   9.004
  837WAT      O 2752   5.345   1.648   1.939
  837WAT     H1 2753   5.438   1.667   1.970
  837WAT     H2 2754   5.313   1.723   1.881
  838WAT      O 2755   4.775   1.688   7.704
  838WAT     H1 2756   4.725   1.628   7.767
  838WAT     H2 2757   4.741   1.781   7.713
  839WAT      O 2758   9.222   3.633   2.978
  839WAT     H1 2759   9.236   3.719   3.027
  839WAT     H2 2760   9.254   3.641   2.884
  840WAT      O 2761   1.347   7.324   0.217
  840WAT     H1 2762   1.365   7.297   0.311
  840WAT     H2 2763   1.255   7.294   0.190
  841WAT      O 2764   2.676   9.008   9.539
  841WAT     H1 2765   2.643   8.960   9.459
  841WAT     H2 2766   2.749   9.071   9.513
  842WAT      O 2767   0.714   2.572   1.921
  842WAT     H1 2768   0.675   2.625   1.996
  842WAT     H2 2769   0.645   2.508   1.886
  843WAT      O 2770   9.861   9.819   5.275
  843WAT     H1 2771   9.764   9.842   5.286
  843WAT     H2 2772   9.897   9.782   5.360
  844WAT      O 2773   5.671   4.205   0.045
  844WAT     H1 2774   5.747   4.147   0.074
  844WAT     H2 2775   5.612   4.224   0.123
  845WAT      O 2776   4.222   9.660   7.352
  845WAT     H1 2777   4.160   9.724   7.306
  845WAT     H2 2778   4.223   9.573   7.301
  846WAT      O 2779   8.155   4.243   5.293
  846WAT     H1 2780   8.138   4.328   5.242
  846WAT     H2 2781   8.113   4.166   5.246
  847WAT      O 2782   7.407   1.530   4.168
  847WAT     H1 2783   7.326   1.499   4.119
  847WAT     H2 2784   7.393   1.515   4.266
  848WAT      O 2785   6.652   9.547   3.012
  848WAT     H1 2786   6.711   9.586   2.941
  848WAT     H2 2787   6.557   9.549   2.981
  849WAT      O 2788   5.230   4.507   0.103
  849WAT     H1 2789   5.144   4.540   0.066
  849WAT     H2 2790   5.212   4.447   0.181
  850WAT      O 2791   2.666   2.874   2.523
  850WAT     H1 2792   2.567   2.862   2.525
  850WAT     H2 2793   2.689   2.968   2.548
  851WAT      O 2794   5.821   7.364   1.835
  851WAT     H1 2795   5.876   7.397   1.911
  851WAT     H2 2796   5.836   7.266   1.823
  852WAT      O 2797   9.699   4.963   1.308
  852WAT     H1 2798   9.768   5.034   1.318
  852WAT     H2 2799   9.736   4.888   1.252
  853WAT      O 2800   0.451   8.503   6.391
  853WAT     H1 2801   0.409   8.511   6.482
  853WAT     H2 2802   0.550   8.517   6.398
  854WAT      O 2803   9.356   2.845   0.340
  854WAT     H1 2804   9.372   2.755   0.300
  854WAT     H2 2805   9.260   2.853   0.366
  855WAT      O 2806   9.283   0.385   4.399
  855WAT     H1 2807   9.311   0.464   4.345
  855WAT     H2 2808   9.347   0.309   4.384
  856WAT      O 2809   6.904   3.782   6.740
  856WAT     H1 2810   6.857   3.738   6.817
  856WAT     H2 2811   6.947   3.867   6.772
  857WAT      O 2812   9.778   6.765   3.025
  857WAT     H1 2813   9.739   6.807   3.107
  857WAT     H2 2814   9.822   6.678   3.049
  858WAT      O 2815   0.120   7.507   5.265
  858WAT     H1 2816   0.075   7.428   5.306
  858WAT     H2 2817   0.183   7.549   5.331
  859WAT      O 2818   7.573   2.332   4.835
  859WAT     H1 2819   7.490   2.380   4.867
  859WAT     H2 2820   7.613   2.281   4.911
  860WAT      O 2821   7.279   3.997   7.781
  860WAT     H1 2822   7.205   4.018   7.845
  860WAT     H2 2823   7.243   3.942   7.705
  861WAT      O 2824   6.772   6.325   8.140
  861WAT     H1 2825   6.759   6.386   8.062
  861WAT     H2 2826   6.719   6.241   8.126
  862WAT      O 2827   3.114   1.283   9.035
  862WAT     H1 2828   3.199   1.259   9.082
  862WAT     H2 2829   3.081   1.204   8.983
  863WAT      O 2830   4.168   8.384   1.325
  863WAT     H1 2831   4.252   8.410   1.373
  863WAT     H2 2832   4.190   8.356   1.231
  864WAT      O 2833   8.782   2.955   6.265
  864WAT     H1 2834   8.851   2.988   6.201
  864WAT     H2 2835   8.818   2.961   6.358
  865WAT      O 2836   8.373   4.877   0.348
  865WAT     H1 2837   8.423   4.817   0.285
  865WAT     H2 2838   8.277   4.850   0.350
  866WAT      O 2839   2.134   2.754   6.738
  866WAT     H1 2840   2.198   2.774   6.664
  866WAT     H2 2841   2.072   2.681   6.710
  867WAT      O 2842   6.313   7.747   6.313
  867WAT     H1 2843   6.307   7.650   6.334
  867WAT     H2 2844   6.398   7.765   6.263
  868WAT      O 2845   8.243   8.391   8.138
  868WAT     H1 2846   8.305   8.445   8.195
  868WAT     H2 2847   8.178   8.451   8.092
  869WAT      O 2848   1.206   7.293   6.913
  869WAT     H1 2849   1.219   7.314   7.010
  869WAT     H2 2850   1.162   7.370   6.868
  870WAT      O 2851   2.007   8.593   2.769
  870WAT     H1 2852   2.106   8.584   2.759
  870WAT     H2 2853   1.968   8.631   2.685
  871WAT      O 2854   9.767   9.463   5.921
  871WAT     H1 2855   9.797   9.531   5.988
  871WAT     H2 2856   9.813   9.376   5.941
  872WAT      O 2857   0.740   3.797   6.199
  872WAT     H1 2858   0.791   3.760   6.121
  872WAT     H2 2859   0.760   3.743   6.281
  873WAT      O 2860   4.009   4.810   2.345
  873WAT     H1 2861   4.097   4.827   2.390
  873WAT     H2 2862   3.962   4.735   2.391
  874WAT      O 2863   0.197   5.521   4.764
  874WAT     H1 2864   0.133   5.453   4.800
  874WAT     H2 2865   0.267   5.540   4.833
  875WAT      O 2866   8.153   2.209   2.772
  875WAT     H1 2867   8.218   2.135   2.754
  875WAT     H2 2868   8.067   2.190   2.725
  876WAT      O 2869   1.627   7.226   8.838
  876WAT     H1 2870   1.648   7.320   8.811
  876WAT     H2 2871   1.661   7.209   8.930
  877WAT      O 2872   2.851   4.350   5.203
  877WAT     H1 2873   2.753   4.351   5.225
  877WAT     H2 2874   2.894   4.433   5.241
  878WAT      O 2875   8.387   0.412   6.256
  878WAT     H1 2876   8.296   0.442   6.286
  878WAT     H2 2877   8.397   0.314   6.273
  879WAT      O 2878   5.065   0.420   0.250
  879WAT     H1 2879   5.160   0.392   0.260
  879WAT     H2 2880   5.006   0.340   0.250
  880WAT      O 2881   9.362   6.537   4.628
  880WAT     H1 2882   9.271   6.519   4.665
  880WAT     H2 2883   9.396   6.623   4.665
  881WAT      O 2884   9.356   5.036   1.772
  881WAT     H1 2885   9.375   4.978   1.851
  881WAT     H2 2886   9.316   4.980   1.699
  882WAT      O 2887   6.832   2.175   8.477
  882WAT     H1 2888   6.810   2.197   8.572
  882WAT     H2 2889   6.790   2.089   8.451
  883WAT      O 2890   3.475   3.787   2.482
  883WAT     H1 2891   3.378   3.808   2.492
  883WAT     H2 2892   3.492   3.751   2.390
  884WAT      O 2893   6.433   7.213   3.960
  884WAT     H1 2894   6.493   7.221   4.040
  884WAT     H2 2895   6.488   7.218   3.877
  885WAT      O 2896   0.852   9.615   7.740
  885WAT     H1 2897   0.821   9.663   7.658
  885WAT     H2 2898   0.866   9.519   7.719
  886WAT      O 2899   5.474   1.238   8.911
  886WAT     H1 2900   5.390   1.261   8.960
  886WAT     H2 2901   5.552   1.247   8.972
  887WAT      O 2902   5.967   6.321   0.988
  887WAT     H1 2903   6.066   6.306   0.982
  887WAT     H2 2904   5.945   6.410   0.946
  888WAT      O 2905   2.474   7.336   8.129
  888WAT     H1 2906   2.510   7.259   8.077
  888WAT     H2 2907   2.449   7.410   8.066
  889WAT      O 2908   9.072   8.996   2.651
  889WAT     H1 2909   9.098   9.012   2.746
  889WAT     H2 2910   9.002   8.924   2.647
  890WAT      O 2911   5.209   6.384   3.125
  890WAT     H1 2912   5.190   6.395   3.027
  890WAT     H2 2913   5.173   6.296   3.156
  891WAT      O 2914   2.219   8.306   3.127
  891WAT     H1 2915   2.230   8.280   3.031
  891WAT     H2 2916   2.276   8.387   3.146
  892WAT      O 2917   1.027   7.076   6.523
  892WAT     H1 2918   1.076   7.141   6.465
  892WAT     H2 2919   1.034   6.984   6.483
  893WAT      O 2920   2.925   9.316   0.285
  893WAT     H1 2921   3.024   9.305   0.296
  893WAT     H2 2922   2.905   9.411   0.260
  894WAT      O 2923   6.846   6.581   4.562
  894WAT     H1 2924   6.870   6.567   4.658
  894WAT     H2 2925   6.851   6.678   4.540
  895WAT      O 2926   5.432   5.016   0.045
  895WAT     H1 2927   5.410   5.092  -0.017
  895WAT     H2 2928   5.420   4.929  -0.004
  896WAT      O 2929   1.179   4.300   6.298
  896WAT     H1 2930   1.213   4.363   6.228
  896WAT     H2 2931   1.225   4.320   6.385
  897WAT      O 2932   9.615   3.559   5.852
  897WAT     H1 2933   9.710   3.588   5.868
  897WAT     H2 2934   9.577   3.523   5.937
  898WAT      O 2935   6.264   7.888   3.090
  898WAT     H1 2936   6.327   7.829   3.140
  898WAT     H2 2937   6.171   7.853   3.100
  899WAT      O 2938   3.465   6.960   6.633
  899WAT     H1 2939   3.522   7.032   6.673
  899WAT     H2 2940   3.433   6.899   6.705
  900WAT      O 2941   6.792   9.696   7.133
  900WAT     H1 2942   6.812   9.620   7.196
  900WAT     H2 2943   6.724   9.756   7.175
  901WAT      O 2944   2.692   4.022   2.159
  901WAT     H1 2945   2.774   4.056   2.205
  901WAT     H2 2946   2.701   3.924   2.143
  902WAT      O 2947   7.978   8.815   8.075
  902WAT     H1 2948   8.065   8.770   8.055
  902WAT     H2 2949   7.918   8.750   8.121
  903WAT      O 2950   6.464   5.028   3.580
  903WAT     H1 2951   6.430   5.115   3.616
  903WAT     H2 2952   6.410   5.003   3.500
  904WAT      O 2953   6.349   3.493   8.114
  904WAT     H1 2954   6.433   3.532   8.152
  904WAT     H2 2955   6.312   3.426   8.178
  905WAT      O 2956   6.550   2.624   2.332
  905WAT     H1 2957   6.622   2.693   2.320
  905WAT     H2 2958   6.491   2.651   2.408
  906WAT      O 2959   7.045   9.714   4.982
  906WAT     H1 2960   7.085   9.700   5.072
  906WAT     H2 2961   6.951   9.679   4.981
  907WAT      O 2962   0.513   8.652   0.954
  907WAT     H1 2963   0.455   8.717   1.002
  907WAT     H2 2964   0.575   8.609   1.019
  908WAT      O 2965   2.706   1.574   1.976
  908WAT     H1 2966   2.671   1.483   1.996
  908WAT     H2 2967   2.804   1.570   1.961
  909WAT      O 2968   4.155   0.774   6.704
  909WAT     H1 2969   4.227   0.719   6.662
  909WAT     H2 2970   4.130   0.734   6.792
  910WAT      O 2971   0.482   8.476   4.713
  910WAT     H1 2972   0.534   8.456   4.630
  910WAT     H2 2973   0.409   8.408   4.723
  911WAT      O 2974   2.918   9.624   7.052
  911WAT     H1 2975   2.824   9.632   7.020
  911WAT     H2 2976   2.920   9.573   7.138
  912WAT      O 2977   1.372   7.062   8.075
  912WAT     H1 2978   1.376   7.009   7.991
  912WAT     H2 2979   1.404   7.155   8.056
  913WAT      O 2980   1.650   7.468   9.460
  913WAT     H1 2981   1.610   7.559   9.447
  913WAT     H2 2982   1.746   7.476   9.483
  914WAT      O 2983   8.008   2.882   7.701
  914WAT     H1 2984   8.080   2.910   7.765
  914WAT     H2 2985   8.035   2.796   7.657
  915WAT      O 2986   7.973   2.286   3.664
  915WAT     H1 2987   7.941   2.371   3.624
  915WAT     H2 2988   8.027   2.235   3.597
  916WAT      O 2989   4.585   1.727   4.523
  916WAT     H1 2990   4.521   1.659   4.489
  916WAT     H2 2991   4.575   1.812   4.470
  917WAT      O 2992   6.530   8.307   6.610
  917WAT     H1 2993   6.469   8.238   6.571
  917WAT     H2 2994   6.481   8.394   6.618
  918WAT      O 2995   0.259   8.253   5.926
  918WAT     H1 2996   0.312   8.336   5.908
  918WAT     H2 2997   0.187   8.273   5.992
  919WAT      O 2998   5.506   7.677   7.406
  919WAT     H1 2999   5.505   7.777   7.408
  919WAT     H2 3000   5.593   7.645   7.368
  920WAT      O 3001   8.751   7.284   9.206
  920WAT     H1 3002   8.823   7.277   9.138
  920WAT     H2 3003   8.668   7.239   9.171
  921WAT      O 3004   4.514   3.348   6.187
  921WAT     H1 3005   4.545   3.436   6.149
  921WAT     H2 3006   4.414   3.345   6.186
  922WAT      O 3007   5.804   3.265   5.013
  922WAT     H1 3008   5.878   3.315   5.057
  922WAT     H2 3009   5.739   3.233   5.082
  923WAT      O 3010   9.491   4.537   4.480
  923WAT     H1 3011   9.504   4.571   4.386
  923WAT     H2 3012   9.395   4.515   4.494
  924WAT      O 3013   4.323   3.303   7.138
  924WAT     H1 3014   4.301   3.252   7.222
  924WAT     H2 3015   4.407   3.266   7.098
  925WAT      O 3016   5.805   3.998   6.281
  925WAT     H1 3017   5.718   3.965   6.318
  925WAT     H2 3018   5.790   4.037   6.190
  926WAT      O 3019   7.057   5.090   5.617
  926WAT     H1 3020   7.143   5.050   5.586
  926WAT     H2 3021   7.025   5.041   5.698
  927WAT      O 3022   4.116   4.742   6.492
  927WAT     H1 3023   4.073   4.654   6.514
  927WAT     H2 3024   4.148   4.740   6.397
  928WAT      O 3025   7.074   1.208   5.639
  928WAT     H1 3026   7.127   1.291   5.620
  928WAT     H2 3027   7.136   1.133   5.662
  929WAT      O 3028   0.664   6.988   8.805
  929WAT     H1 3029   0.730   7.012   8.734
  929WAT     H2 3030   0.577   6.964   8.762
  930WAT      O 3031   5.812   9.746   0.181
  930WAT     H1 3032   5.793   9.658   0.138
  930WAT     H2 3033   5.834   9.813   0.109
  931WAT      O 3034   6.251   1.994   4.941
  931WAT     H1 3035   6.326   1.927   4.944
  931WAT     H2 3036   6.173   1.954   4.894
  932WAT      O 3037   9.170   4.708   6.053
  932WAT     H1 3038   9.120   4.650   5.988
  932WAT     H2 3039   9.221   4.650   6.116
  933WAT      O 3040   6.429   0.594   9.516
  933WAT     H1 3041   6.416   0.561   9.423
  933WAT     H2 3042   6.518   0.641   9.523
  934WAT      O 3043   0.244   3.651   3.536
  934WAT     H1 3044   0.169   3.663   3.600
  934WAT     H2 3045   0.280   3.558   3.542
  935WAT      O 3046   9.683   6.399   3.531
  935WAT     H1 3047   9.782   6.389   3.524
  935WAT     H2 3048   9.643   6.394   3.439
  936WAT      O 3049   4.724   6.611   2.635
  936WAT     H1 3050   4.654   6.647   2.696
  936WAT     H2 3051   4.681   6.575   2.553
  937WAT      O 3052   5.165   9.629   6.245
  937WAT     H1 3053   5.116   9.642   6.332
  937WAT     H2 3054   5.259   9.660   6.256
  938WAT      O 3055   7.663   5.297   0.920
  938WAT     H1 3056   7.617   5.219   0.962
  938WAT     H2 3057   7.732   5.333   0.983
  939WAT      O 3058   1.939   7.328   6.427
  939WAT     H1 3059   1.972   7.263   6.496
  939WAT     H2 3060   2.016   7.373   6.384
  940WAT      O 3061   5.437   8.436   1.961
  940WAT     H1 3062   5.508   8.415   1.894
  940WAT     H2 3063   5.469   8.412   2.053
  941WAT      O 3064   5.481   2.309   9.461
  941WAT     H1 3065   5.428   2.314   9.546
  941WAT     H2 3066   5.478   2.397   9.415
  942WAT      O 3067   2.167   5.792   9.692
  942WAT     H1 3068   2.107   5.760   9.765
  942WAT     H2 3069   2.241   5.726   9.679
  943WAT      O 3070   5.064   5.814   7.267
  943WAT     H1 3071   5.070   5.714   7.277
  943WAT     H2 3072   5.039   5.836   7.172
  944WAT      O 3073   6.048   9.628   1.244
  944WAT     H1 3074   6.104   9.707   1.270
  944WAT     H2 3075   5.988   9.654   1.167
  945WAT      O 3076   9.130   5.738   8.575
  945WAT     H1 3077   9.202   5.803   8.549
  945WAT     H2 3078   9.050   5.753   8.518
  946WAT      O 3079   2.135   8.884   2.141
  946WAT     H1 3080   2.153   8.963   2.199
  946WAT     H2 3081   2.094   8.914   2.055
  947WAT      O 3082   8.826   7.247   4.809
  947WAT     H1 3083   8.806   7.340   4.779
  947WAT     H2 3084   8.802   7.238   4.906
  948WAT      O 3085   3.196   3.899   3.023
  948WAT     H1 3086   3.294   3.880   3.034
  948WAT     H2 3087   3.145   3.858   3.098
  949WAT      O 3088   9.261   1.927   5.701
  949WAT     H1 3089   9.196   1.861   5.739
  949WAT     H2 3090   9.268   1.915   5.603
  950WAT      O 3091   5.609   0.616   5.221
  950WAT     H1 3092   5.602   0.649   5.126
  950WAT     H2 3093   5.553   0.534   5.231
  951WAT      O 3094   2.869   0.566   5.529
  951WAT     H1 3095   2.839   0.490   5.586
  951WAT     H2 3096   2.789   0.617   5.498
  952WAT      O 3097   5.174   1.899   6.626
  952WAT     H1 3098   5.161   1.996   6.604
  952WAT     H2 3099   5.197   1.890   6.722
  953WAT      O 3100   2.542   7.810   2.919
  953WAT     H1 3101   2.492   7.775   2.840
  953WAT     H2 3102   2.633   7.768   2.921
  954WAT      O 3103   2.881   4.926   5.704
  954WAT     H1 3104   2.789   4.888   5.701
  954WAT     H2 3105   2.934   4.890   5.627
  955WAT      O 3106   0.326   4.710   6.373
  955WAT     H1 3107   0.391   4.761   6.428
  955WAT     H2 3108   0.300   4.626   6.421
  956WAT      O 3109   7.415   6.846   8.183
  956WAT     H1 3110   7.336   6.854   8.243
  956WAT     H2 3111   7.421   6.752   8.148
  957WAT      O 3112   0.689   2.825   3.976
  957WAT     H1 3113   0.771   2.775   4.003
  957WAT     H2 3114   0.706   2.923   3.983
  958WAT      O 3115   3.154   7.702   8.280
  958WAT     H1 3116   3.160   7.776   8.346
  958WAT     H2 3117   3.188   7.618   8.320
  959WAT      O 3118   3.389   5.466   2.011
  959WAT     H1 3119   3.463   5.432   1.954
  959WAT     H2 3120   3.301   5.438   1.972
  960WAT      O 3121   9.526   3.168   3.623
  960WAT     H1 3122   9.490   3.224   3.697
  960WAT     H2 3123   9.523   3.072   3.649
  961WAT      O 3124   9.023   9.737   2.503
  961WAT     H1 3125   8.980   9.789   2.576
  961WAT     H2 3126   9.001   9.640   2.514
  962WAT      O 3127   5.477   4.693   2.836
  962WAT     H1 3128   5.540   4.626   2.798
  962WAT     H2 3129   5.489   4.699   2.935
  963WAT      O 3130   4.997   7.364   0.212
  963WAT     H1 3131   4.936   7.293   0.179
  963WAT     H2 3132   4.960   7.454   0.189
  964WAT      O 3133   9.878   0.173   7.248
  964WAT     H1 3134   9.895   0.269   7.270
  964WAT     H2 3135   9.780   0.156   7.246
  965WAT      O 3136   1.293   9.120   2.679
  965WAT     H1 3137   1.198   9.148   2.660
  965WAT     H2 3138   1.320   9.047   2.616
  966WAT      O 3139   6.005   8.410   4.833
  966WAT     H1 3140   6.085   8.373   4.786
  966WAT     H2 3141   5.928   8.416   4.770
  967WAT      O 3142   0.208   1.144   8.322
  967WAT     H1 3143   0.188   1.066   8.263
  967WAT     H2 3144   0.279   1.119   8.388
  968WAT      O 3145   3.915   7.041   7.957
  968WAT     H1 3146   3.966   7.051   8.043
  968WAT     H2 3147   3.817   7.036   7.977
  969WAT      O 3148   1.549   1.671   8.066
  969WAT     H1 3149   1.477   1.609   8.098
  969WAT     H2 3150   1.594   1.632   7.986
  970WAT      O 3151   5.703   0.850   3.714
  970WAT     H1 3152   5.627   0.789   3.737
  970WAT     H2 3153   5.784   0.796   3.691
  971WAT      O 3154   8.592   6.158   0.057
  971WAT     H1 3155   8.586   6.244   0.006
  971WAT     H2 3156   8.651   6.094   0.007
  972WAT      O 3157   8.746   3.010   6.830
  972WAT     H1 3158   8.829   2.955   6.834
  972WAT     H2 3159   8.668   2.952   6.807
  973WAT      O 3160   0.884   9.317   1.395
  973WAT     H1 3161   0.940   9.400   1.395
  973WAT     H2 3162   0.943   9.236   1.392
  974WAT      O 3163   6.449   3.582   2.902
  974WAT     H1 3164   6.508   3.596   2.823
  974WAT     H2 3165   6.500   3.602   2.986
  975WAT      O 3166   9.861   8.932   2.351
  975WAT     H1 3167   9.764   8.912   2.338
  975WAT     H2 3168   9.887   9.012   2.296
  976WAT      O 3169   5.577   8.572   5.922
  976WAT     H1 3170   5.614   8.515   5.996
  976WAT     H2 3171   5.545   8.659   5.961
  977WAT      O 3172   6.490   7.347   2.829
  977WAT     H1 3173   6.419   7.417   2.833
  977WAT     H2 3174   6.477   7.293   2.746
  978WAT      O 3175   8.322   9.180   6.725
  978WAT     H1 3176   8.355   9.138   6.641
  978WAT     H2 3177   8.376   9.261   6.747
  979WAT      O 3178   8.318   2.770   0.117
  979WAT     H1 3179   8.295   2.675   0.137
  979WAT     H2 3180   8.413   2.787   0.141
  980WAT      O 3181   5.091   6.559   4.478
  980WAT     H1 3182   5.097   6.520   4.386
  980WAT     H2 3183   5.178   6.544   4.526
  981WAT      O 3184   6.225   7.574   9.439
  981WAT     H1 3185   6.306   7.613   9.395
  981WAT     H2 3186   6.253   7.516   9.515
  982WAT      O 3187   6.997   1.675   4.159
  982WAT     H1 3188   7.032   1.720   4.241
  982WAT     H2 3189   6.938   1.738   4.109
  983WAT      O 3190   3.889   8.887   1.951
  983WAT     H1 3191   3.907   8.831   1.870
  983WAT     H2 3192   3.862   8.979   1.923
  984WAT      O 3193   4.277   0.763   3.676
  984WAT     H1 3194   4.348   0.703   3.712
  984WAT     H2 3195   4.319   0.847   3.641
  985WAT      O 3196   8.628   2.822   5.952
  985WAT     H1 3197   8.534   2.845   5.976
  985WAT     H2 3198   8.675   2.789   6.034
  986WAT      O 3199   0.612   1.425   0.713
  986WAT     H1 3200   0.636   1.362   0.787
  986WAT     H2 3201   0.661   1.511   0.726
  987WAT      O 3202   1.957   6.045   2.238
  987WAT     H1 3203   1.943   6.112   2.165
  987WAT     H2 3204   2.037   5.989   2.217
  988WAT      O 3205   4.574   2.017   5.611
  988WAT     H1 3206   4.542   2.083   5.678
  988WAT     H2 3207   4.519   1.933   5.616
  989WAT      O 3208   8.999   1.687   3.125
  989WAT     H1 3209   8.999   1.774   3.175
  989WAT     H2 3210   9.009   1.705   3.027
  990WAT      O 3211   9.595   4.220   3.275
  990WAT     H1 3212   9.628   4.311   3.300
  990WAT     H2 3213   9.524   4.191   3.339
  991WAT      O 3214   4.978   7.527   7.908
  991WAT     H1 3215   4.951   7.610   7.957
  991WAT     H2 3216   4.937   7.527   7.817
  992WAT      O 3217   7.597   8.305   0.260
  992WAT     H1 3218   7.660   8.260   0.322
  992WAT     H2 3219   7.643   8.380   0.213
  993WAT      O 3220   0.806   4.517   8.594
  993WAT     H1 3221   0.815   4.567   8.680
  993WAT     H2 3222   0.714   4.528   8.558
  994WAT      O 3223   3.884   1.017   8.065
  994WAT     H1 3224   3.845   0.925   8.066
  994WAT     H2 3225   3.933   1.034   8.151
  995WAT      O 3226   3.746   3.001   6.487
  995WAT     H1 3227   3.783   3.086   6.451
  995WAT     H2 3228   3.648   2.995   6.465
  996WAT      O 3229   5.682   3.351   6.150
  996WAT     H1 3230   5.746   3.416   6.191
  996WAT     H2 3231   5.615   3.322   6.219
  997WAT      O 3232   7.476   5.497   9.178
  997WAT     H1 3233   7.542   5.503   9.104
  997WAT     H2 3234   7.500   5.562   9.250
  998WAT      O 3235   5.804   1.041   6.142
  998WAT     H1 3236   5.739   1.093   6.086
  998WAT     H2 3237   5.769   0.948   6.155
  999WAT      O 3238   2.173   5.234   9.328
  999WAT     H1 3239   2.231   5.314   9.311
  999WAT     H2 3240   2.127   5.208   9.243
 1000WAT      O 3241   4.534   7.109   6.107
 1000WAT     H1 3242   4.550   7.135   6.202
 1000WAT     H2 3243   4.495   7.187   6.057
 1001WAT      O 3244   3.626   3.171   4.007
 1001WAT     H1 3245   3.534   3.136   4.027
 1001WAT     H2 3246   3.629   3.203   3.912
 1002WAT      O 3247   1.915   9.681   0.128
 1002WAT     H1 3248   1.887   9.776   0.116
 1002WAT     H2 3249   1.977   9.655   0.054
 1003WAT      O 3250   2.750   8.782   1.131
 1003WAT     H1 3251   2.656   8.806   1.157
 1003WAT     H2 3252   2.799   8.750   1.212
 1004WAT      O 3253   9.065   9.013   2.013
 1004WAT     H1 3254   8.986   8.953   1.998
 1004WAT     H2 3255   9.149   8.957   2.012
 1005WAT      O 3256   8.356   1.671   6.507
 1005WAT     H1 3257   8.294   1.612   6.456
 1005WAT     H2 3258   8.399   1.619   6.581
 1006WAT      O 3259   8.874   1.400   8.180
 1006WAT     H1 3260   8.787   1.365   8.215
 1006WAT     H2 3261   8.943   1.394   8.252
 1007WAT      O 3262   1.246   3.522   0.928
 1007WAT     H1 3263   1.286   3.528   0.837
 1007WAT     H2 3264   1.230   3.425   0.951
 1008WAT      O 3265   4.072   7.229   4.783
 1008WAT     H1 3266   4.150   7.170   4.760
 1008WAT     H2 3267   4.081   7.262   4.877
 1009WAT      O 3268   5.979   8.598   0.708
 1009WAT     H1 3269   6.058   8.538   0.694
 1009WAT     H2 3270   6.003   8.690   0.678
 1010WAT      O 3271   9.222   9.419   2.526
 1010WAT     H1 3272   9.295   9.483   2.551
 1010WAT     H2 3273   9.134   9.464   2.538
 1011WAT      O 3274   0.854   0.763   6.391
 1011WAT     H1 3275   0.765   0.759   6.437
 1011WAT     H2 3276   0.915   0.694   6.432
 1012WAT      O 3277   0.718   1.110   0.053
 1012WAT     H1 3278   0.725   1.206   0.082
 1012WAT     H2 3279   0.808   1.069   0.054
 1013WAT      O 3280   1.602   2.754   5.044
 1013WAT     H1 3281   1.550   2.813   5.106
 1013WAT     H2 3282   1.551   2.742   4.959
 1014WAT      O 3283   8.386   2.222   7.425
 1014WAT     H1 3284   8.461   2.205   7.360
 1014WAT     H2 3285   8.338   2.136   7.444
 1015WAT      O 3286   7.210   0.778   0.792
 1015WAT     H1 3287   7.135   0.841   0.774
 1015WAT     H2 3288   7.284   0.826   0.838
 1016WAT      O 3289   4.007   1.920   0.692
 1016WAT     H1 3290   3.911   1.948   0.698
 1016WAT     H2 3291   4.051   1.968   0.617
 1017WAT      O 3292   7.359   3.219   9.181
 1017WAT     H1 3293   7.395   3.143   9.126
 1017WAT     H2 3294   7.435   3.277   9.210
 1018WAT      O 3295   2.639   2.747   0.601
 1018WAT     H1 3296   2.585   2.744   0.517
 1018WAT     H2 3297   2.615   2.670   0.659
 1019WAT      O 3298   4.254   7.066   6.855
 1019WAT     H1 3299   4.313   7.109   6.922
 1019WAT     H2 3300   4.159   7.067   6.888
 1020WAT      O 3301   7.641   7.827   4.556
 1020WAT     H1 3302   7.706   7.869   4.493
 1020WAT     H2 3303   7.568   7.782   4.505
 1021WAT      O 3304   5.447   6.305   6.008
 1021WAT     H1 3305   5.538   6.279   5.977
 1021WAT     H2 3306   5.403   6.361   5.937
 1022WAT      O 3307   7.016   2.737   3.321
 1022WAT     H1 3308   6.938   2.690   3.281
 1022WAT     H2 3309   7.099   2.712   3.271
 1023WAT      O 3310   9.386   8.476   2.983
 1023WAT     H1 3311   9.387   8.418   2.902
 1023WAT     H2 3312   9.358   8.568   2.957
 1024WAT      O 3313   0.384   2.187   0.157
 1024WAT     H1 3314   0.475   2.158   0.186
 1024WAT     H2 3315   0.366   2.280   0.189
 1025WAT      O 3316   3.409   0.702   0.171
 1025WAT     H1 3317   3.504   0.679   0.188
 1025WAT     H2 3318   3.402   0.750   0.083
 1026WAT      O 3319   0.533   1.459   0.455
 1026WAT     H1 3320   0.582   1.446   0.541
 1026WAT     H2 3321   0.439   1.490   0.474
 1027WAT      O 3322   6.818   1.120   2.526
 1027WAT     H1 3323   6.746   1.057   2.497
 1027WAT     H2 3324   6.870   1.078   2.601
 1028WAT      O 3325   2.218   6.436   8.946
 1028WAT     H1 3326   2.291   6.496   8.914
 1028WAT     H2 3327   2.190   6.374   8.873
 1029WAT      O 3328   1.443   0.206   2.401
 1029WAT     H1 3329   1.476   0.287   2.450
 1029WAT     H2 3330   1.517   0.167   2.346
 1030WAT      O 3331   3.951   2.774   7.760
 1030WAT     H1 3332   4.048   2.756   7.779
 1030WAT     H2 3333   3.926   2.862   7.800
 1031WAT      O 3334   5.195   2.427   2.305
 1031WAT     H1 3335   5.185   2.401   2.209
 1031WAT     H2 3336   5.273   2.489   2.315
 1032WAT      O 3337   3.033   2.597   3.030
 1032WAT     H1 3338   3.071   2.534   3.098
 1032WAT     H2 3339   2.974   2.663   3.076
 1033WAT      O 3340   6.890   7.699   9.336
 1033WAT     H1 3341   6.927   7.791   9.348
 1033WAT     H2 3342   6.944   7.649   9.269
 1034WAT      O 3343   8.067   0.454   3.595
 1034WAT     H1 3344   8.095   0.463   3.500
 1034WAT     H2 3345   8.040   0.359   3.613
 1035WAT      O 3346   6.674   5.314   3.856
 1035WAT     H1 3347   6.617   5.357   3.925
 1035WAT     H2 3348   6.759   5.283   3.897
 1036WAT      O 3349   8.228   8.749   7.999
 1036WAT     H1 3350   8.272   8.824   7.951
 1036WAT     H2 3351   8.234   8.666   7.944
 1037WAT      O 3352   1.705   0.950   1.995
 1037WAT     H1 3353   1.753   0.871   1.958
 1037WAT     H2 3354   1.619   0.921   2.037
 1038WAT      O 3355   5.756   9.532   0.030
 1038WAT     H1 3356   5.663   9.497   0.026
 1038WAT     H2 3357   5.790   9.545  -0.063
 1039WAT      O 3358   7.738   2.693   2.339
 1039WAT     H1 3359   7.826   2.678   2.384
 1039WAT     H2 3360   7.738   2.782   2.295
 1040WAT      O 3361   4.005   2.396   2.455
 1040WAT     H1 3362   4.006   2.493   2.432
 1040WAT     H2 3363   3.923   2.375   2.508
 1041WAT      O 3364   8.510   3.953   5.374
 1041WAT     H1 3365   8.542   3.904   5.293
 1041WAT     H2 3366   8.433   3.905   5.414
 1042WAT      O 3367   8.964   7.715   1.818
 1042WAT     H1 3368   8.987   7.746   1.725
 1042WAT     H2 3369   8.911   7.631   1.813
 1043WAT      O 3370   9.007   2.594   8.583
 1043WAT     H1 3371   8.993   2.688   8.551
 1043WAT     H2 3372   8.933   2.536   8.551
 1044WAT      O 3373   7.276   0.270   4.388
 1044WAT     H1 3374   7.320   0.273   4.298
 1044WAT     H2 3375   7.250   0.363   4.416
 1045WAT      O 3376   8.878   3.589   7.802
 1045WAT     H1 3377   8.977   3.578   7.811
 1045WAT     H2 3378   8.837   3.501   7.777
 1046WAT      O 3379   6.010   2.405   3.697
 1046WAT     H1 3380   6.079   2.333   3.702
 1046WAT     H2 3381   6.018   2.453   3.609
 1047WAT      O 3382   2.570   5.007   1.222
 1047WAT     H1 3383   2.526   5.016   1.312
 1047WAT     H2 3384   2.562   4.913   1.190
 1048WAT      O 3385   6.835   1.546   3.877
 1048WAT     H1 3386   6.849   1.613   3.950
 1048WAT     H2 3387   6.830   1.593   3.789
 1049WAT      O 3388   6.927   5.037   2.287
 1049WAT     H1 3389   6.983   5.091   2.350
 1049WAT     H2 3390   6.870   4.973   2.340
 1050WAT      O 3391   0.737   6.251   3.354
 1050WAT     H1 3392   0.686   6.273   3.271
 1050WAT     H2 3393   0.741   6.151   3.366
 1051WAT      O 3394   1.372   9.301   0.946
 1051WAT     H1 3395   1.303   9.362   0.907
 1051WAT     H2 3396   1.415   9.248   0.872
 1052WAT      O 3397   0.025   7.818   3.685
 1052WAT     H1 3398  -0.034   7.884   3.733
 1052WAT     H2 3399  -0.030   7.769   3.617
 1053WAT      O 3400   9.658   7.327   6.418
 1053WAT     H1 3401   9.589   7.255   6.426
 1053WAT     H2 3402   9.702   7.320   6.328
 1054WAT      O 3403   6.335   1.909   8.562
 1054WAT     H1 3404   6.259   1.973   8.550
 1054WAT     H2 3405   6.350   1.859   8.476
 1055WAT      O 3406   5.575   5.424   9.890
 1055WAT     H1 3407   5.608   5.484   9.817
 1055WAT     H2 3408   5.652   5.391   9.944
 1056WAT      O 3409   6.347   7.974   3.404
 1056WAT     H1 3410   6.430   7.921   3.385
 1056WAT     H2 3411   6.356   8.065   3.363
 1057WAT      O 3412   5.996   8.816   9.709
 1057WAT     H1 3413   6.040   8.881   9.772
 1057WAT     H2 3414   5.938   8.754   9.762
 1058WAT      O 3415   9.053   6.838   3.882
 1058WAT     H1 3416   9.093   6.747   3.897
 1058WAT     H2 3417   8.954   6.828   3.866
 1059WAT      O 3418   2.143   3.243   4.286
 1059WAT     H1 3419   2.176   3.315   4.224
 1059WAT     H2 3420   2.176   3.262   4.379
 1060WAT      O 3421   5.325   9.845   9.280
 1060WAT     H1 3422   5.376   9.824   9.363
 1060WAT     H2 3423   5.279   9.763   9.247
 1061WAT      O 3424   6.243   9.307   1.532
 1061WAT     H1 3425   6.218   9.383   1.472
 1061WAT     H2 3426   6.162   9.253   1.554
 1062WAT      O 3427   6.813   6.609   3.456
 1062WAT     H1 3428   6.727   6.643   3.418
 1062WAT     H2 3429   6.829   6.515   3.424
 1063WAT      O 3430   2.241   4.734   8.177
 1063WAT     H1 3431   2.252   4.636   8.193
 1063WAT     H2 3432   2.153   4.764   8.215
 1064WAT      O 3433   1.841   3.903   6.392
 1064WAT     H1 3434   1.748   3.897   6.426
 1064WAT     H2 3435   1.858   3.827   6.329
 1065WAT      O 3436   9.630   4.154   0.059
 1065WAT     H1 3437   9.597   4.062   0.078
 1065WAT     H2 3438   9.682   4.154  -0.027
 1066WAT      O 3439   2.753   8.273   2.892
 1066WAT     H1 3440   2.781   8.237   2.981
 1066WAT     H2 3441   2.758   8.373   2.893
 1067WAT      O 3442   8.315   0.241   0.327
 1067WAT     H1 3443   8.295   0.177   0.253
 1067WAT     H2 3444   8.240   0.307   0.335
 1068WAT      O 3445   3.299   9.453   1.708
 1068WAT     H1 3446   3.232   9.510   1.757
 1068WAT     H2 3447   3.320   9.495   1.620
 1069WAT      O 3448   4.801   0.309   4.549
 1069WAT     H1 3449   4.779   0.214   4.529
 1069WAT     H2 3450   4.849   0.314   4.637
 1070WAT      O 3451   2.004   3.341   4.716
 1070WAT     H1 3452   1.945   3.262   4.706
 1070WAT     H2 3453   1.981   3.410   4.647
 1071WAT      O 3454   9.136   2.529   9.176
 1071WAT     H1 3455   9.109   2.613   9.223
 1071WAT     H2 3456   9.231   2.535   9.146
 1072WAT      O 3457   2.135   1.268   2.708
 1072WAT     H1 3458   2.215   1.215   2.735
 1072WAT     H2 3459   2.084   1.295   2.790
 1073WAT      O 3460   8.982   4.550   0.734
 1073WAT     H1 3461   8.915   4.544   0.659
 1073WAT     H2 3462   9.073   4.564   0.695
 1074WAT      O 3463   3.428   1.115   7.361
 1074WAT     H1 3464   3.338   1.113   7.316
 1074WAT     H2 3465   3.499   1.134   7.293
 1075WAT      O 3466   2.448   0.310   5.768
 1075WAT     H1 3467   2.440   0.387   5.832
 1075WAT     H2 3468   2.413   0.337   5.679
 1076WAT      O 3469   6.266   2.920   2.391
 1076WAT     H1 3470   6.317   2.850   2.339
 1076WAT     H2 3471   6.168   2.898   2.388
 1077WAT      O 3472   1.998   0.919   8.425
 1077WAT     H1 3473   2.033   1.012   8.413
 1077WAT     H2 3474   1.899   0.918   8.413
 1078WAT      O 3475   1.461   2.820   8.929
 1078WAT     H1 3476   1.420   2.728   8.928
 1078WAT     H2 3477   1.405   2.882   8.874
 1079WAT      O 3478   7.422   0.223   6.403
 1079WAT     H1 3479   7.347   0.193   6.344
 1079WAT     H2 3480   7.385   0.253   6.491
 1080WAT      O 3481   6.798   2.454   7.296
 1080WAT     H1 3482   6.782   2.544   7.256
 1080WAT     H2 3483   6.866   2.405   7.242
 1081WAT      O 3484   3.571   2.065   6.384
 1081WAT     H1 3485   3.660   2.043   6.345
 1081WAT     H2 3486   3.582   2.139   6.451
 1082WAT      O 3487   6.123   6.942   5.675
 1082WAT     H1 3488   6.113   6.901   5.585
 1082WAT     H2 3489   6.194   7.013   5.672
 1083WAT      O 3490   9.701   7.618   1.244
 1083WAT     H1 3491   9.683   7.546   1.311
 1083WAT     H2 3492   9.706   7.707   1.290
 1084WAT      O 3493   1.530   7.141   1.079
 1084WAT     H1 3494   1.600   7.209   1.058
 1084WAT     H2 3495   1.517   7.081   0.999
 1085WAT      O 3496   0.353   8.004   3.829
 1085WAT     H1 3497   0.274   8.008   3.890
 1085WAT     H2 3498   0.343   8.073   3.757
 1086WAT      O 3499   4.505   9.572   4.474
 1086WAT     H1 3500   4.424   9.557   4.530
 1086WAT     H2 3501   4.580   9.604   4.531
 1087WAT      O 3502   5.015   1.062   4.868
 1087WAT     H1 3503   5.073   0.998   4.816
 1087WAT     H2 3504   4.944   1.010   4.916
 1088WAT      O 3505   4.779   3.601   7.066
 1088WAT     H1 3506   4.779   3.557   6.977
 1088WAT     H2 3507   4.856   3.566   7.121
 1089WAT      O 3508   8.236   5.289   7.066
 1089WAT     H1 3509   8.292   5.370   7.083
 1089WAT     H2 3510   8.141   5.309   7.087
 1090WAT      O 3511   0.448   4.993   0.105
 1090WAT     H1 3512   0.431   5.040   0.191
 1090WAT     H2 3513   0.446   4.894   0.120
 1091WAT      O 3514   4.685   6.995   7.337
 1091WAT     H1 3515   4.757   7.053   7.376
 1091WAT     H2 3516   4.613   6.982   7.405
 1092WAT      O 3517   8.186   0.939   7.348
 1092WAT     H1 3518   8.158   0.931   7.443
 1092WAT     H2 3519   8.108   0.971   7.293
 1093WAT      O 3520   6.190   5.783   6.413
 1093WAT     H1 3521   6.166   5.785   6.316
 1093WAT     H2 3522   6.288   5.765   6.423
 1094WAT      O 3523   9.227   6.726   8.260
 1094WAT     H1 3524   9.299   6.680   8.312
 1094WAT     H2 3525   9.199   6.669   8.183
 1095WAT      O 3526   1.044   9.583   3.175
 1095WAT     H1 3527   0.952   9.584   3.215
 1095WAT     H2 3528   1.111   9.601   3.246
 1096WAT      O 3529   2.423   6.026   6.354
 1096WAT     H1 3530   2.440   6.010   6.451
 1096WAT     H2 3531   2.489   5.973   6.299
 1097WAT      O 3532   1.077   8.625   6.678
 1097WAT     H1 3533   1.068   8.544   6.620
 1097WAT     H2 3534   1.116   8.599   6.766
 1098WAT      O 3535   6.694   2.154   6.392
 1098WAT     H1 3536   6.671   2.097   6.470
 1098WAT     H2 3537   6.761   2.107   6.335
 1099WAT      O 3538   9.710   5.417   6.473
 1099WAT     H1 3539   9.690   5.331   6.521
 1099WAT     H2 3540   9.653   5.422   6.391
 1100WAT      O 3541   1.242   8.861   6.819
 1100WAT     H1 3542   1.288   8.819   6.897
 1100WAT     H2 3543   1.277   8.821   6.734
 1101WAT      O 3544   8.227   7.545   8.440
 1101WAT     H1 3545   8.198   7.556   8.535
 1101WAT     H2 3546   8.269   7.630   8.407
 1102WAT      O 3547   6.415   5.280   4.773
 1102WAT     H1 3548   6.472   5.311   4.850
 1102WAT     H2 3549   6.451   5.319   4.688
 1103WAT      O 3550   5.018   0.484   5.198
 1103WAT     H1 3551   4.929   0.444   5.175
 1103WAT     H2 3552   5.086   0.410   5.206
 1104WAT      O 3553   5.854   9.836   5.845
 1104WAT     H1 3554   5.938   9.881   5.874
 1104WAT     H2 3555   5.846   9.840   5.746
 1105WAT      O 3556   5.552   8.550   3.205
 1105WAT     H1 3557   5.492   8.624   3.234
 1105WAT     H2 3558   5.614   8.526   3.281
 1106WAT      O 3559   0.111   4.908   5.289
 1106WAT     H1 3560   0.147   4.859   5.368
 1106WAT     H2 3561   0.184   4.962   5.248
 1107WAT      O 3562   9.770   2.586   3.082
 1107WAT     H1 3563   9.701   2.543   3.141
 1107WAT     H2 3564   9.851   2.606   3.137
 1108WAT      O 3565   0.954   7.471   1.650
 1108WAT     H1 3566   0.867   7.494   1.694
 1108WAT     H2 3567   0.943   7.471   1.551
 1109WAT      O 3568   4.372   7.837   3.588
 1109WAT     H1 3569   4.337   7.751   3.628
 1109WAT     H2 3570   4.295   7.888   3.549
 1110WAT      O 3571   0.455   7.320   4.520
 1110WAT     H1 3572   0.477   7.343   4.615
 1110WAT     H2 3573   0.504   7.381   4.459
 1111WAT      O 3574   4.844   7.152   4.048
 1111WAT     H1 3575   4.877   7.154   3.954
 1111WAT     H2 3576   4.761   7.207   4.056
 1112WAT      O 3577   4.130   7.367   5.024
 1112WAT     H1 3578   4.074   7.446   5.050
 1112WAT     H2 3579   4.212   7.398   4.977
 1113WAT      O 3580   8.214   4.496   4.485
 1113WAT     H1 3581   8.248   4.589   4.501
 1113WAT     H2 3582   8.290   4.432   4.493
 1114WAT      O 3583   5.530   3.534   8.057
 1114WAT     H1 3584   5.581   3.613   8.024
 1114WAT     H2 3585   5.442   3.529   8.009
 1115WAT      O 3586   4.017   4.361   6.147
 1115WAT     H1 3587   4.114   4.378   6.166
 1115WAT     H2 3588   3.964   4.443   6.170
 1116WAT      O 3589   9.392   4.312   2.252
 1116WAT     H1 3590   9.302   4.356   2.257
 1116WAT     H2 3591   9.387   4.220   2.292
 1117WAT      O 3592   3.645   9.064   6.494
 1117WAT     H1 3593   3.578   9.101   6.429
 1117WAT     H2 3594   3.737   9.074   6.455
 1118WAT      O 3595   9.729   0.041   7.735
 1118WAT     H1 3596   9.707   0.092   7.818
 1118WAT     H2 3597   9.826   0.017   7.735
 1119WAT      O 3598   8.163   5.793   3.112
 1119WAT     H1 3599   8.152   5.733   3.033
 1119WAT     H2 3600   8.076   5.801   3.160
 1120WAT      O 3601   6.823   5.447   5.597
 1120WAT     H1 3602   6.856   5.451   5.691
 1120WAT     H2 3603   6.742   5.505   5.587
 1121WAT      O 3604   3.326   8.576   6.889
 1121WAT     H1 3605   3.251   8.511   6.876
 1121WAT     H2 3606   3.411   8.526   6.905
 1122WAT      O 3607   2.496   4.462   1.740
 1122WAT     H1 3608   2.396   4.452   1.739
 1122WAT     H2 3609   2.520   4.559   1.733
 1123WAT      O 3610   7.000   7.374   8.752
 1123WAT     H1 3611   7.020   7.294   8.695
 1123WAT     H2 3612   6.915   7.417   8.720
 1124WAT      O 3613   0.549   3.267   0.523
 1124WAT     H1 3614   0.527   3.183   0.574
 1124WAT     H2 3615   0.613   3.322   0.576
 1125WAT      O 3616   0.010   4.726   6.922
 1125WAT     H1 3617  -0.019   4.655   6.857
 1125WAT     H2 3618   0.081   4.783   6.880
 1126WAT      O 3619   9.761   4.583   4.490
 1126WAT     H1 3620   9.801   4.500   4.452
 1126WAT     H2 3621   9.665   4.567   4.511
 1127WAT      O 3622   6.257   1.204   2.321
 1127WAT     H1 3623   6.166   1.203   2.363
 1127WAT     H2 3624   6.250   1.175   2.226
 1128WAT      O 3625   1.988   7.160   0.241
 1128WAT     H1 3626   2.049   7.238   0.255
 1128WAT     H2 3627   2.018   7.083   0.298
 1129WAT      O 3628   3.855   4.230   9.117
 1129WAT     H1 3629   3.861   4.318   9.165
 1129WAT     H2 3630   3.912   4.163   9.163
 1130WAT      O 3631   9.124   2.618   4.132
 1130WAT     H1 3632   9.056   2.601   4.204
 1130WAT     H2 3633   9.168   2.532   4.108
 1131WAT      O 3634   1.492   6.216   2.251
 1131WAT     H1 3635   1.449   6.193   2.164
 1131WAT     H2 3636   1.581   6.169   2.258
 1132WAT      O 3637   5.539   1.279   1.069
 1132WAT     H1 3638   5.488   1.281   0.982
 1132WAT     H2 3639   5.530   1.188   1.110
 1133WAT      O 3640   1.214   2.089   3.498
 1133WAT     H1 3641   1.243   2.023   3.428
 1133WAT     H2 3642   1.116   2.077   3.516
 1134WAT      O 3643   8.983   7.776   4.880
 1134WAT     H1 3644   9.060   7.720   4.849
 1134WAT     H2 3645   8.912   7.717   4.919
 1135WAT      O 3646   0.259   8.581   9.404
 1135WAT     H1 3647   0.188   8.632   9.453
 1135WAT     H2 3648   0.223   8.549   9.316
 1136WAT      O 3649   1.993   3.882   1.975
 1136WAT     H1 3650   1.942   3.939   2.041
 1136WAT     H2 3651   1.942   3.797   1.959
 1137WAT      O 3652   2.727   2.417   5.353
 1137WAT     H1 3653   2.689   2.508   5.365
 1137WAT     H2 3654   2.661   2.358   5.306
 1138WAT      O 3655   0.861   6.525   6.713
 1138WAT     H1 3656   0.778   6.474   6.735
 1138WAT     H2 3657   0.839   6.622   6.702
 1139WAT      O 3658   1.840   7.568   7.847
 1139WAT     H1 3659   1.880   7.645   7.797
 1139WAT     H2 3660   1.862   7.576   7.944
 1140WAT      O 3661   3.516   1.937   8.882
 1140WAT     H1 3662   3.520   1.881   8.964
 1140WAT     H2 3663   3.601   1.929   8.831
 1141WAT      O 3664   8.002   3.548   4.375
 1141WAT     H1 3665   7.986   3.631   4.322
 1141WAT     H2 3666   7.937   3.477   4.347
 1142WAT      O 3667   7.234   9.716   5.877
 1142WAT     H1 3668   7.270   9.751   5.963
 1142WAT     H2 3669   7.267   9.773   5.801
 1143WAT      O 3670   6.221   9.218   8.556
 1143WAT     H1 3671   6.312   9.217   8.597
 1143WAT     H2 3672   6.176   9.130   8.574
 1144WAT      O 3673   2.410   4.125   5.506
 1144WAT     H1 3674   2.471   4.096   5.432
 1144WAT     H2 3675   2.316   4.132   5.472
 1145WAT      O 3676   4.898   9.371   4.228
 1145WAT     H1 3677   4.818   9.363   4.287
 1145WAT     H2 3678   4.907   9.466   4.197
 1146WAT      O 3679   2.875   8.247   5.347
 1146WAT     H1 3680   2.939   8.213   5.416
 1146WAT     H2 3681   2.889   8.345   5.334
 1147WAT      O 3682   1.526   7.864   7.947
 1147WAT     H1 3683   1.441   7.915   7.961
 1147WAT     H2 3684   1.575   7.857   8.033
 1148WAT      O 3685   7.074   6.703   6.081
 1148WAT     H1 3686   7.085   6.625   6.142
 1148WAT     H2 3687   6.978   6.716   6.058
 1149WAT      O 3688   3.995   4.702   8.026
 1149WAT     H1 3689   4.019   4.743   8.114
 1149WAT     H2 3690   3.962   4.609   8.040
 1150WAT      O 3691   7.326   1.576   1.575
 1150WAT     H1 3692   7.290   1.486   1.600
 1150WAT     H2 3693   7.354   1.575   1.479
 1151WAT      O 3694   4.054   7.899   8.374
 1151WAT     H1 3695   4.008   7.811   8.359
 1151WAT     H2 3696   4.069   7.913   8.472
 1152WAT      O 3697   5.887   6.610   8.782
 1152WAT     H1 3698   5.952   6.659   8.840
 1152WAT     H2 3699   5.795   6.649   8.793
 1153WAT      O 3700   1.171   1.587   1.514
 1153WAT     H1 3701   1.246   1.600   1.579
 1153WAT     H2 3702   1.085   1.614   1.557
 1154WAT      O 3703   5.415   9.644   8.030
 1154WAT     H1 3704   5.333   9.696   8.006
 1154WAT     H2 3705   5.409   9.553   7.989
 1155WAT      O 3706   3.407   4.521   6.605
 1155WAT     H1 3707   3.357   4.451   6.553
 1155WAT     H2 3708   3.430   4.485   6.695
 1156WAT      O 3709   2.323   3.880   8.974
 1156WAT     H1 3710   2.233   3.884   8.930
 1156WAT     H2 3711   2.337   3.788   9.013
 1157WAT      O 3712   2.858   3.021   3.361
 1157WAT     H1 3713   2.925   3.085   3.325
 1157WAT     H2 3714   2.793   2.996   3.288
 1158WAT      O 3715   8.822   3.060   5.017
 1158WAT     H1 3716   8.843   2.990   5.086
 1158WAT     H2 3717   8.727   3.048   4.986
 1159WAT      O 3718   1.022   4.302   0.589
 1159WAT     H1 3719   1.047   4.330   0.497
 1159WAT     H2 3720   0.982   4.210   0.586
 1160WAT      O 3721   3.339   1.723   0.012
 1160WAT     H1 3722   3.287   1.785   0.071
 1160WAT     H2 3723   3.351   1.635   0.059
 1161WAT      O 3724   1.564   7.905   3.530
 1161WAT     H1 3725   1.465   7.891   3.528
 1161WAT     H2 3726   1.585   7.998   3.500
 1162WAT      O 3727   2.509   7.609   5.747
 1162WAT     H1 3728   2.436   7.675   5.765
 1162WAT     H2 3729   2.469   7.522   5.720
 1163WAT      O 3730   4.564   6.749   2.240
 1163WAT     H1 3731   4.573   6.703   2.152
 1163WAT     H2 3732   4.482   6.806   2.240
 1164WAT      O 3733   1.719   6.810   0.522
 1164WAT     H1 3734   1.687   6.720   0.492
 1164WAT     H2 3735   1.657   6.880   0.486
 1165WAT      O 3736   7.958   6.495   9.600
 1165WAT     H1 3737   7.958   6.557   9.678
 1165WAT     H2 3738   7.879   6.515   9.542
 1166WAT      O 3739   8.738   4.968   1.654
 1166WAT     H1 3740   8.785   4.949   1.741
 1166WAT     H2 3741   8.639   4.972   1.670
 1167WAT      O 3742   9.617   8.908   2.732
 1167WAT     H1 3743   9.571   8.970   2.668
 1167WAT     H2 3744   9.642   8.824   2.685
 1168WAT      O 3745   6.426   2.849   1.580
 1168WAT     H1 3746   6.391   2.756   1.564
 1168WAT     H2 3747   6.402   2.907   1.503
 1169WAT      O 3748   1.548   4.938   7.387
 1169WAT     H1 3749   1.592   4.917   7.299
 1169WAT     H2 3750   1.579   4.872   7.456
 1170WAT      O 3751   1.304   0.562   5.436
 1170WAT     H1 3752   1.261   0.597   5.520
 1170WAT     H2 3753   1.272   0.469   5.419
 1171WAT      O 3754   0.376   5.603   1.639
 1171WAT     H1 3755   0.306   5.543   1.678
 1171WAT     H2 3756   0.360   5.613   1.541
 1172WAT      O 3757   2.091   3.655   1.076
 1172WAT     H1 3758   2.030   3.734   1.069
 1172WAT     H2 3759   2.158   3.670   1.149
 1173WAT      O 3760   9.452   8.738   0.102
 1173WAT     H1 3761   9.471   8.642   0.124
 1173WAT     H2 3762   9.362   8.745   0.058
 1174WAT      O 3763   3.776   0.437   1.824
 1174WAT     H1 3764   3.871   0.424   1.794
 1174WAT     H2 3765   3.749   0.532   1.809
 1175WAT      O 3766   9.641   1.659   7.372
 1175WAT     H1 3767   9.693   1.631   7.292
 1175WAT     H2 3768   9.619   1.579   7.428
 1176WAT      O 3769   9.131   4.790   3.481
 1176WAT     H1 3770   9.062   4.718   3.487
 1176WAT     H2 3771   9.086   4.878   3.464
 1177WAT      O 3772   8.614   3.341   1.673
 1177WAT     H1 3773   8.666   3.294   1.602
 1177WAT     H2 3774   8.575   3.275   1.736
 1178WAT      O 3775   4.819   5.698   6.927
 1178WAT     H1 3776   4.867   5.783   6.946
 1178WAT     H2 3777   4.763   5.673   7.006
 1179WAT      O 3778   6.906   0.191   5.133
 1179WAT     H1 3779   6.983   0.164   5.190
 1179WAT     H2 3780   6.939   0.248   5.058
 1180WAT      O 3781   5.639   3.472   7.357
 1180WAT     H1 3782   5.655   3.531   7.278
 1180WAT     H2 3783   5.551   3.496   7.399
 1181WAT      O 3784   3.573   2.191   4.365
 1181WAT     H1 3785   3.516   2.264   4.326
 1181WAT     H2 3786   3.647   2.168   4.301
 1182WAT      O 3787   7.719   0.576   3.295
 1182WAT     H1 3788   7.642   0.584   3.359
 1182WAT     H2 3789   7.687   0.588   3.202
 1183WAT      O 3790   9.101   5.783   9.823
 1183WAT     H1 3791   9.191   5.798   9.782
 1183WAT     H2 3792   9.070   5.690   9.804
 1184WAT      O 3793   7.781   2.148   1.734
 1184WAT     H1 3794   7.831   2.204   1.669
 1184WAT     H2 3795   7.837   2.132   1.815
 1185WAT      O 3796   1.032   8.241   0.024
 1185WAT     H1 3797   0.975   8.191  -0.042
 1185WAT     H2 3798   0.984   8.323   0.054
 1186WAT      O 3799   9.037   8.265   6.491
 1186WAT     H1 3800   8.943   8.240   6.469
 1186WAT     H2 3801   9.037   8.336   6.562
 1187WAT      O 3802   0.888   4.048   2.558
 1187WAT     H1 3803   0.904   3.952   2.535
 1187WAT     H2 3804   0.972   4.100   2.543
 1188WAT      O 3805   7.143   8.635   1.408
 1188WAT     H1 3806   7.108   8.565   1.470
 1188WAT     H2 3807   7.233   8.665   1.440
 1189WAT      O 3808   0.221   3.874   2.488
 1189WAT     H1 3809   0.320   3.871   2.502
 1189WAT     H2 3810   0.189   3.786   2.454
 1190WAT      O 3811   4.965   8.903   8.299
 1190WAT     H1 3812   4.942   8.816   8.342
 1190WAT     H2 3813   4.885   8.939   8.251
 1191WAT      O 3814   1.336   9.588   5.881
 1191WAT     H1 3815   1.258   9.528   5.862
 1191WAT     H2 3816   1.406   9.537   5.931
 1192WAT      O 3817   8.474   2.486   2.355
 1192WAT     H1 3818   8.437   2.519   2.442
 1192WAT     H2 3819   8.554   2.540   2.330
 1193WAT      O 3820   8.150   9.823   3.761
 1193WAT     H1 3821   8.069   9.808   3.705
 1193WAT     H2 3822   8.138   9.907   3.815
 1194WAT      O 3823   2.207   8.697   5.896
 1194WAT     H1 3824   2.120   8.653   5.875
 1194WAT     H2 3825   2.280   8.653   5.843
 1195WAT      O 3826   9.669   3.372   2.406
 1195WAT     H1 3827   9.649   3.320   2.489
 1195WAT     H2 3828   9.720   3.454   2.430
 1196WAT      O 3829   3.990   7.758   3.563
 1196WAT     H1 3830   3.940   7.783   3.645
 1196WAT     H2 3831   4.059   7.689   3.586
 1197WAT      O 3832   6.541   2.983   9.138
 1197WAT     H1 3833   6.465   2.918   9.136
 1197WAT     H2 3834   6.613   2.948   9.197
 1198WAT      O 3835   1.352   2.865   7.654
 1198WAT     H1 3836   1.424   2.801   7.683
 1198WAT     H2 3837   1.266   2.841   7.700
 1199WAT      O 3838   6.585   4.959   2.773
 1199WAT     H1 3839   6.598   4.872   2.819
 1199WAT     H2 3840   6.489   4.967   2.743
 1200WAT      O 3841   0.936   8.010   8.517
 1200WAT     H1 3842   0.876   7.930   8.524
 1200WAT     H2 3843   0.895   8.076   8.453
 1201WAT      O 3844   3.471   5.699   9.695
 1201WAT     H1 3845   3.517   5.732   9.613
 1201WAT     H2 3846   3.500   5.605   9.715
 1202WAT      O 3847   3.169   4.378   2.203
 1202WAT     H1 3848   3.101   4.410   2.268
 1202WAT     H2 3849   3.151   4.282   2.180
 1203WAT      O 3850   9.039   1.954   3.840
 1203WAT     H1 3851   9.113   1.956   3.908
 1203WAT     H2 3852   8.951   1.962   3.887
 1204WAT      O 3853   4.054   4.047   9.225
 1204WAT     H1 3854   4.064   4.049   9.324
 1204WAT     H2 3855   4.143   4.063   9.182
 1205WAT      O 3856   2.134   3.902   6.010
 1205WAT     H1 3857   2.233   3.889   5.998
 1205WAT     H2 3858   2.116   3.934   6.103
 1206WAT      O 3859   1.274   9.382   4.214
 1206WAT     H1 3860   1.254   9.298   4.163
 1206WAT     H2 3861   1.336   9.440   4.160
 1207WAT      O 3862   9.702   2.909   8.010
 1207WAT     H1 3863   9.782   2.969   8.017
 1207WAT     H2 3864   9.721   2.823   8.058
 1208WAT      O 3865   3.189   5.174   5.361
 1208WAT     H1 3866   3.139   5.261   5.360
 1208WAT     H2 3867   3.155   5.116   5.288
 1209WAT      O 3868   2.397   4.063   1.560
 1209WAT     H1 3869   2.433   4.153   1.584
 1209WAT     H2 3870   2.298   4.070   1.544
 1210WAT      O 3871   5.371   7.188   6.077
 1210WAT     H1 3872   5.401   7.231   6.162
 1210WAT     H2 3873   5.423   7.103   6.064
 1211WAT      O 3874   5.200   4.162   8.715
 1211WAT     H1 3875   5.285   4.208   8.691
 1211WAT     H2 3876   5.204   4.066   8.687
 1212WAT      O 3877   1.628   6.479   3.612
 1212WAT     H1 3878   1.721   6.504   3.586
 1212WAT     H2 3879   1.613   6.501   3.708
 1213WAT      O 3880   4.974   6.906   6.552
 1213WAT     H1 3881   4.885   6.949   6.567
 1213WAT     H2 3882   4.980   6.822   6.606
 1214WAT      O 3883   9.146   5.944   4.299
 1214WAT     H1 3884   9.086   6.021   4.321
 1214WAT     H2 3885   9.090   5.866   4.270
 1215WAT      O 3886   2.879   1.909   6.857
 1215WAT     H1 3887   2.826   1.921   6.941
 1215WAT     H2 3888   2.976   1.899   6.880
 1216WAT      O 3889   4.941   2.132   4.362
 1216WAT     H1 3890   4.975   2.115   4.270
 1216WAT     H2 3891   4.955   2.051   4.419
 1217WAT      O 3892   7.924   2.580   8.856
 1217WAT     H1 3893   7.880   2.669   8.868
 1217WAT     H2 3894   7.932   2.559   8.759
 1218WAT      O 3895   0.566   9.695   5.870
 1218WAT     H1 3896   0.526   9.780   5.835
 1218WAT     H2 3897   0.544   9.685   5.967
 1219WAT      O 3898   8.111   3.569   3.697
 1219WAT     H1 3899   8.133   3.659   3.734
 1219WAT     H2 3900   8.123   3.570   3.598
 1220WAT      O 3901   3.575   6.857   8.654
 1220WAT     H1 3902   3.549   6.897   8.566
 1220WAT     H2 3903   3.496   6.813   8.696
 1221WAT      O 3904   5.505   4.463   8.129
 1221WAT     H1 3905   5.526   4.525   8.204
 1221WAT     H2 3906   5.484   4.372   8.166
 1222WAT      O 3907   6.153   4.853   7.395
 1222WAT     H1 3908   6.177   4.844   7.299
 1222WAT     H2 3909   6.172   4.767   7.443
 1223WAT      O 3910   7.780   3.924   7.877
 1223WAT     H1 3911   7.682   3.915   7.896
 1223WAT     H2 3912   7.823   3.978   7.949
 1224WAT      O 3913   7.575   8.155   3.211
 1224WAT     H1 3914   7.574   8.085   3.141
 1224WAT     H2 3915   7.631   8.123   3.289
 1225WAT      O 3916   5.564   9.161   4.177
 1225WAT     H1 3917   5.545   9.214   4.095
 1225WAT     H2 3918   5.662   9.157   4.193
 1226WAT      O 3919   9.186   3.562   8.365
 1226WAT     H1 3920   9.088   3.577   8.349
 1226WAT     H2 3921   9.226   3.643   8.407
 1227WAT      O 3922   5.932   9.432   8.570
 1227WAT     H1 3923   5.917   9.396   8.479
 1227WAT     H2 3924   5.850   9.479   8.602
 1228WAT      O 3925   0.460   7.506   5.021
 1228WAT     H1 3926   0.499   7.504   5.113
 1228WAT     H2 3927   0.467   7.599   4.984
 1229WAT      O 3928   7.438   8.969   2.726
 1229WAT     H1 3929   7.512   8.909   2.695
 1229WAT     H2 3930   7.370   8.916   2.776
 1230WAT      O 3931   2.672   6.535   7.806
 1230WAT     H1 3932   2.605   6.585   7.752
 1230WAT     H2 3933   2.749   6.509   7.749
 1231WAT      O 3934   4.715   4.601   7.007
 1231WAT     H1 3935   4.697   4.692   7.044
 1231WAT     H2 3936   4.648   4.537   7.043
 1232WAT      O 3937   4.631   6.654   0.820
 1232WAT     H1 3938   4.659   6.736   0.870
 1232WAT     H2 3939   4.535   6.662   0.795
 1233WAT      O 3940   8.877   3.588   0.366
 1233WAT     H1 3941   8.911   3.639   0.444
 1233WAT     H2 3942   8.860   3.650   0.289
 1234WAT      O 3943   5.051   1.118   3.693
 1234WAT     H1 3944   5.063   1.093   3.597
 1234WAT     H2 3945   5.141   1.133   3.735
 1235WAT      O 3946   1.122   9.815   0.755
 1235WAT     H1 3947   1.113   9.914   0.761
 1235WAT     H2 3948   1.218   9.791   0.737
 1236WAT      O 3949   2.339   3.077   8.209
 1236WAT     H1 3950   2.327   3.173   8.183
 1236WAT     H2 3951   2.327   3.018   8.129
 1237WAT      O 3952   2.936   0.671   2.119
 1237WAT     H1 3953   2.859   0.609   2.103
 1237WAT     H2 3954   2.955   0.723   2.036
 1238WAT      O 3955   1.330   4.628   0.010
 1238WAT     H1 3956   1.339   4.684   0.092
 1238WAT     H2 3957   1.384   4.544   0.020
 1239WAT      O 3958   8.066   6.991   9.588
 1239WAT     H1 3959   7.983   7.001   9.534
 1239WAT     H2 3960   8.143   6.974   9.527
 1240WAT      O 3961   4.505   9.439   1.432
 1240WAT     H1 3962   4.450   9.450   1.515
 1240WAT     H2 3963   4.504   9.524   1.380
 1241WAT      O 3964   4.279   1.979   1.677
 1241WAT     H1 3965   4.269   1.879   1.679
 1241WAT     H2 3966   4.234   2.018   1.758
 1242WAT      O 3967   2.394   9.056   1.904
 1242WAT     H1 3968   2.486   9.018   1.895
 1242WAT     H2 3969   2.357   9.032   1.994
 1243WAT      O 3970   7.298   4.126   2.997
 1243WAT     H1 3971   7.255   4.051   2.946
 1243WAT     H2 3972   7.357   4.088   3.068
 1244WAT      O 3973   8.963   0.328   2.072
 1244WAT     H1 3974   8.983   0.420   2.040
 1244WAT     H2 3975   9.010   0.312   2.159
 1245WAT      O 3976   4.466   3.640   0.987
 1245WAT     H1 3977   4.456   3.541   0.975
 1245WAT     H2 3978   4.407   3.687   0.922
 1246WAT      O 3979   1.970   9.343   0.558
 1246WAT     H1 3980   1.942   9.434   0.526
 1246WAT     H2 3981   2.069   9.342   0.572
 1247WAT      O 3982   7.940   4.617   1.138
 1247WAT     H1 3983   8.012   4.600   1.072
 1247WAT     H2 3984   7.965   4.578   1.227
 1248WAT      O 3985   6.863   5.827   7.784
 1248WAT     H1 3986   6.909   5.905   7.743
 1248WAT     H2 3987   6.803   5.784   7.717
 1249WAT      O 3988   5.078   1.279   2.140
 1249WAT     H1 3989   5.149   1.336   2.182
 1249WAT     H2 3990   5.051   1.319   2.053
 1250WAT      O 3991   5.580   2.429   1.884
 1250WAT     H1 3992   5.494   2.416   1.833
 1250WAT     H2 3993   5.652   2.457   1.820
 1251WAT      O 3994   1.421   6.936   3.198
 1251WAT     H1 3995   1.452   6.890   3.281
 1251WAT     H2 3996   1.334   6.896   3.168
 1252WAT      O 3997   6.439   6.296   0.493
 1252WAT     H1 3998   6.456   6.378   0.438
 1252WAT     H2 3999   6.386   6.321   0.574
 1253WAT      O 4000   4.818   6.663   9.376
 1253WAT     H1 4001   4.848   6.703   9.289
 1253WAT     H2 4002   4.808   6.564   9.366
 1254WAT      O 4003   6.910   8.123   3.021
 1254WAT     H1 4004   7.010   8.130   3.027
 1254WAT     H2 4005   6.885   8.031   2.992
 1255WAT      O 4006   9.804   6.982   6.228
 1255WAT     H1 4007   9.759   6.898   6.258
 1255WAT     H2 4008   9.750   7.026   6.156
 1256WAT      O 4009   3.733   0.232   3.707
 1256WAT     H1 4010   3.814   0.235   3.650
 1256WAT     H2 4011   3.656   0.275   3.659
 1257WAT      O 4012   1.421   3.028   0.266
 1257WAT     H1 4013   1.331   2.985   0.270
 1257WAT     H2 4014   1.411   3.127   0.268
 1258WAT      O 4015   1.232   7.881   0.002
 1258WAT     H1 4016   1.296   7.918   0.069
 1258WAT     H2 4017   1.210   7.951  -0.066
 1259WAT      O 4018   3.948   1.701   5.662
 1259WAT     H1 4019   4.003   1.718   5.580
 1259WAT     H2 4020   4.007   1.689   5.741
 1260WAT      O 4021   2.431   5.679   7.581
 1260WAT     H1 4022   2.393   5.606   7.525
 1260WAT     H2 4023   2.378   5.763   7.566
 1261WAT      O 4024   9.426   9.833   2.640
 1261WAT     H1 4025   9.514   9.825   2.592
 1261WAT     H2 4026   9.354   9.855   2.574
 1262WAT      O 4027   7.453   5.241   9.062
 1262WAT     H1 4028   7.548   5.225   9.036
 1262WAT     H2 4029   7.448   5.314   9.130
 1263WAT      O 4030   0.501   7.289   1.097
 1263WAT     H1 4031   0.484   7.299   1.195
 1263WAT     H2 4032   0.550   7.204   1.080
 1264WAT      O 4033   9.088   7.609   8.239
 1264WAT     H1 4034   9.020   7.651   8.300
 1264WAT     H2 4035   9.042   7.541   8.181
 1265WAT      O 4036   1.563   9.381   8.027
 1265WAT     H1 4037   1.473   9.350   7.998
 1265WAT     H2 4038   1.566   9.387   8.127
 1266WAT      O 4039   4.526   5.488   7.724
 1266WAT     H1 4040   4.521   5.528   7.816
 1266WAT     H2 4041   4.619   5.497   7.688
 1267WAT      O 4042   9.771   3.673   0.990
 1267WAT     H1 4043   9.796   3.661   0.894
 1267WAT     H2 4044   9.828   3.746   1.029
 1268WAT      O 4045   1.287   9.333   8.649
 1268WAT     H1 4046   1.360   9.377   8.598
 1268WAT     H2 4047   1.203   9.332   8.594
 1269WAT      O 4048   2.960   6.890   0.250
 1269WAT     H1 4049   2.941   6.895   0.348
 1269WAT     H2 4050   2.901   6.954   0.201
 1270WAT      O 4051   3.005   2.619   1.165
 1270WAT     H1 4052   3.092   2.585   1.130
 1270WAT     H2 4053   2.977   2.564   1.244
 1271WAT      O 4054   4.930   9.643   7.740
 1271WAT     H1 4055   4.859   9.643   7.670
 1271WAT     H2 4056   4.892   9.675   7.826
 1272WAT      O 4057   9.131   5.175   1.745
 1272WAT     H1 4058   9.095   5.227   1.822
 1272WAT     H2 4059   9.225   5.148   1.764
 1273WAT      O 4060   0.263   1.646   3.387
 1273WAT     H1 4061   0.301   1.724   3.436
 1273WAT     H2 4062   0.312   1.634   3.301
 1274WAT      O 4063   8.767   0.725   6.763
 1274WAT     H1 4064   8.831   0.764   6.697
 1274WAT     H2 4065   8.754   0.628   6.742
 1275WAT      O 4066   0.693   7.976   0.026
 1275WAT     H1 4067   0.596   7.953   0.034
 1275WAT     H2 4068   0.723   8.025   0.107
 1276WAT      O 4069   0.572   0.790   6.503
 1276WAT     H1 4070   0.541   0.730   6.430
 1276WAT     H2 4071   0.524   0.878   6.498
 1277WAT      O 4072   4.212   1.755   2.830
 1277WAT     H1 4073   4.207   1.680   2.765
 1277WAT     H2 4074   4.274   1.731   2.905
 1278WAT      O 4075   2.417   9.170   1.047
 1278WAT     H1 4076   2.470   9.216   0.976
 1278WAT     H2 4077   2.398   9.076   1.020
 1279WAT      O 4078   2.384   9.089   8.611
 1279WAT     H1 4079   2.291   9.065   8.580
 1279WAT     H2 4080   2.426   9.149   8.543
 1280WAT      O 4081   8.310   5.207   1.687
 1280WAT     H1 4082   8.243   5.239   1.754
 1280WAT     H2 4083   8.275   5.222   1.595
 1281WAT      O 4084   8.367   7.584   0.858
 1281WAT     H1 4085   8.461   7.613   0.878
 1281WAT     H2 4086   8.315   7.661   0.821
 1282WAT      O 4087   5.229   5.648   2.932
 1282WAT     H1 4088   5.309   5.683   2.883
 1282WAT     H2 4089   5.146   5.688   2.893
 1283WAT      O 4090   9.802   3.994   0.927
 1283WAT     H1 4091   9.775   3.964   0.835
 1283WAT     H2 4092   9.730   4.052   0.965
 1284WAT      O 4093   9.752   0.536   9.528
 1284WAT     H1 4094   9.774   0.511   9.434
 1284WAT     H2 4095   9.733   0.634   9.533
 1285WAT      O 4096   9.659   1.003   4.844
 1285WAT     H1 4097   9.755   1.031   4.850
 1285WAT     H2 4098   9.600   1.084   4.849
 1286WAT      O 4099   3.720   8.294   1.135
 1286WAT     H1 4100   3.810   8.251   1.134
 1286WAT     H2 4101   3.682   8.294   1.042
 1287WAT      O 4102   6.370   8.985   1.534
 1287WAT     H1 4103   6.411   9.068   1.495
 1287WAT     H2 4104   6.356   8.998   1.632
 1288WAT      O 4105   8.081   1.085   5.225
 1288WAT     H1 4106   8.051   1.127   5.139
 1288WAT     H2 4107   8.123   1.155   5.283
 1289WAT      O 4108   8.949   3.721   0.595
 1289WAT     H1 4109   8.930   3.650   0.663
 1289WAT     H2 4110   8.876   3.789   0.598
 1290WAT      O 4111   4.829   2.458   2.216
 1290WAT     H1 4112   4.736   2.487   2.192
 1290WAT     H2 4113   4.895   2.510   2.162
 1291WAT      O 4114   4.378   4.877   6.904
 1291WAT     H1 4115   4.384   4.826   6.818
 1291WAT     H2 4116   4.413   4.821   6.979
 1292WAT      O 4117   7.349   1.638   2.678
 1292WAT     H1 4118   7.250   1.638   2.694
 1292WAT     H2 4119   7.389   1.555   2.717
 1293WAT      O 4120   7.095   9.190   5.742
 1293WAT     H1 4121   7.013   9.145   5.777
 1293WAT     H2 4122   7.101   9.283   5.778
 1294WAT      O 4123   9.558   9.495   4.427
 1294WAT     H1 4124   9.555   9.403   4.388
 1294WAT     H2 4125   9.612   9.555   4.368
 1295WAT      O 4126   0.756   9.509   1.835
 1295WAT     H1 4127   0.850   9.502   1.802
 1295WAT     H2 4128   0.723   9.419   1.861
 1296WAT      O 4129   0.282   2.448   3.163
 1296WAT     H1 4130   0.275   2.351   3.139
 1296WAT     H2 4131   0.358   2.460   3.227
 1297WAT      O 4132   6.603   3.467   5.227
 1297WAT     H1 4133   6.657   3.452   5.144
 1297WAT     H2 4134   6.511   3.497   5.203
 1298WAT      O 4135   9.110   4.756   0.425
 1298WAT     H1 4136   9.162   4.671   0.423
 1298WAT     H2 4137   9.117   4.802   0.337
 1299WAT      O 4138   5.332   4.201   4.173
 1299WAT     H1 4139   5.318   4.286   4.122
 1299WAT     H2 4140   5.429   4.192   4.195
 1300WAT      O 4141   3.247   6.141   3.001
 1300WAT     H1 4142   3.293   6.071   3.056
 1300WAT     H2 4143   3.150   6.119   2.994
 1301WAT      O 4144   7.442   6.137   0.606
 1301WAT     H1 4145   7.419   6.064   0.542
 1301WAT     H2 4146   7.441   6.225   0.559
 1302WAT      O 4147   0.082   4.277   3.734
 1302WAT     H1 4148  -0.013   4.306   3.725
 1302WAT     H2 4149   0.141   4.342   3.686
 1303WAT      O 4150   6.886   8.020   0.759
 1303WAT     H1 4151   6.875   8.036   0.857
 1303WAT     H2 4152   6.950   8.087   0.721
 1304WAT      O 4153   2.465   8.317   7.488
 1304WAT     H1 4154   2.448   8.368   7.404
 1304WAT     H2 4155   2.438   8.221   7.475
 1305WAT      O 4156   0.091   9.390   5.459
 1305WAT     H1 4157   0.076   9.414   5.555
 1305WAT     H2 4158   0.133   9.299   5.455
 1306WAT      O 4159   1.898   8.754   7.034
 1306WAT     H1 4160   1.849   8.760   6.947
 1306WAT     H2 4161   1.882   8.665   7.075
 1307WAT      O 4162   8.542   7.993   2.302
 1307WAT     H1 4163   8.624   7.980   2.357
 1307WAT     H2 4164   8.466   8.021   2.361
 1308WAT      O 4165   8.797   9.281   3.859
 1308WAT     H1 4166   8.734   9.358   3.865
 1308WAT     H2 4167   8.774   9.213   3.928
 1309WAT      O 4168   7.562   2.573   0.135
 1309WAT     H1 4169   7.546   2.492   0.077
 1309WAT     H2 4170   7.605   2.645   0.080
 1310WAT      O 4171   2.991   1.155   1.592
 1310WAT     H1 4172   3.008   1.250   1.616
 1310WAT     H2 4173   3.043   1.095   1.653
 1311WAT      O 4174   2.470   5.167   2.320
 1311WAT     H1 4175   2.372   5.149   2.314
 1311WAT     H2 4176   2.519   5.080   2.324
 1312WAT      O 4177   6.836   3.721   8.952
 1312WAT     H1 4178   6.911   3.740   9.015
 1312WAT     H2 4179   6.871   3.668   8.874
 1313WAT      O 4180   1.337   6.386   6.368
 1313WAT     H1 4181   1.383   6.350   6.449
 1313WAT     H2 4182   1.242   6.353   6.366
 1314WAT      O 4183   5.189   8.118   7.062
 1314WAT     H1 4184   5.201   8.165   7.149
 1314WAT     H2 4185   5.092   8.119   7.036
 1315WAT      O 4186   4.458   9.106   3.828
 1315WAT     H1 4187   4.503   9.018   3.814
 1315WAT     H2 4188   4.383   9.095   3.894
 1316WAT      O 4189   8.170   0.318   9.387
 1316WAT     H1 4190   8.077   0.284   9.375
 1316WAT     H2 4191   8.203   0.358   9.301
 1317WAT      O 4192   3.470   5.286   4.147
 1317WAT     H1 4193   3.494   5.276   4.244
 1317WAT     H2 4194   3.547   5.323   4.096
 1318WAT      O 4195   3.941   6.262   3.512
 1318WAT     H1 4196   3.911   6.179   3.464
 1318WAT     H2 4197   4.002   6.236   3.587
 1319WAT      O 4198   8.754   2.607   9.073
 1319WAT     H1 4199   8.679   2.569   9.019
 1319WAT     H2 4200   8.742   2.706   9.081
 1320WAT      O 4201   1.965   0.619   9.154
 1320WAT     H1 4202   1.955   0.596   9.057
 1320WAT     H2 4203   2.032   0.692   9.164
 1321WAT      O 4204   1.976   7.332   1.939
 1321WAT     H1 4205   1.958   7.404   2.005
 1321WAT     H2 4206   1.952   7.243   1.978
 1322WAT      O 4207   6.974   0.436   4.945
 1322WAT     H1 4208   6.937   0.384   4.868
 1322WAT     H2 4209   6.990   0.531   4.916
 1323WAT      O 4210   6.468   3.211   0.722
 1323WAT     H1 4211   6.482   3.214   0.821
 1323WAT     H2 4212   6.467   3.116   0.691
 1324WAT      O 4213   2.542   4.063   3.972
 1324WAT     H1 4214   2.628   4.113   3.974
 1324WAT     H2 4215   2.550   3.980   4.027
 1325WAT      O 4216   1.734   3.568   2.645
 1325WAT     H1 4217   1.678   3.486   2.659
 1325WAT     H2 4218   1.691   3.645   2.691
 1326WAT      O 4219   4.900   6.459   7.077
 1326WAT     H1 4220   4.925   6.379   7.024
 1326WAT     H2 4221   4.949   6.539   7.043
 1327WAT      O 4222   8.007   8.181   1.110
 1327WAT     H1 4223   7.934   8.113   1.109
 1327WAT     H2 4224   7.978   8.263   1.061
 1328WAT      O 4225   3.423   3.661   4.080
 1328WAT     H1 4226   3.373   3.576   4.066
 1328WAT     H2 4227   3.519   3.648   4.056
 1329WAT      O 4228   9.659   1.406   0.761
 1329WAT     H1 4229   9.629   1.400   0.856
 1329WAT     H2 4230   9.680   1.314   0.727
 1330WAT      O 4231   9.370   4.147   9.519
 1330WAT     H1 4232   9.420   4.218   9.567
 1330WAT     H2 4233   9.324   4.186   9.439
 1331WAT      O 4234   1.415   4.051   9.372
 1331WAT     H1 4235   1.478   4.095   9.436
 1331WAT     H2 4236   1.363   3.980   9.419
 1332WAT      O 4237   8.483   1.826   5.607
 1332WAT     H1 4238   8.557   1.794   5.548
 1332WAT     H2 4239   8.467   1.923   5.589
 1333WAT      O 4240   3.307   4.782   6.614
 1333WAT     H1 4241   3.215   4.783   6.652
 1333WAT     H2 4242   3.343   4.689   6.616
 1334WAT      O 4243   5.988   7.539   3.173
 1334WAT     H1 4244   5.917   7.522   3.241
 1334WAT     H2 4245   5.972   7.483   3.092
 1335WAT      O 4246   8.830   8.332   8.392
 1335WAT     H1 4247   8.818   8.356   8.488
 1335WAT     H2 4248   8.826   8.415   8.336
 1336WAT      O 4249   3.796   8.670   6.832
 1336WAT     H1 4250   3.845   8.584   6.838
 1336WAT     H2 4251   3.822   8.730   6.907
 1337WAT      O 4252   7.390   3.674   9.298
 1337WAT     H1 4253   7.357   3.719   9.215
 1337WAT     H2 4254   7.483   3.640   9.282
 1338WAT      O 4255   8.655   0.832   4.357
 1338WAT     H1 4256   8.751   0.844   4.330
 1338WAT     H2 4257   8.620   0.918   4.395
 1339WAT      O 4258   2.457   9.706   2.104
 1339WAT     H1 4259   2.546   9.685   2.145
 1339WAT     H2 4260   2.405   9.766   2.165
 1340WAT      O 4261   9.250   7.001   8.114
 1340WAT     H1 4262   9.327   6.983   8.177
 1340WAT     H2 4263   9.208   7.089   8.137
 1341WAT      O 4264   8.595   2.127   3.135
 1341WAT     H1 4265   8.538   2.062   3.085
 1341WAT     H2 4266   8.537   2.194   3.180
 1342WAT      O 4267   4.808   6.740   1.988
 1342WAT     H1 4268   4.858   6.665   1.944
 1342WAT     H2 4269   4.711   6.719   1.989
 1343WAT      O 4270   5.676   2.194   7.856
 1343WAT     H1 4271   5.776   2.198   7.845
 1343WAT     H2 4272   5.637   2.284   7.840
 1344WAT      O 4273   5.112   3.101   1.964
 1344WAT     H1 4274   5.204   3.076   1.993
 1344WAT     H2 4275   5.077   3.030   1.902
 1345WAT      O 4276   0.594   3.012   5.734
 1345WAT     H1 4277   0.496   3.017   5.718
 1345WAT     H2 4278   0.639   3.085   5.682
 1346WAT      O 4279   3.179   3.005   8.013
 1346WAT     H1 4280   3.224   3.093   7.998
 1346WAT     H2 4281   3.161   2.961   7.925
 1347WAT      O 4282   1.448   7.587   1.351
 1347WAT     H1 4283   1.405   7.516   1.407
 1347WAT     H2 4284   1.381   7.623   1.287
 1348WAT      O 4285   9.450   6.601   2.433
 1348WAT     H1 4286   9.419   6.658   2.357
 1348WAT     H2 4287   9.545   6.621   2.454
 1349WAT      O 4288   8.637   7.395   0.878
 1349WAT     H1 4289   8.734   7.370   0.884
 1349WAT     H2 4290   8.626   7.491   0.905
 1350WAT      O 4291   0.203   2.639   2.709
 1350WAT     H1 4292   0.175   2.567   2.645
 1350WAT     H2 4293   0.250   2.598   2.787
 1351WAT      O 4294   2.135   9.555   4.254
 1351WAT     H1 4295   2.215   9.521   4.304
 1351WAT     H2 4296   2.135   9.517   4.162
 1352WAT      O 4297   2.370   8.790   3.198
 1352WAT     H1 4298   2.452   8.817   3.148
 1352WAT     H2 4299   2.290   8.835   3.158
 1353WAT      O 4300   4.570   4.543   2.442
 1353WAT     H1 4301   4.574   4.552   2.342
 1353WAT     H2 4302   4.487   4.588   2.476
 1354WAT      O 4303   1.834   2.550   8.417
 1354WAT     H1 4304   1.829   2.575   8.320
 1354WAT     H2 4305   1.799   2.625   8.473
 1355WAT      O 4306   5.154   0.343   9.683
 1355WAT     H1 4307   5.095   0.403   9.628
 1355WAT     H2 4308   5.185   0.266   9.628
 1356WAT      O 4309   1.675   7.214   9.115
 1356WAT     H1 4310   1.738   7.173   9.181
 1356WAT     H2 4311   1.603   7.263   9.165
 1357WAT      O 4312   3.603   3.960   3.488
 1357WAT     H1 4313   3.586   3.898   3.411
 1357WAT     H2 4314   3.622   3.906   3.570
 1358WAT      O 4315   5.851   8.211   7.633
 1358WAT     H1 4316   5.858   8.292   7.576
 1358WAT     H2 4317   5.821   8.133   7.578
 1359WAT      O 4318   3.843   2.896   5.304
 1359WAT     H1 4319   3.778   2.972   5.299
 1359WAT     H2 4320   3.927   2.927   5.350
 1360WAT      O 4321   5.957   8.606   5.977
 1360WAT     H1 4322   5.956   8.597   5.877
 1360WAT     H2 4323   5.924   8.697   6.003
 1361WAT      O 4324   6.707   0.717   1.359
 1361WAT     H1 4325   6.750   0.631   1.388
 1361WAT     H2 4326   6.771   0.768   1.302
 1362WAT      O 4327   0.623   8.179   7.723
 1362WAT     H1 4328   0.681   8.232   7.661
 1362WAT     H2 4329   0.567   8.116   7.670
 1363WAT      O 4330   5.250   9.264   1.395
 1363WAT     H1 4331   5.326   9.247   1.457
 1363WAT     H2 4332   5.264   9.351   1.348
 1364WAT      O 4333   2.206   0.082   7.960
 1364WAT     H1 4334   2.230   0.178   7.978
 1364WAT     H2 4335   2.233   0.026   8.038
 1365WAT      O 4336   9.275   4.282   9.320
 1365WAT     H1 4337   9.215   4.361   9.332
 1365WAT     H2 4338   9.220   4.199   9.316
 1366WAT      O 4339   7.009   5.576   9.559
 1366WAT     H1 4340   7.002   5.506   9.629
 1366WAT     H2 4341   7.063   5.542   9.482
 1367WAT      O 4342   4.306   0.897   0.975
 1367WAT     H1 4343   4.346   0.987   0.955
 1367WAT     H2 4344   4.315   0.877   1.072
 1368WAT      O 4345   3.523   6.988   2.597
 1368WAT     H1 4346   3.518   6.904   2.543
 1368WAT     H2 4347   3.614   6.997   2.636
 1369WAT      O 4348   5.892   2.267   2.439
 1369WAT     H1 4349   5.845   2.347   2.401
 1369WAT     H2 4350   5.839   2.231   2.516
 1370WAT      O 4351   5.330   2.023   5.793
 1370WAT     H1 4352   5.237   1.992   5.774
 1370WAT     H2 4353   5.393   1.946   5.790
 1371WAT      O 4354   0.047   6.930   9.231
 1371WAT     H1 4355   0.091   7.018   9.211
 1371WAT     H2 4356   0.114   6.868   9.270
 1372WAT      O 4357   8.855   4.307   2.279
 1372WAT     H1 4358   8.855   4.336   2.374
 1372WAT     H2 4359   8.818   4.215   2.272
 1373WAT      O 4360   5.384   0.752   6.504
 1373WAT     H1 4361   5.446   0.714   6.571
 1373WAT     H2 4362   5.389   0.699   6.419
 1374WAT      O 4363   5.926   9.286   5.013
 1374WAT     H1 4364   5.993   9.218   5.045
 1374WAT     H2 4365   5.964   9.333   4.933
 1375WAT      O 4366   3.741   0.904   2.317
 1375WAT     H1 4367   3.770   0.916   2.223
 1375WAT     H2 4368   3.648   0.866   2.319
 1376WAT      O 4369   2.045   2.934   1.258
 1376WAT     H1 4370   2.127   2.932   1.201
 1376WAT     H2 4371   2.072   2.949   1.353
 1377WAT      O 4372   2.833   0.483   8.991
 1377WAT     H1 4373   2.921   0.462   9.033
 1377WAT     H2 4374   2.760   0.440   9.045
 1378WAT      O 4375   3.763   3.848   5.864
 1378WAT     H1 4376   3.763   3.946   5.845
 1378WAT     H2 4377   3.764   3.797   5.778
 1379WAT      O 4378   2.564   3.253   8.700
 1379WAT     H1 4379   2.592   3.329   8.759
 1379WAT     H2 4380   2.490   3.283   8.640
 1380WAT      O 4381   3.487   5.125   6.148
 1380WAT     H1 4382   3.478   5.055   6.218
 1380WAT     H2 4383   3.412   5.116   6.082
 1381WAT      O 4384   0.213   7.638   5.786
 1381WAT     H1 4385   0.269   7.715   5.756
 1381WAT     H2 4386   0.119   7.671   5.803
 1382WAT      O 4387   5.481   7.499   6.481
 1382WAT     H1 4388   5.509   7.587   6.442
 1382WAT     H2 4389   5.392   7.509   6.526
 1383WAT      O 4390   0.488   9.615   3.669
 1383WAT     H1 4391   0.513   9.664   3.585
 1383WAT     H2 4392   0.469   9.680   3.742
 1384WAT      O 4393   7.749   5.323   8.515
 1384WAT     H1 4394   7.690   5.399   8.543
 1384WAT     H2 4395   7.836   5.359   8.483
 1385WAT      O 4396   0.673   8.512   5.800
 1385WAT     H1 4397   0.670   8.491   5.703
 1385WAT     H2 4398   0.743   8.582   5.817
 1386WAT      O 4399   0.454   4.513   2.124
 1386WAT     H1 4400   0.468   4.462   2.208
 1386WAT     H2 4401   0.375   4.573   2.134
 1387WAT      O 4402   2.494   7.462   3.356
 1387WAT     H1 4403   2.524   7.368   3.375
 1387WAT     H2 4404   2.438   7.463   3.273
 1388WAT      O 4405   0.552   7.005   1.101
 1388WAT     H1 4406   0.622   6.985   1.032
 1388WAT     H2 4407   0.575   6.956   1.186
 1389WAT      O 4408   1.555   2.465   4.007
 1389WAT     H1 4409   1.653   2.487   4.006
 1389WAT     H2 4410   1.543   2.366   4.009
 1390WAT      O 4411   5.742   7.581   8.804
 1390WAT     H1 4412   5.668   7.643   8.777
 1390WAT     H2 4413   5.704   7.489   8.818
 1391WAT      O 4414   8.210   3.613   0.645
 1391WAT     H1 4415   8.249   3.633   0.554
 1391WAT     H2 4416   8.204   3.514   0.658
 1392WAT      O 4417   7.312   0.461   1.636
 1392WAT     H1 4418   7.364   0.444   1.719
 1392WAT     H2 4419   7.373   0.489   1.562
 1393WAT      O 4420   2.449   7.381   5.614
 1393WAT     H1 4421   2.416   7.290   5.637
 1393WAT     H2 4422   2.416   7.407   5.523
 1394WAT      O 4423   5.229   8.740   4.447
 1394WAT     H1 4424   5.233   8.660   4.386
 1394WAT     H2 4425   5.289   8.812   4.412
 1395WAT      O 4426   4.233   6.810   6.387
 1395WAT     H1 4427   4.216   6.895   6.437
 1395WAT     H2 4428   4.157   6.747   6.401
 1396WAT      O 4429   7.645   9.762   3.551
 1396WAT     H1 4430   7.566   9.716   3.511
 1396WAT     H2 4431   7.693   9.812   3.479
 1397WAT      O 4432   2.829   2.010   5.156
 1397WAT     H1 4433   2.739   2.048   5.136
 1397WAT     H2 4434   2.881   2.074   5.213
 1398WAT      O 4435   7.804   0.667   6.289
 1398WAT     H1 4436   7.749   0.672   6.205
 1398WAT     H2 4437   7.744   0.671   6.368
 1399WAT      O 4438   5.010   8.835   4.788
 1399WAT     H1 4439   4.986   8.828   4.885
 1399WAT     H2 4440   5.051   8.924   4.770
 1400WAT      O 4441   1.842   5.890   3.110
 1400WAT     H1 4442   1.915   5.924   3.050
 1400WAT     H2 4443   1.828   5.955   3.185
 1401WAT      O 4444   2.518   4.070   1.963
 1401WAT     H1 4445   2.577   4.045   2.040
 1401WAT     H2 4446   2.431   4.022   1.971
 1402WAT      O 4447   5.613   6.945   4.686
 1402WAT     H1 4448   5.554   6.912   4.612
 1402WAT     H2 4449   5.556   6.981   4.760
 1403WAT      O 4450   7.395   7.277   4.714
 1403WAT     H1 4451   7.325   7.227   4.766
 1403WAT     H2 4452   7.477   7.288   4.770
 1404WAT      O 4453   5.741   4.206   2.571
 1404WAT     H1 4454   5.752   4.267   2.493
 1404WAT     H2 4455   5.828   4.195   2.618
 1405WAT      O 4456   9.651   1.707   2.490
 1405WAT     H1 4457   9.739   1.699   2.537
 1405WAT     H2 4458   9.626   1.619   2.450
 1406WAT      O 4459   1.304   3.267   4.007
 1406WAT     H1 4460   1.218   3.215   4.007
 1406WAT     H2 4461   1.289   3.354   4.055
 1407WAT      O 4462   1.661   8.533   9.701
 1407WAT     H1 4463   1.697   8.473   9.772
 1407WAT     H2 4464   1.682   8.495   9.611
 1408WAT      O 4465   6.331   1.208   2.754
 1408WAT     H1 4466   6.427   1.233   2.743
 1408WAT     H2 4467   6.281   1.285   2.793
 1409WAT      O 4468   4.786   8.696   4.699
 1409WAT     H1 4469   4.869   8.752   4.702
 1409WAT     H2 4470   4.802   8.609   4.744
 1410WAT      O 4471   1.958   9.061   0.524
 1410WAT     H1 4472   2.055   9.055   0.500
 1410WAT     H2 4473   1.929   9.156   0.522
 1411WAT      O 4474   8.185   6.429   4.105
 1411WAT     H1 4475   8.174   6.393   4.197
 1411WAT     H2 4476   8.208   6.354   4.042
 1412WAT      O 4477   7.391   1.014   3.545
 1412WAT     H1 4478   7.423   0.958   3.622
 1412WAT     H2 4479   7.463   1.077   3.518
 1413WAT      O 4480   1.139   2.930   4.866
 1413WAT     H1 4481   1.188   2.992   4.928
 1413WAT     H2 4482   1.102   2.982   4.789
 1414WAT      O 4483   0.534   8.179   1.361
 1414WAT     H1 4484   0.620   8.166   1.410
 1414WAT     H2 4485   0.542   8.257   1.299
 1415WAT      O 4486   5.968   6.198   5.278
 1415WAT     H1 4487   5.964   6.198   5.179
 1415WAT     H2 4488   5.876   6.198   5.316
 1416WAT      O 4489   4.986   6.808   0.666
 1416WAT     H1 4490   4.918   6.787   0.596
 1416WAT     H2 4491   4.986   6.737   0.736
 1417WAT      O 4492   2.110   5.751   6.231
 1417WAT     H1 4493   2.108   5.817   6.306
 1417WAT     H2 4494   2.144   5.795   6.148
 1418WAT      O 4495   9.171   0.524   6.308
 1418WAT     H1 4496   9.180   0.525   6.209
 1418WAT     H2 4497   9.248   0.474   6.348
 1419WAT      O 4498   2.101   7.212   3.106
 1419WAT     H1 4499   2.173   7.151   3.139
 1419WAT     H2 4500   2.043   7.238   3.183
 1420WAT      O 4501   8.021   5.392   8.404
 1420WAT     H1 4502   8.108   5.418   8.364
 1420WAT     H2 4503   8.033   5.311   8.462
 1421WAT      O 4504   5.734   9.196   1.057
 1421WAT     H1 4505   5.662   9.180   1.124
 1421WAT     H2 4506   5.705   9.268   0.993
 1422WAT      O 4507   4.485   4.776   1.582
 1422WAT     H1 4508   4.502   4.871   1.607
 1422WAT     H2 4509   4.398   4.745   1.621
 1423WAT      O 4510   7.167   4.141   4.707
 1423WAT     H1 4511   7.124   4.190   4.783
 1423WAT     H2 4512   7.106   4.068   4.676
 1424WAT      O 4513   2.489   5.238   9.018
 1424WAT     H1 4514   2.400   5.263   8.979
 1424WAT     H2 4515   2.476   5.167   9.087
 1425WAT      O 4516   6.371   6.252   7.032
 1425WAT     H1 4517   6.414   6.174   7.079
 1425WAT     H2 4518   6.431   6.286   6.960
 1426WAT      O 4519   8.478   8.484   8.256
 1426WAT     H1 4520   8.530   8.522   8.333
 1426WAT     H2 4521   8.540   8.467   8.180
 1427WAT      O 4522   7.897   1.050   0.602
 1427WAT     H1 4523   7.800   1.043   0.624
 1427WAT     H2 4524   7.908   1.093   0.512
 1428WAT      O 4525   9.086   2.303   2.466
 1428WAT     H1 4526   9.109   2.339   2.557
 1428WAT     H2 4527   9.171   2.284   2.416
 1429WAT      O 4528   5.358   4.218   6.937
 1429WAT     H1 4529   5.383   4.130   6.976
 1429WAT     H2 4530   5.432   4.251   6.878
 1430WAT      O 4531   3.528   4.953   2.274
 1430WAT     H1 4532   3.589   4.914   2.343
 1430WAT     H2 4533   3.447   4.894   2.264
 1431WAT      O 4534   6.489   7.344   9.421
 1431WAT     H1 4535   6.508   7.413   9.491
 1431WAT     H2 4536   6.390   7.332   9.412
 1432WAT      O 4537   4.221   8.523   4.237
 1432WAT     H1 4538   4.284   8.522   4.314
 1432WAT     H2 4539   4.201   8.429   4.210
 1433WAT      O 4540   5.181   3.147   1.293
 1433WAT     H1 4541   5.119   3.079   1.255
 1433WAT     H2 4542   5.270   3.106   1.311
 1434WAT      O 4543   6.132   5.877   1.294
 1434WAT     H1 4544   6.207   5.890   1.230
 1434WAT     H2 4545   6.149   5.930   1.377
 1435WAT      O 4546   5.615   7.427   3.207
 1435WAT     H1 4547   5.671   7.373   3.145
 1435WAT     H2 4548   5.519   7.400   3.198
 1436WAT      O 4549   3.551   6.649   7.540
 1436WAT     H1 4550   3.543   6.660   7.441
 1436WAT     H2 4551   3.616   6.576   7.560
 1437WAT      O 4552   2.401   5.863   5.872
 1437WAT     H1 4553   2.378   5.907   5.786
 1437WAT     H2 4554   2.475   5.797   5.858
 1438WAT      O 4555   7.668   2.924   9.152
 1438WAT     H1 4556   7.750   2.982   9.156
 1438WAT     H2 4557   7.648   2.889   9.244
 1439WAT      O 4558   1.421   2.319   5.612
 1439WAT     H1 4559   1.380   2.408   5.632
 1439WAT     H2 4560   1.494   2.331   5.545
 1440WAT      O 4561   5.136   8.343   3.004
 1440WAT     H1 4562   5.111   8.267   2.944
 1440WAT     H2 4563   5.054   8.387   3.038
 1441WAT      O 4564   6.378   1.313   5.222
 1441WAT     H1 4565   6.320   1.233   5.242
 1441WAT     H2 4566   6.335   1.395   5.261
 1442WAT      O 4567   2.513   6.592   8.261
 1442WAT     H1 4568   2.521   6.570   8.164
 1442WAT     H2 4569   2.465   6.679   8.272
 1443WAT      O 4570   9.159   4.873   0.857
 1443WAT     H1 4571   9.076   4.927   0.842
 1443WAT     H2 4572   9.231   4.905   0.796
 1444WAT      O 4573   2.480   8.789   7.810
 1444WAT     H1 4574   2.534   8.776   7.727
 1444WAT     H2 4575   2.383   8.776   7.788
 1445WAT      O 4576   6.824   2.172   0.824
 1445WAT     H1 4577   6.859   2.241   0.761
 1445WAT     H2 4578   6.825   2.082   0.779
 1446WAT      O 4579   9.059   1.370   0.255
 1446WAT     H1 4580   9.039   1.402   0.348
 1446WAT     H2 4581   9.122   1.434   0.211
 1447WAT      O 4582   8.592   2.522   8.859
 1447WAT     H1 4583   8.557   2.608   8.823
 1447WAT     H2 4584   8.613   2.460   8.784
 1448WAT      O 4585   9.855   3.971   4.539
 1448WAT     H1 4586   9.881   3.881   4.574
 1448WAT     H2 4587   9.792   4.015   4.604
 1449WAT      O 4588   4.563   9.152   8.414
 1449WAT     H1 4589   4.621   9.074   8.438
 1449WAT     H2 4590   4.600   9.197   8.333
 1450WAT      O 4591   7.987   1.656   5.278
 1450WAT     H1 4592   7.900   1.700   5.256
 1450WAT     H2 4593   8.041   1.716   5.337
 1451WAT      O 4594   4.148   6.741   5.958
 1451WAT     H1 4595   4.233   6.790   5.977
 1451WAT     H2 4596   4.161   6.681   5.879
 1452WAT      O 4597   4.801   7.351   2.077
 1452WAT     H1 4598   4.865   7.317   2.146
 1452WAT     H2 4599   4.852   7.394   2.002
 1453WAT      O 4600   6.116   0.123   5.857
 1453WAT     H1 4601   6.194   0.103   5.797
 1453WAT     H2 4602   6.109   0.222   5.871
 1454WAT      O 4603   7.550   7.602   7.438
 1454WAT     H1 4604   7.455   7.586   7.412
 1454WAT     H2 4605   7.554   7.631   7.534
 1455WAT      O 4606   5.213   8.397   4.537
 1455WAT     H1 4607   5.215   8.419   4.439
 1455WAT     H2 4608   5.179   8.476   4.588
 1456WAT      O 4609   3.269   5.101   5.609
 1456WAT     H1 4610   3.368   5.092   5.618
 1456WAT     H2 4611   3.246   5.135   5.518
 1457WAT      O 4612   1.319   1.866   4.259
 1457WAT     H1 4613   1.361   1.956   4.272
 1457WAT     H2 4614   1.304   1.823   4.348
 1458WAT      O 4615   7.393   0.602   4.292
 1458WAT     H1 4616   7.466   0.587   4.226
 1458WAT     H2 4617   7.362   0.696   4.287
 1459WAT      O 4618   6.657   4.551   4.225
 1459WAT     H1 4619   6.612   4.616   4.163
 1459WAT     H2 4620   6.590   4.484   4.257
 1460WAT      O 4621   7.890   6.060   9.406
 1460WAT     H1 4622   7.951   6.049   9.327
 1460WAT     H2 4623   7.937   6.113   9.477
 1461WAT      O 4624   9.884   2.404   2.391
 1461WAT     H1 4625   9.905   2.358   2.305
 1461WAT     H2 4626   9.946   2.482   2.402
 1462WAT      O 4627   3.918   3.368   4.735
 1462WAT     H1 4628   3.909   3.438   4.664
 1462WAT     H2 4629   4.008   3.375   4.778
 1463WAT      O 4630   4.302   1.385   4.585
 1463WAT     H1 4631   4.325   1.474   4.623
 1463WAT     H2 4632   4.385   1.330   4.575
 1464WAT      O 4633   4.540   4.546   8.906
 1464WAT     H1 4634   4.500   4.633   8.877
 1464WAT     H2 4635   4.535   4.481   8.830
 1465WAT      O 4636   4.395   4.980   9.672
 1465WAT     H1 4637   4.347   4.962   9.758
 1465WAT     H2 4638   4.476   5.037   9.690
 1466WAT      O 4639   7.244   0.021   2.477
 1466WAT     H1 4640   7.153   0.036   2.438
 1466WAT     H2 4641   7.311   0.016   2.403
 1467WAT      O 4642   3.358   5.002   3.822
 1467WAT     H1 4643   3.341   4.937   3.748
 1467WAT     H2 4644   3.299   4.979   3.900
 1468WAT      O 4645   7.082   3.583   2.537
 1468WAT     H1 4646   7.166   3.580   2.483
 1468WAT     H2 4647   7.024   3.506   2.512
 1469WAT      O 4648   4.993   1.021   2.743
 1469WAT     H1 4649   5.025   1.056   2.655
 1469WAT     H2 4650   4.943   0.936   2.730
 1470WAT      O 4651   5.192   8.817   0.725
 1470WAT     H1 4652   5.143   8.893   0.768
 1470WAT     H2 4653   5.230   8.758   0.797
 1471WAT      O 4654   6.619   4.284   6.875
 1471WAT     H1 4655   6.658   4.368   6.836
 1471WAT     H2 4656   6.568   4.235   6.804
 1472WAT      O 4657   5.100   8.044   8.907
 1472WAT     H1 4658   5.198   8.021   8.903
 1472WAT     H2 4659   5.063   8.017   8.996
 1473WAT      O 4660   3.618   0.882   1.039
 1473WAT     H1 4661   3.558   0.894   1.118
 1473WAT     H2 4662   3.607   0.789   1.002
 1474WAT      O 4663   4.021   3.744   3.490
 1474WAT     H1 4664   4.042   3.695   3.575
 1474WAT     H2 4665   4.089   3.721   3.420
 1475WAT      O 4666   0.871  -0.001   8.421
 1475WAT     H1 4667   0.875   0.073   8.488
 1475WAT     H2 4668   0.809   0.025   8.346
 1476WAT      O 4669   5.786   8.565   4.649
 1476WAT     H1 4670   5.786   8.537   4.553
 1476WAT     H2 4671   5.693   8.569   4.684
 1477WAT      O 4672   8.974   5.448   6.606
 1477WAT     H1 4673   8.997   5.545   6.598
 1477WAT     H2 4674   8.875   5.438   6.609
 1478WAT      O 4675   9.231   0.295   5.043
 1478WAT     H1 4676   9.233   0.256   5.135
 1478WAT     H2 4677   9.200   0.227   4.977
 1479WAT      O 4678   9.733   0.356   6.714
 1479WAT     H1 4679   9.790   0.416   6.770
 1479WAT     H2 4680   9.713   0.401   6.627
 1480WAT      O 4681   0.664   7.535   6.749
 1480WAT     H1 4682   0.712   7.447   6.740
 1480WAT     H2 4683   0.568   7.523   6.727
 1481WAT      O 4684   7.599   6.013   6.384
 1481WAT     H1 4685   7.698   6.023   6.374
 1481WAT     H2 4686   7.556   6.010   6.294
 1482WAT      O 4687   1.449   0.357   1.288
 1482WAT     H1 4688   1.519   0.288   1.309
 1482WAT     H2 4689   1.363   0.331   1.331
 1483WAT      O 4690   6.046   2.479   3.053
 1483WAT     H1 4691   5.976   2.545   3.082
 1483WAT     H2 4692   6.004   2.390   3.036
 1484WAT      O 4693   7.717   0.809   0.424
 1484WAT     H1 4694   7.663   0.729   0.447
 1484WAT     H2 4695   7.800   0.810   0.479
 1485WAT      O 4696   1.938   2.903   3.453
 1485WAT     H1 4697   1.914   2.866   3.364
 1485WAT     H2 4698   1.889   2.853   3.525
 1486WAT      O 4699   3.038   8.688   7.757
 1486WAT     H1 4700   3.031   8.722   7.663
 1486WAT     H2 4701   2.965   8.623   7.774
 1487WAT      O 4702   4.532   3.265   3.727
 1487WAT     H1 4703   4.559   3.360   3.714
 1487WAT     H2 4704   4.441   3.261   3.768
 1488WAT      O 4705   7.916   3.559   0.990
 1488WAT     H1 4706   7.942   3.518   1.077
 1488WAT     H2 4707   7.989   3.619   0.957
 1489WAT      O 4708   1.844   3.087   0.452
 1489WAT     H1 4709   1.761   3.037   0.477
 1489WAT     H2 4710   1.913   3.076   0.524
 1490WAT      O 4711   6.208   4.522   2.973
 1490WAT     H1 4712   6.120   4.545   3.015
 1490WAT     H2 4713   6.201   4.435   2.925
 1491WAT      O 4714   3.993   0.053   2.759
 1491WAT     H1 4715   3.966  -0.011   2.687
 1491WAT     H2 4716   3.990   0.007   2.848
 1492WAT      O 4717   8.849   8.041   5.570
 1492WAT     H1 4718   8.836   7.951   5.612
 1492WAT     H2 4719   8.760   8.082   5.551
 1493WAT      O 4720   3.262   5.892   8.669
 1493WAT     H1 4721   3.167   5.906   8.697
 1493WAT     H2 4722   3.322   5.912   8.746
 1494WAT      O 4723   6.933   9.270   4.580
 1494WAT     H1 4724   6.924   9.323   4.664
 1494WAT     H2 4725   6.877   9.311   4.508
 1495WAT      O 4726   3.373   1.280   9.673
 1495WAT     H1 4727   3.324   1.254   9.756
 1495WAT     H2 4728   3.310   1.278   9.595
 1496WAT      O 4729   7.240   6.368   1.623
 1496WAT     H1 4730   7.339   6.380   1.629
 1496WAT     H2 4731   7.202   6.432   1.556
 1497WAT      O 4732   3.068   4.283   6.187
 1497WAT     H1 4733   3.080   4.379   6.212
 1497WAT     H2 4734   2.987   4.247   6.233
 1498WAT      O 4735   2.410   8.466   3.508
 1498WAT     H1 4736   2.444   8.377   3.536
 1498WAT     H2 4737   2.325   8.487   3.556
 1499WAT      O 4738   7.002   0.737   2.416
 1499WAT     H1 4739   7.084   0.691   2.383
 1499WAT     H2 4740   7.026   0.827   2.451
 1500WAT      O 4741   6.869   2.162   3.952
 1500WAT     H1 4742   6.806   2.155   3.875
 1500WAT     H2 4743   6.904   2.256   3.959
 1501WAT      O 4744   3.320   4.958   6.989
 1501WAT     H1 4745   3.255   4.894   7.029
 1501WAT     H2 4746   3.375   4.911   6.920
 1502WAT      O 4747   0.783   1.406   5.040
 1502WAT     H1 4748   0.695   1.410   4.994
 1502WAT     H2 4749   0.770   1.375   5.135
 1503WAT      O 4750   4.975   6.667   6.673
 1503WAT     H1 4751   4.988   6.571   6.648
 1503WAT     H2 4752   4.891   6.675   6.728
 1504WAT      O 4753   6.008   1.570   0.839
 1504WAT     H1 4754   6.093   1.588   0.791
 1504WAT     H2 4755   5.957   1.655   0.851
 1505WAT      O 4756   1.793   2.755   2.193
 1505WAT     H1 4757   1.862   2.793   2.131
 1505WAT     H2 4758   1.737   2.829   2.231
 1506WAT      O 4759   4.800   0.588   6.236
 1506WAT     H1 4760   4.842   0.526   6.302
 1506WAT     H2 4761   4.769   0.536   6.156
 1507WAT      O 4762   5.066   6.553   7.687
 1507WAT     H1 4763   5.039   6.458   7.707
 1507WAT     H2 4764   5.054   6.571   7.590
 1508WAT      O 4765   6.853   7.207   6.008
 1508WAT     H1 4766   6.859   7.125   5.951
 1508WAT     H2 4767   6.897   7.190   6.096
 1509WAT      O 4768   1.253   2.190   6.797
 1509WAT     H1 4769   1.169   2.211   6.747
 1509WAT     H2 4770   1.231   2.154   6.887
 1510WAT      O 4771   8.991   7.227   9.410
 1510WAT     H1 4772   9.015   7.131   9.430
 1510WAT     H2 4773   9.009   7.247   9.314
 1511WAT      O 4774   7.301   2.989   7.568
 1511WAT     H1 4775   7.240   2.994   7.647
 1511WAT     H2 4776   7.312   3.080   7.528
 1512WAT      O 4777   2.531   4.413   0.191
 1512WAT     H1 4778   2.485   4.329   0.220
 1512WAT     H2 4779   2.557   4.406   0.095
 1513WAT      O 4780   6.551   8.355   7.484
 1513WAT     H1 4781   6.515   8.440   7.446
 1513WAT     H2 4782   6.625   8.322   7.426
 1514WAT      O 4783   9.684   9.246   2.442
 1514WAT     H1 4784   9.770   9.228   2.394
 1514WAT     H2 4785   9.623   9.298   2.383
 1515WAT      O 4786   2.655   9.793   2.919
 1515WAT     H1 4787   2.709   9.802   3.003
 1515WAT     H2 4788   2.649   9.882   2.873
 1516WAT      O 4789   7.872   8.347   6.020
 1516WAT     H1 4790   7.776   8.368   6.000
 1516WAT     H2 4791   7.878   8.255   6.058
 1517WAT      O 4792   9.148   2.003   1.724
 1517WAT     H1 4793   9.245   1.996   1.746
 1517WAT     H2 4794   9.108   1.912   1.718
 1518WAT      O 4795   6.499   1.133   0.404
 1518WAT     H1 4796   6.442   1.211   0.378
 1518WAT     H2 4797   6.575   1.124   0.340
 1519WAT      O 4798   4.187   8.407   3.018
 1519WAT     H1 4799   4.112   8.356   2.976
 1519WAT     H2 4800   4.237   8.457   2.947
 1520WAT      O 4801   7.365   3.669   5.077
 1520WAT     H1 4802   7.378   3.716   4.990
 1520WAT     H2 4803   7.449   3.675   5.131
 1521WAT      O 4804   8.048   7.781   7.620
 1521WAT     H1 4805   8.045   7.742   7.712
 1521WAT     H2 4806   7.957   7.817   7.596
 1522WAT      O 4807   3.047   9.013   1.268
 1522WAT     H1 4808   3.114   9.080   1.300
 1522WAT     H2 4809   3.095   8.933   1.230
 1523WAT      O 4810   1.214   2.734   6.274
 1523WAT     H1 4811   1.300   2.698   6.312
 1523WAT     H2 4812   1.170   2.793   6.342
 1524WAT      O 4813   5.292   3.657   3.075
 1524WAT     H1 4814   5.207   3.613   3.047
 1524WAT     H2 4815   5.359   3.650   3.001
 1525WAT      O 4816   6.915   3.199   2.660
 1525WAT     H1 4817   6.899   3.107   2.625
 1525WAT     H2 4818   6.955   3.256   2.587
 1526WAT      O 4819   3.016   7.723   0.983
 1526WAT     H1 4820   2.937   7.722   0.921
 1526WAT     H2 4821   3.069   7.639   0.971
 1527WAT      O 4822   5.811   4.079   4.766
 1527WAT     H1 4823   5.903   4.040   4.780
 1527WAT     H2 4824   5.785   4.068   4.670
 1528WAT      O 4825   7.449   5.714   3.605
 1528WAT     H1 4826   7.437   5.799   3.655
 1528WAT     H2 4827   7.466   5.639   3.670
 1529WAT      O 4828   8.134   9.493   9.695
 1529WAT     H1 4829   8.149   9.411   9.749
 1529WAT     H2 4830   8.132   9.573   9.755
 1530WAT      O 4831   3.491   3.214   7.436
 1530WAT     H1 4832   3.498   3.307   7.472
 1530WAT     H2 4833   3.540   3.151   7.496
 1531WAT      O 4834   5.099   0.861   2.171
 1531WAT     H1 4835   5.094   0.805   2.088
 1531WAT     H2 4836   5.131   0.804   2.247
 1532WAT      O 4837   5.860   7.026   9.034
 1532WAT     H1 4838   5.894   7.115   9.004
 1532WAT     H2 4839   5.934   6.974   9.076
 1533WAT      O 4840   7.628   4.953   3.201
 1533WAT     H1 4841   7.591   4.978   3.291
 1533WAT     H2 4842   7.618   4.855   3.186
 1534WAT      O 4843   6.395   4.812   1.768
 1534WAT     H1 4844   6.372   4.748   1.842
 1534WAT     H2 4845   6.494   4.821   1.760
 1535WAT      O 4846   9.086   9.633   8.538
 1535WAT     H1 4847   9.161   9.698   8.551
 1535WAT     H2 4848   9.056   9.597   8.626
 1536WAT      O 4849   4.862   2.134   7.088
 1536WAT     H1 4850   4.913   2.056   7.125
 1536WAT     H2 4851   4.832   2.192   7.163
 1537WAT      O 4852   0.296   0.382   9.862
 1537WAT     H1 4853   0.340   0.313   9.919
 1537WAT     H2 4854   0.295   0.469   9.910
 1538WAT      O 4855   0.536   9.042   8.964
 1538WAT     H1 4856   0.620   9.077   9.005
 1538WAT     H2 4857   0.477   9.004   9.035
 1539WAT      O 4858   4.607   6.400   4.199
 1539WAT     H1 4859   4.577   6.480   4.251
 1539WAT     H2 4860   4.601   6.419   4.101
 1540WAT      O 4861   0.137   5.069   4.584
 1540WAT     H1 4862   0.178   5.000   4.524
 1540WAT     H2 4863   0.057   5.109   4.540
 1541WAT      O 4864   3.505   1.922   9.817
 1541WAT     H1 4865   3.457   1.837   9.838
 1541WAT     H2 4866   3.472   1.995   9.877
 1542WAT      O 4867   5.795   0.451   9.353
 1542WAT     H1 4868   5.827   0.375   9.298
 1542WAT     H2 4869   5.763   0.418   9.442
 1543WAT      O 4870   9.537   3.395   9.858
 1543WAT     H1 4871   9.616   3.376   9.800
 1543WAT     H2 4872   9.456   3.352   9.818
 1544WAT      O 4873   7.491   9.832   2.382
 1544WAT     H1 4874   7.542   9.779   2.449
 1544WAT     H2 4875   7.554   9.892   2.332
 1545WAT      O 4876   3.641   4.297   6.736
 1545WAT     H1 4877   3.671   4.337   6.822
 1545WAT     H2 4878   3.583   4.217   6.754
 1546WAT      O 4879   4.434   1.610   9.274
 1546WAT     H1 4880   4.383   1.632   9.191
 1546WAT     H2 4881   4.446   1.511   9.281
 1547WAT      O 4882   1.738   9.590   9.438
 1547WAT     H1 4883   1.676   9.512   9.429
 1547WAT     H2 4884   1.832   9.561   9.420
 1548WAT      O 4885   2.151   3.598   7.635
 1548WAT     H1 4886   2.074   3.606   7.698
 1548WAT     H2 4887   2.200   3.685   7.631
 1549WAT      O 4888   4.463   7.304   5.923
 1549WAT     H1 4889   4.518   7.386   5.942
 1549WAT     H2 4890   4.467   7.284   5.825
 1550WAT      O 4891   8.072   9.392   8.686
 1550WAT     H1 4892   8.023   9.461   8.739
 1550WAT     H2 4893   8.012   9.314   8.668
 1551WAT      O 4894   2.849   9.046   3.955
 1551WAT     H1 4895   2.757   9.011   3.976
 1551WAT     H2 4896   2.882   9.003   3.871
 1552WAT      O 4897   0.274   2.789   6.234
 1552WAT     H1 4898   0.280   2.723   6.309
 1552WAT     H2 4899   0.312   2.749   6.151
 1553WAT      O 4900   5.377   1.970   6.902
 1553WAT     H1 4901   5.282   2.001   6.901
 1553WAT     H2 4902   5.381   1.876   6.936
 1554WAT      O 4903   1.621   5.506   3.740
 1554WAT     H1 4904   1.597   5.601   3.719
 1554WAT     H2 4905   1.638   5.456   3.655
 1555WAT      O 4906   5.095   0.914   9.372
 1555WAT     H1 4907   5.174   0.901   9.433
 1555WAT     H2 4908   5.023   0.963   9.420
 1556WAT      O 4909   6.295   0.975   0.534
 1556WAT     H1 4910   6.311   0.958   0.437
 1556WAT     H2 4911   6.382   0.976   0.583
 1557WAT      O 4912   6.732   3.082   5.947
 1557WAT     H1 4913   6.634   3.063   5.937
 1557WAT     H2 4914   6.785   3.016   5.894
 1558WAT      O 4915   8.628   9.054   1.505
 1558WAT     H1 4916   8.717   9.044   1.460
 1558WAT     H2 4917   8.579   9.132   1.465
 1559WAT      O 4918   7.396   7.978   6.830
 1559WAT     H1 4919   7.333   7.938   6.897
 1559WAT     H2 4920   7.400   8.077   6.843
 1560WAT      O 4921   4.774   4.888   6.311
 1560WAT     H1 4922   4.871   4.867   6.300
 1560WAT     H2 4923   4.734   4.823   6.376
 1561WAT      O 4924   7.993   9.053   0.394
 1561WAT     H1 4925   7.976   8.964   0.436
 1561WAT     H2 4926   7.909   9.088   0.353
 1562WAT      O 4927   3.297   4.039   3.354
 1562WAT     H1 4928   3.284   3.942   3.371
 1562WAT     H2 4929   3.370   4.052   3.287
 1563WAT      O 4930   8.912   8.852   5.248
 1563WAT     H1 4931   8.837   8.787   5.260
 1563WAT     H2 4932   8.925   8.870   5.150
 1564WAT      O 4933   2.504   9.056   5.465
 1564WAT     H1 4934   2.448   8.981   5.498
 1564WAT     H2 4935   2.451   9.141   5.466
 1565WAT      O 4936   5.750   4.381   8.867
 1565WAT     H1 4937   5.764   4.478   8.885
 1565WAT     H2 4938   5.678   4.347   8.928
 1566WAT      O 4939   5.360   5.409   8.605
 1566WAT     H1 4940   5.279   5.401   8.548
 1566WAT     H2 4941   5.404   5.320   8.614
 1567WAT      O 4942   7.014   3.337   9.549
 1567WAT     H1 4943   7.110   3.307   9.548
 1567WAT     H2 4944   7.006   3.420   9.604
 1568WAT      O 4945   8.068   1.246   0.689
 1568WAT     H1 4946   8.060   1.263   0.787
 1568WAT     H2 4947   8.032   1.155   0.667
 1569WAT      O 4948   2.340   3.489   2.399
 1569WAT     H1 4949   2.254   3.539   2.391
 1569WAT     H2 4950   2.341   3.414   2.333
 1570WAT      O 4951   1.711   9.621   0.392
 1570WAT     H1 4952   1.791   9.577   0.352
 1570WAT     H2 4953   1.690   9.705   0.342
 1571WAT      O 4954   1.286   5.024   1.508
 1571WAT     H1 4955   1.255   4.929   1.498
 1571WAT     H2 4956   1.290   5.046   1.605
 1572WAT      O 4957   9.261   0.706   0.978
 1572WAT     H1 4958   9.310   0.722   1.063
 1572WAT     H2 4959   9.318   0.653   0.916
 1573WAT      O 4960   1.712   9.206   3.600
 1573WAT     H1 4961   1.746   9.135   3.538
 1573WAT     H2 4962   1.786   9.270   3.621
 1574WAT      O 4963   3.653   8.206   7.944
 1574WAT     H1 4964   3.659   8.193   8.043
 1574WAT     H2 4965   3.559   8.228   7.919
 1575WAT      O 4966   9.158   9.313   7.401
 1575WAT     H1 4967   9.189   9.393   7.348
 1575WAT     H2 4968   9.175   9.230   7.348
 1576WAT      O 4969   9.749   4.688   1.000
 1576WAT     H1 4970   9.839   4.730   1.003
 1576WAT     H2 4971   9.757   4.590   1.016
 1577WAT      O 4972   7.123   6.523   2.394
 1577WAT     H1 4973   7.156   6.600   2.449
 1577WAT     H2 4974   7.176   6.441   2.416
 1578WAT      O 4975   8.385   7.541   7.239
 1578WAT     H1 4976   8.408   7.588   7.325
 1578WAT     H2 4977   8.468   7.506   7.197
 1579WAT      O 4978   7.547   5.845   8.740
 1579WAT     H1 4979   7.580   5.752   8.721
 1579WAT     H2 4980   7.587   5.909   8.674
 1580WAT      O 4981   1.720   1.231   6.034
 1580WAT     H1 4982   1.697   1.289   6.112
 1580WAT     H2 4983   1.784   1.279   5.975
 1581WAT      O 4984   4.546   2.927   3.679
 1581WAT     H1 4985   4.556   2.984   3.598
 1581WAT     H2 4986   4.548   2.985   3.761
 1582WAT      O 4987   7.764   1.722   6.156
 1582WAT     H1 4988   7.667   1.732   6.136
 1582WAT     H2 4989   7.793   1.628   6.135
 1583WAT      O 4990   9.433   4.970   4.660
 1583WAT     H1 4991   9.463   4.911   4.585
 1583WAT     H2 4992   9.513   5.002   4.711
 1584WAT      O 4993   7.339   5.814   1.589
 1584WAT     H1 4994   7.319   5.781   1.681
 1584WAT     H2 4995   7.267   5.876   1.559
 1585WAT      O 4996   6.413   5.864   0.232
 1585WAT     H1 4997   6.449   5.808   0.307
 1585WAT     H2 4998   6.476   5.859   0.155
 1586WAT      O 4999   6.841   5.588   2.018
 1586WAT     H1 5000   6.924   5.563   2.068
 1586WAT     H2 5001   6.836   5.535   1.933
 1587WAT      O 5002   7.439   0.972   5.836
 1587WAT     H1 5003   7.534   0.989   5.811
 1587WAT     H2 5004   7.413   1.033   5.911
 1588WAT      O 5005   1.549   8.463   7.460
 1588WAT     H1 5006   1.553   8.448   7.558
 1588WAT     H2 5007   1.625   8.523   7.432
 1589WAT      O 5008   5.105   3.798   5.168
 1589WAT     H1 5009   5.136   3.874   5.224
 1589WAT     H2 5010   5.034   3.830   5.105
 1590WAT      O 5011   2.551   8.082   8.810
 1590WAT     H1 5012   2.518   8.148   8.877
 1590WAT     H2 5013   2.641   8.110   8.777
 1591WAT      O 5014   0.899   1.371   0.444
 1591WAT     H1 5015   0.993   1.340   0.428
 1591WAT     H2 5016   0.898   1.469   0.460
 1592WAT      O 5017   3.772   8.378   0.714
 1592WAT     H1 5018   3.861   8.362   0.671
 1592WAT     H2 5019   3.774   8.464   0.764
 1593WAT      O 5020   3.882   5.678   3.364
 1593WAT     H1 5021   3.867   5.660   3.266
 1593WAT     H2 5022   3.960   5.624   3.396
 1594WAT      O 5023   5.598   5.212   1.140
 1594WAT     H1 5024   5.546   5.286   1.182
 1594WAT     H2 5025   5.617   5.140   1.207
 1595WAT      O 5026   0.435   7.473   8.261
 1595WAT     H1 5027   0.351   7.440   8.305
 1595WAT     H2 5028   0.411   7.522   8.178
 1596WAT      O 5029   0.174   0.662   6.264
 1596WAT     H1 5030   0.156   0.740   6.324
 1596WAT     H2 5031   0.123   0.674   6.178
 1597WAT      O 5032   6.068   1.909   1.957
 1597WAT     H1 5033   6.046   1.996   2.002
 1597WAT     H2 5034   6.115   1.849   2.022
 1598WAT      O 5035   3.574   4.135   4.853
 1598WAT     H1 5036   3.527   4.213   4.895
 1598WAT     H2 5037   3.546   4.126   4.758
 1599WAT      O 5038   1.148   3.509   8.791
 1599WAT     H1 5039   1.092   3.462   8.722
 1599WAT     H2 5040   1.244   3.506   8.764
 1600WAT      O 5041   6.926   5.773   2.415
 1600WAT     H1 5042   6.954   5.855   2.465
 1600WAT     H2 5043   7.005   5.735   2.367
 1601WAT      O 5044   4.347   1.741   9.040
 1601WAT     H1 5045   4.407   1.718   8.963
 1601WAT     H2 5046   4.389   1.813   9.094
 1602WAT      O 5047   1.774   7.911   9.823
 1602WAT     H1 5048   1.833   7.840   9.784
 1602WAT     H2 5049   1.697   7.868   9.869
 1603WAT      O 5050   7.090   5.237   9.730
 1603WAT     H1 5051   7.161   5.301   9.699
 1603WAT     H2 5052   7.105   5.147   9.689
 1604WAT      O 5053   0.636   7.641   9.608
 1604WAT     H1 5054   0.561   7.696   9.645
 1604WAT     H2 5055   0.665   7.574   9.676
 1605WAT      O 5056   4.190   0.012   6.807
 1605WAT     H1 5057   4.155  -0.051   6.737
 1605WAT     H2 5058   4.170  -0.025   6.898
 1606WAT      O 5059   5.812   5.066   3.354
 1606WAT     H1 5060   5.860   4.986   3.390
 1606WAT     H2 5061   5.879   5.134   3.323
 1607WAT      O 5062   3.815   0.004   4.896
 1607WAT     H1 5063   3.742  -0.002   4.964
 1607WAT     H2 5064   3.775   0.020   4.805
 1608WAT      O 5065   6.355   2.393   6.481
 1608WAT     H1 5066   6.341   2.425   6.575
 1608WAT     H2 5067   6.295   2.316   6.463
 1609WAT      O 5068   8.881   1.539   9.226
 1609WAT     H1 5069   8.980   1.554   9.233
 1609WAT     H2 5070   8.855   1.465   9.287
 1610WAT      O 5071   1.516   5.584   6.143
 1610WAT     H1 5072   1.482   5.519   6.074
 1610WAT     H2 5073   1.493   5.677   6.114
 1611WAT      O 5074   9.538   3.895   0.108
 1611WAT     H1 5075   9.501   3.820   0.052
 1611WAT     H2 5076   9.534   3.869   0.204
 1612WAT      O 5077   3.650   0.604   7.149
 1612WAT     H1 5078   3.746   0.632   7.159
 1612WAT     H2 5079   3.594   0.659   7.212
 1613WAT      O 5080   7.168   9.226   6.704
 1613WAT     H1 5081   7.092   9.210   6.767
 1613WAT     H2 5082   7.179   9.324   6.689
 1614WAT      O 5083   7.853   0.912   4.963
 1614WAT     H1 5084   7.882   0.986   5.023
 1614WAT     H2 5085   7.931   0.854   4.940
 1615WAT      O 5086   1.211   8.745   2.045
 1615WAT     H1 5087   1.215   8.701   1.955
 1615WAT     H2 5088   1.208   8.844   2.032
 1616WAT      O 5089   8.234   1.141   4.263
 1616WAT     H1 5090   8.277   1.054   4.289
 1616WAT     H2 5091   8.223   1.198   4.344
 1617WAT      O 5092   8.242   1.523   9.193
 1617WAT     H1 5093   8.301   1.497   9.116
 1617WAT     H2 5094   8.158   1.564   9.158
 1618WAT      O 5095   5.998   5.284   6.939
 1618WAT     H1 5096   6.026   5.365   6.888
 1618WAT     H2 5097   6.079   5.237   6.974
 1619WAT      O 5098   0.926   3.925   8.436
 1619WAT     H1 5099   0.936   3.826   8.424
 1619WAT     H2 5100   0.841   3.955   8.392
 1620WAT      O 5101   0.703   6.784   5.705
 1620WAT     H1 5102   0.737   6.838   5.781
 1620WAT     H2 5103   0.603   6.781   5.709
 1621WAT      O 5104   5.705   5.111   8.829
 1621WAT     H1 5105   5.723   5.199   8.784
 1621WAT     H2 5106   5.751   5.038   8.779
 1622WAT      O 5107   6.656   0.008   3.194
 1622WAT     H1 5108   6.612   0.005   3.284
 1622WAT     H2 5109   6.652   0.101   3.158
 1623WAT      O 5110   6.273   4.029   5.960
 1623WAT     H1 5111   6.297   4.059   6.053
 1623WAT     H2 5112   6.199   4.086   5.925
 1624WAT      O 5113   2.254   0.262   2.939
 1624WAT     H1 5114   2.323   0.309   2.994
 1624WAT     H2 5115   2.283   0.262   2.843
 1625WAT      O 5116   0.671   6.796   3.661
 1625WAT     H1 5117   0.577   6.801   3.693
 1625WAT     H2 5118   0.734   6.808   3.738
 1626WAT      O 5119   2.950   0.077   8.386
 1626WAT     H1 5120   2.933   0.073   8.288
 1626WAT     H2 5121   2.901   0.002   8.431
 1627WAT      O 5122   7.005   1.575   0.404
 1627WAT     H1 5123   7.027   1.570   0.501
 1627WAT     H2 5124   7.037   1.492   0.358
 1628WAT      O 5125   6.938   4.394   0.097
 1628WAT     H1 5126   6.929   4.480   0.046
 1628WAT     H2 5127   6.939   4.318   0.033
 1629WAT      O 5128   0.129   4.022   3.792
 1629WAT     H1 5129   0.110   4.112   3.753
 1629WAT     H2 5130   0.212   4.026   3.847
 1630WAT      O 5131   8.437   7.283   9.535
 1630WAT     H1 5132   8.461   7.246   9.445
 1630WAT     H2 5133   8.343   7.259   9.557
 1631WAT      O 5134   8.937   4.083   8.636
 1631WAT     H1 5135   8.906   4.024   8.711
 1631WAT     H2 5136   8.969   4.026   8.560
 1632WAT      O 5137   4.348   3.268   9.675
 1632WAT     H1 5138   4.339   3.364   9.704
 1632WAT     H2 5139   4.287   3.252   9.597
 1633WAT      O 5140   1.525   1.147   0.489
 1633WAT     H1 5141   1.624   1.140   0.497
 1633WAT     H2 5142   1.500   1.148   0.392
 1634WAT      O 5143   8.395   3.129   3.525
 1634WAT     H1 5144   8.471   3.194   3.534
 1634WAT     H2 5145   8.309   3.179   3.517
 1635WAT      O 5146   0.388   5.918   3.473
 1635WAT     H1 5147   0.385   5.985   3.548
 1635WAT     H2 5148   0.332   5.839   3.498
 1636WAT      O 5149   1.846   5.980   1.767
 1636WAT     H1 5150   1.928   5.952   1.717
 1636WAT     H2 5151   1.775   6.007   1.702
 1637WAT      O 5152   1.873   3.829   4.951
 1637WAT     H1 5153   1.853   3.921   4.986
 1637WAT     H2 5154   1.834   3.821   4.859
 1638WAT      O 5155   8.370   9.620   7.572
 1638WAT     H1 5156   8.461   9.581   7.580
 1638WAT     H2 5157   8.377   9.713   7.535
 1639WAT      O 5158   7.042   1.925   2.806
 1639WAT     H1 5159   7.049   1.898   2.902
 1639WAT     H2 5160   6.947   1.943   2.783
 1640WAT      O 5161   9.267   0.854   4.651
 1640WAT     H1 5162   9.235   0.759   4.646
 1640WAT     H2 5163   9.284   0.878   4.746
 1641WAT      O 5164   6.647   3.841   5.731
 1641WAT     H1 5165   6.609   3.901   5.660
 1641WAT     H2 5166   6.698   3.767   5.687
 1642WAT      O 5167   9.111   8.817   7.154
 1642WAT     H1 5168   9.192   8.768   7.184
 1642WAT     H2 5169   9.040   8.752   7.126
 1643WAT      O 5170   9.454   8.528   7.883
 1643WAT     H1 5171   9.506   8.510   7.967
 1643WAT     H2 5172   9.362   8.490   7.893
 1644WAT      O 5173   7.962   8.976   2.502
 1644WAT     H1 5174   7.876   9.026   2.510
 1644WAT     H2 5175   7.979   8.952   2.407
 1645WAT      O 5176   9.279   9.763   7.871
 1645WAT     H1 5177   9.325   9.678   7.894
 1645WAT     H2 5178   9.295   9.830   7.944
 1646WAT      O 5179   8.356   6.431   6.163
 1646WAT     H1 5180   8.333   6.469   6.074
 1646WAT     H2 5181   8.443   6.383   6.157
 1647WAT      O 5182   0.317   2.926   8.172
 1647WAT     H1 5183   0.407   2.945   8.210
 1647WAT     H2 5184   0.316   2.951   8.075
 1648WAT      O 5185   2.434   6.245   1.323
 1648WAT     H1 5186   2.397   6.327   1.280
 1648WAT     H2 5187   2.523   6.266   1.364
 1649WAT      O 5188   5.648   3.291   6.755
 1649WAT     H1 5189   5.554   3.269   6.728
 1649WAT     H2 5190   5.710   3.271   6.680
 1650WAT      O 5191   0.371   9.381   8.954
 1650WAT     H1 5192   0.316   9.391   8.871
 1650WAT     H2 5193   0.336   9.305   9.008
 1651WAT      O 5194   5.331   5.058   5.370
 1651WAT     H1 5195   5.239   5.095   5.381
 1651WAT     H2 5196   5.397   5.133   5.365
 1652WAT      O 5197   5.699   0.083   4.429
 1652WAT     H1 5198   5.752   0.018   4.375
 1652WAT     H2 5199   5.750   0.106   4.512
 1653WAT      O 5200   4.698   7.214   6.336
 1653WAT     H1 5201   4.741   7.299   6.368
 1653WAT     H2 5202   4.721   7.140   6.399
 1654WAT      O 5203   1.251   3.223   6.142
 1654WAT     H1 5204   1.158   3.257   6.148
 1654WAT     H2 5205   1.279   3.187   6.232
 1655WAT      O 5206   0.371   5.262   1.448
 1655WAT     H1 5207   0.310   5.223   1.518
 1655WAT     H2 5208   0.317   5.285   1.367
 1656WAT      O 5209   4.745   0.368   2.795
 1656WAT     H1 5210   4.760   0.453   2.845
 1656WAT     H2 5211   4.730   0.293   2.859
 1657WAT      O 5212   3.705   2.186   5.270
 1657WAT     H1 5213   3.649   2.149   5.344
 1657WAT     H2 5214   3.790   2.222   5.307
 1658WAT      O 5215   6.354   9.130   7.281
 1658WAT     H1 5216   6.396   9.091   7.363
 1658WAT     H2 5217   6.266   9.171   7.306
 1659WAT      O 5218   0.108   5.307   0.949
 1659WAT     H1 5219   0.120   5.387   0.891
 1659WAT     H2 5220   0.055   5.333   1.031
 1660WAT      O 5221   2.967   1.961   7.264
 1660WAT     H1 5222   3.029   1.963   7.342
 1660WAT     H2 5223   3.009   1.911   7.188
 1661WAT      O 5224   4.489   4.998   5.983
 1661WAT     H1 5225   4.560   5.013   5.913
 1661WAT     H2 5226   4.402   4.975   5.938
 1662WAT      O 5227   2.231   5.131   1.990
 1662WAT     H1 5228   2.160   5.061   1.995
 1662WAT     H2 5229   2.224   5.179   1.902
 1663WAT      O 5230   2.568   5.985   7.909
 1663WAT     H1 5231   2.516   6.047   7.969
 1663WAT     H2 5232   2.508   5.910   7.880
 1664WAT      O 5233   1.103   2.894   6.459
 1664WAT     H1 5234   1.072   2.981   6.422
 1664WAT     H2 5235   1.055   2.875   6.545
 1665WAT      O 5236   7.032   8.083   3.681
 1665WAT     H1 5237   6.978   8.080   3.765
 1665WAT     H2 5238   6.974   8.058   3.603
 1666WAT      O 5239   3.997   4.673   5.548
 1666WAT     H1 5240   4.013   4.720   5.461
 1666WAT     H2 5241   3.935   4.596   5.534
 1667WAT      O 5242   6.239   7.765   7.842
 1667WAT     H1 5243   6.144   7.738   7.830
 1667WAT     H2 5244   6.296   7.717   7.776
 1668WAT      O 5245   9.387   4.931   6.111
 1668WAT     H1 5246   9.445   4.937   6.030
 1668WAT     H2 5247   9.387   5.020   6.157
 1669WAT      O 5248   5.777   0.499   4.520
 1669WAT     H1 5249   5.722   0.518   4.439
 1669WAT     H2 5250   5.853   0.563   4.524
 1670WAT      O 5251   6.684   0.958   5.306
 1670WAT     H1 5252   6.592   0.921   5.293
 1670WAT     H2 5253   6.751   0.884   5.294
 1671WAT      O 5254   8.959   4.812   2.754
 1671WAT     H1 5255   8.886   4.756   2.794
 1671WAT     H2 5256   8.921   4.896   2.717
 1672WAT      O 5257   8.922   6.958   5.009
 1672WAT     H1 5258   8.860   7.031   4.981
 1672WAT     H2 5259   8.923   6.886   4.940
 1673WAT      O 5260   6.611   4.396   2.666
 1673WAT     H1 5261   6.617   4.468   2.597
 1673WAT     H2 5262   6.559   4.319   2.630
 1674WAT      O 5263   0.758   9.840   5.679
 1674WAT     H1 5264   0.800   9.773   5.740
 1674WAT     H2 5265   0.715   9.792   5.603
 1675WAT      O 5266   2.328   6.717   7.776
 1675WAT     H1 5267   2.328   6.653   7.853
 1675WAT     H2 5268   2.411   6.703   7.721
 1676WAT      O 5269   8.249   9.379   1.017
 1676WAT     H1 5270   8.184   9.402   1.089
 1676WAT     H2 5271   8.203   9.322   0.948
 1677WAT      O 5272   8.965   8.994   7.280
 1677WAT     H1 5273   9.011   9.016   7.366
 1677WAT     H2 5274   9.027   8.943   7.221
 1678WAT      O 5275   9.701   7.811   1.040
 1678WAT     H1 5276   9.743   7.892   1.080
 1678WAT     H2 5277   9.719   7.732   1.098
 1679WAT      O 5278   5.452   0.761   4.119
 1679WAT     H1 5279   5.514   0.795   4.048
 1679WAT     H2 5280   5.416   0.672   4.092
 1680WAT      O 5281   6.052   6.429   5.921
 1680WAT     H1 5282   6.063   6.512   5.867
 1680WAT     H2 5283   5.960   6.428   5.962
 1681WAT      O 5284   2.115   7.065   9.545
 1681WAT     H1 5285   2.153   6.987   9.596
 1681WAT     H2 5286   2.016   7.052   9.533
 1682WAT      O 5287   1.211   2.640   5.323
 1682WAT     H1 5288   1.260   2.713   5.371
 1682WAT     H2 5289   1.277   2.583   5.274
 1683WAT      O 5290   8.763   5.199   5.329
 1683WAT     H1 5291   8.761   5.223   5.426
 1683WAT     H2 5292   8.676   5.156   5.303
 1684WAT      O 5293   0.881   2.595   9.329
 1684WAT     H1 5294   0.940   2.530   9.377
 1684WAT     H2 5295   0.893   2.686   9.369
 1685WAT      O 5296   2.390   8.338   6.514
 1685WAT     H1 5297   2.451   8.398   6.462
 1685WAT     H2 5298   2.300   8.337   6.471
 1686WAT      O 5299   3.105   2.821   5.056
 1686WAT     H1 5300   3.107   2.800   5.154
 1686WAT     H2 5301   3.042   2.760   5.010
 1687WAT      O 5302   5.160   3.890   8.339
 1687WAT     H1 5303   5.238   3.878   8.277
 1687WAT     H2 5304   5.077   3.857   8.294
 1688WAT      O 5305   0.203   5.093   5.970
 1688WAT     H1 5306   0.237   5.014   6.020
 1688WAT     H2 5307   0.268   5.169   5.979
 1689WAT      O 5308   8.711   1.066   7.389
 1689WAT     H1 5309   8.615   1.037   7.380
 1689WAT     H2 5310   8.714   1.158   7.429
 1690WAT      O 5311   9.534   3.827   5.917
 1690WAT     H1 5312   9.462   3.874   5.866
 1690WAT     H2 5313   9.582   3.764   5.857
 1691WAT      O 5314   7.637   9.459   5.766
 1691WAT     H1 5315   7.691   9.495   5.841
 1691WAT     H2 5316   7.688   9.386   5.720
 1692WAT      O 5317   2.359   3.658   5.668
 1692WAT     H1 5318   2.432   3.607   5.622
 1692WAT     H2 5319   2.308   3.596   5.728
 1693WAT      O 5320   1.907   6.966   7.604
 1693WAT     H1 5321   1.840   6.902   7.568
 1693WAT     H2 5322   1.999   6.933   7.584
 1694WAT      O 5323   1.771   5.264   5.242
 1694WAT     H1 5324   1.868   5.280   5.262
 1694WAT     H2 5325   1.723   5.351   5.239
 1695WAT      O 5326   5.176   3.287   8.895
 1695WAT     H1 5327   5.136   3.376   8.915
 1695WAT     H2 5328   5.240   3.262   8.968
 1696WAT      O 5329   0.785   8.204   8.373
 1696WAT     H1 5330   0.700   8.157   8.396
 1696WAT     H2 5331   0.777   8.301   8.396
 1697WAT      O 5332   7.997   9.803   5.469
 1697WAT     H1 5333   7.916   9.801   5.527
 1697WAT     H2 5334   8.060   9.730   5.497
 1698WAT      O 5335   1.522   6.509   7.395
 1698WAT     H1 5336   1.491   6.581   7.456
 1698WAT     H2 5337   1.609   6.472   7.428
 1699WAT      O 5338   8.275   6.281   7.610
 1699WAT     H1 5339   8.186   6.297   7.568
 1699WAT     H2 5340   8.304   6.364   7.658
 1700WAT      O 5341   7.923   0.688   7.100
 1700WAT     H1 5342   7.866   0.770   7.109
 1700WAT     H2 5343   7.951   0.657   7.191
 1701WAT      O 5344   5.279   5.744   0.072
 1701WAT     H1 5345   5.287   5.828   0.125
 1701WAT     H2 5346   5.331   5.671   0.117
 1702WAT      O 5347   8.196   7.271   8.448
 1702WAT     H1 5348   8.112   7.260   8.502
 1702WAT     H2 5349   8.205   7.367   8.421
 1703WAT      O 5350   1.711   9.633   8.017
 1703WAT     H1 5351   1.659   9.548   8.018
 1703WAT     H2 5352   1.659   9.704   8.066
 1704WAT      O 5353   1.562   3.116   7.058
 1704WAT     H1 5354   1.619   3.034   7.068
 1704WAT     H2 5355   1.615   3.196   7.085
 1705WAT      O 5356   4.845   6.216   4.183
 1705WAT     H1 5357   4.888   6.162   4.256
 1705WAT     H2 5358   4.793   6.291   4.224
 1706WAT      O 5359   8.152   0.606   5.201
 1706WAT     H1 5360   8.124   0.630   5.293
 1706WAT     H2 5361   8.124   0.512   5.181
 1707WAT      O 5362   4.468   2.405   4.678
 1707WAT     H1 5363   4.522   2.346   4.738
 1707WAT     H2 5364   4.376   2.367   4.668
 1708WAT      O 5365   3.030   4.516   6.359
 1708WAT     H1 5366   2.939   4.543   6.326
 1708WAT     H2 5367   3.095   4.591   6.342
 1709WAT      O 5368   5.910   1.220   2.029
 1709WAT     H1 5369   5.903   1.300   1.969
 1709WAT     H2 5370   5.860   1.143   1.988
 1710WAT      O 5371   1.119   6.809   7.484
 1710WAT     H1 5372   1.175   6.837   7.562
 1710WAT     H2 5373   1.160   6.729   7.440
 1711WAT      O 5374   2.185   1.718   0.199
 1711WAT     H1 5375   2.188   1.807   0.153
 1711WAT     H2 5376   2.112   1.719   0.268
 1712WAT      O 5377   2.470   6.324   3.079
 1712WAT     H1 5378   2.532   6.250   3.107
 1712WAT     H2 5379   2.507   6.412   3.109
 1713WAT      O 5380   0.006   8.945   8.980
 1713WAT     H1 5381   0.021   9.007   9.057
 1713WAT     H2 5382   0.072   8.870   8.985
 1714WAT      O 5383   6.957   3.197   3.695
 1714WAT     H1 5384   6.926   3.265   3.761
 1714WAT     H2 5385   7.054   3.213   3.675
 1715WAT      O 5386   8.655   4.318   1.927
 1715WAT     H1 5387   8.584   4.358   1.985
 1715WAT     H2 5388   8.734   4.379   1.923
 1716WAT      O 5389   8.633   4.098   4.276
 1716WAT     H1 5390   8.704   4.100   4.347
 1716WAT     H2 5391   8.670   4.056   4.193
 1717WAT      O 5392   9.002   9.332   8.569
 1717WAT     H1 5393   9.073   9.387   8.524
 1717WAT     H2 5394   9.022   9.325   8.666
 1718WAT      O 5395   9.798   9.276   2.020
 1718WAT     H1 5396   9.833   9.244   2.109
 1718WAT     H2 5397   9.788   9.197   1.959
 1719WAT      O 5398   9.304   1.167   3.070
 1719WAT     H1 5399   9.369   1.132   3.003
 1719WAT     H2 5400   9.280   1.261   3.047
 1720WAT      O 5401   1.343   4.054   7.155
 1720WAT     H1 5402   1.297   4.023   7.239
 1720WAT     H2 5403   1.400   4.133   7.175
 1721WAT      O 5404   3.774   2.306   3.892
 1721WAT     H1 5405   3.806   2.336   3.982
 1721WAT     H2 5406   3.853   2.286   3.834
 1722WAT      O 5407   4.548   9.570   5.144
 1722WAT     H1 5408   4.640   9.586   5.179
 1722WAT     H2 5409   4.488   9.539   5.218
 1723WAT      O 5410   5.901   8.271   2.876
 1723WAT     H1 5411   5.975   8.258   2.809
 1723WAT     H2 5412   5.894   8.190   2.934
 1724WAT      O 5413   2.232   9.239   6.057
 1724WAT     H1 5414   2.285   9.160   6.088
 1724WAT     H2 5415   2.241   9.313   6.124
 1725WAT      O 5416   6.356   5.198   1.853
 1725WAT     H1 5417   6.449   5.210   1.819
 1725WAT     H2 5418   6.333   5.273   1.915
 1726WAT      O 5419   2.294   3.443   1.606
 1726WAT     H1 5420   2.209   3.422   1.559
 1726WAT     H2 5421   2.354   3.495   1.545
 1727WAT      O 5422   1.771   1.689   7.820
 1727WAT     H1 5423   1.698   1.623   7.805
 1727WAT     H2 5424   1.852   1.641   7.855
 1728WAT      O 5425   6.450   7.068   4.702
 1728WAT     H1 5426   6.435   7.158   4.744
 1728WAT     H2 5427   6.394   7.000   4.748
 1729WAT      O 5428   4.775   6.442   0.651
 1729WAT     H1 5429   4.780   6.503   0.572
 1729WAT     H2 5430   4.706   6.475   0.715
 1730WAT      O 5431   2.834   3.795   6.001
 1730WAT     H1 5432   2.788   3.848   6.072
 1730WAT     H2 5433   2.918   3.842   5.974
 1731WAT      O 5434   5.159   6.155   9.855
 1731WAT     H1 5435   5.105   6.237   9.835
 1731WAT     H2 5436   5.256   6.177   9.850
 1732WAT      O 5437   1.435   5.852   3.260
 1732WAT     H1 5438   1.480   5.845   3.171
 1732WAT     H2 5439   1.434   5.762   3.304
 1733WAT      O 5440   5.077   3.534   4.222
 1733WAT     H1 5441   5.025   3.502   4.301
 1733WAT     H2 5442   5.072   3.634   4.217
 1734WAT      O 5443   7.058   8.316   5.175
 1734WAT     H1 5444   7.146   8.270   5.177
 1734WAT     H2 5445   7.045   8.367   5.261
 1735WAT      O 5446   4.423   3.750   1.291
 1735WAT     H1 5447   4.397   3.722   1.198
 1735WAT     H2 5448   4.344   3.742   1.352
 1736WAT      O 5449   7.844   3.049   1.437
 1736WAT     H1 5450   7.746   3.068   1.447
 1736WAT     H2 5451   7.882   3.018   1.524
 1737WAT      O 5452   6.467   2.067   4.016
 1737WAT     H1 5453   6.493   2.146   3.960
 1737WAT     H2 5454   6.374   2.079   4.050
 1738WAT      O 5455   8.553   3.588   8.830
 1738WAT     H1 5456   8.605   3.620   8.751
 1738WAT     H2 5457   8.480   3.526   8.799
 1739WAT      O 5458   5.791   8.594   9.808
 1739WAT     H1 5459   5.798   8.686   9.846
 1739WAT     H2 5460   5.757   8.600   9.714
 1740WAT      O 5461   2.122   2.142   7.423
 1740WAT     H1 5462   2.139   2.227   7.474
 1740WAT     H2 5463   2.150   2.154   7.328
 1741WAT      O 5464   8.515   0.318   3.397
 1741WAT     H1 5465   8.497   0.238   3.455
 1741WAT     H2 5466   8.482   0.400   3.444
 1742WAT      O 5467   8.173   1.682   4.020
 1742WAT     H1 5468   8.121   1.599   4.000
 1742WAT     H2 5469   8.146   1.718   4.109
 1743WAT      O 5470   4.186   0.064   4.256
 1743WAT     H1 5471   4.156   0.016   4.174
 1743WAT     H2 5472   4.112   0.122   4.290
 1744WAT      O 5473   4.413   3.642   3.297
 1744WAT     H1 5474   4.513   3.635   3.293
 1744WAT     H2 5475   4.375   3.556   3.332
 1745WAT      O 5476   3.858   9.610   0.283
 1745WAT     H1 5477   3.910   9.652   0.357
 1745WAT     H2 5478   3.772   9.659   0.270
 1746WAT      O 5479   7.382   4.078   4.897
 1746WAT     H1 5480   7.444   4.007   4.865
 1746WAT     H2 5481   7.297   4.075   4.845
 1747WAT      O 5482   3.179   8.349   7.568
 1747WAT     H1 5483   3.172   8.270   7.508
 1747WAT     H2 5484   3.153   8.323   7.661
 1748WAT      O 5485   2.394   9.525   5.845
 1748WAT     H1 5486   2.335   9.445   5.849
 1748WAT     H2 5487   2.484   9.503   5.884
 1749WAT      O 5488   8.122   5.608   1.940
 1749WAT     H1 5489   8.079   5.691   1.976
 1749WAT     H2 5490   8.218   5.627   1.919
 1750WAT      O 5491   1.954   8.613   5.790
 1750WAT     H1 5492   1.869   8.665   5.777
 1750WAT     H2 5493   1.947   8.526   5.741
 1751WAT      O 5494   5.085   2.868   0.198
 1751WAT     H1 5495   5.083   2.803   0.274
 1751WAT     H2 5496   4.995   2.909   0.187
 1752WAT      O 5497   0.805   1.705   2.017
 1752WAT     H1 5498   0.774   1.742   1.929
 1752WAT     H2 5499   0.858   1.774   2.066
 1753WAT      O 5500   6.033   2.904   1.428
 1753WAT     H1 5501   6.121   2.948   1.407
 1753WAT     H2 5502   6.047   2.806   1.441
 1754WAT      O 5503   8.278   5.113   2.098
 1754WAT     H1 5504   8.229   5.176   2.037
 1754WAT     H2 5505   8.267   5.143   2.193
 1755WAT      O 5506   5.105   4.875   8.016
 1755WAT     H1 5507   5.181   4.890   7.952
 1755WAT     H2 5508   5.043   4.807   7.977
 1756WAT      O 5509   5.457   2.910   8.274
 1756WAT     H1 5510   5.500   2.820   8.265
 1756WAT     H2 5511   5.526   2.978   8.298
 1757WAT      O 5512   6.413   8.973   4.860
 1757WAT     H1 5513   6.473   9.052   4.875
 1757WAT     H2 5514   6.370   8.981   4.770
 1758WAT      O 5515   6.455   3.923   8.171
 1758WAT     H1 5516   6.383   3.977   8.214
 1758WAT     H2 5517   6.508   3.875   8.242
 1759WAT      O 5518   2.899   6.583   4.076
 1759WAT     H1 5519   2.859   6.624   4.157
 1759WAT     H2 5520   2.994   6.556   4.095
 1760WAT      O 5521   4.615   5.835   5.737
 1760WAT     H1 5522   4.594   5.790   5.650
 1760WAT     H2 5523   4.665   5.919   5.719
 1761WAT      O 5524   3.422   4.998   7.439
 1761WAT     H1 5525   3.330   5.036   7.444
 1761WAT     H2 5526   3.424   4.909   7.486
 1762WAT      O 5527   0.111   3.851   7.132
 1762WAT     H1 5528   0.113   3.883   7.227
 1762WAT     H2 5529   0.066   3.762   7.128
 1763WAT      O 5530   3.717   5.561   1.838
 1763WAT     H1 5531   3.685   5.467   1.851
 1763WAT     H2 5532   3.798   5.561   1.780
 1764WAT      O 5533   7.671   2.794   0.723
 1764WAT     H1 5534   7.656   2.870   0.786
 1764WAT     H2 5535   7.768   2.785   0.704
 1765WAT      O 5536   8.003   9.053   1.114
 1765WAT     H1 5537   8.072   8.994   1.071
 1765WAT     H2 5538   8.046   9.104   1.189
 1766WAT      O 5539   0.748   8.531   8.528
 1766WAT     H1 5540   0.758   8.461   8.598
 1766WAT     H2 5541   0.765   8.621   8.568
 1767WAT      O 5542   5.311   4.401   9.317
 1767WAT     H1 5543   5.281   4.486   9.361
 1767WAT     H2 5544   5.398   4.416   9.271
 1768WAT      O 5545   2.584   4.586   8.330
 1768WAT     H1 5546   2.533   4.670   8.312
 1768WAT     H2 5547   2.649   4.570   8.255
 1769WAT      O 5548   9.657   6.894   9.120
 1769WAT     H1 5549   9.643   6.814   9.179
 1769WAT     H2 5550   9.755   6.911   9.112
 1770WAT      O 5551   5.753   2.129   8.475
 1770WAT     H1 5552   5.732   2.205   8.537
 1770WAT     H2 5553   5.672   2.106   8.422
 1771WAT      O 5554   6.387   1.932   1.356
 1771WAT     H1 5555   6.318   1.952   1.286
 1771WAT     H2 5556   6.346   1.943   1.446
 1772WAT      O 5557   9.456   4.161   5.056
 1772WAT     H1 5558   9.520   4.116   5.119
 1772WAT     H2 5559   9.384   4.206   5.107
 1773WAT      O 5560   9.785   5.174   6.588
 1773WAT     H1 5561   9.706   5.123   6.622
 1773WAT     H2 5562   9.837   5.210   6.666
 1774WAT      O 5563   1.219   3.266   5.716
 1774WAT     H1 5564   1.139   3.269   5.776
 1774WAT     H2 5565   1.208   3.334   5.643
 1775WAT      O 5566   9.192   8.663   0.724
 1775WAT     H1 5567   9.112   8.664   0.785
 1775WAT     H2 5568   9.271   8.628   0.774
 1776WAT      O 5569   5.985   3.751   4.441
 1776WAT     H1 5570   6.014   3.677   4.380
 1776WAT     H2 5571   5.965   3.832   4.386
 1777WAT      O 5572   7.712   5.004   8.809
 1777WAT     H1 5573   7.631   5.007   8.750
 1777WAT     H2 5574   7.711   4.920   8.863
 1778WAT      O 5575   0.554   7.403   4.778
 1778WAT     H1 5576   0.506   7.440   4.858
 1778WAT     H2 5577   0.639   7.454   4.765
 1779WAT      O 5578   9.127   0.923   3.233
 1779WAT     H1 5579   9.165   1.010   3.264
 1779WAT     H2 5580   9.076   0.938   3.148
 1780WAT      O 5581   6.047   1.448   7.029
 1780WAT     H1 5582   6.077   1.531   7.075
 1780WAT     H2 5583   6.058   1.459   6.930
 1781WAT      O 5584   1.136   2.355   0.405
 1781WAT     H1 5585   1.202   2.415   0.360
 1781WAT     H2 5586   1.164   2.341   0.500
 1782WAT      O 5587   9.609   2.592   2.662
 1782WAT     H1 5588   9.692   2.587   2.717
 1782WAT     H2 5589   9.583   2.501   2.632
 1783WAT      O 5590   1.503   3.154   9.411
 1783WAT     H1 5591   1.593   3.197   9.423
 1783WAT     H2 5592   1.456   3.149   9.499
 1784WAT      O 5593   4.888   0.658   1.934
 1784WAT     H1 5594   4.860   0.578   1.880
 1784WAT     H2 5595   4.807   0.700   1.975
 1785WAT      O 5596   7.553   5.376   7.106
 1785WAT     H1 5597   7.489   5.376   7.029
 1785WAT     H2 5598   7.608   5.293   7.104
 1786WAT      O 5599   4.686   3.543   0.431
 1786WAT     H1 5600   4.690   3.636   0.392
 1786WAT     H2 5601   4.762   3.489   0.395
 1787WAT      O 5602   7.643   5.743   0.033
 1787WAT     H1 5603   7.692   5.668  -0.012
 1787WAT     H2 5604   7.614   5.714   0.124
 1788WAT      O 5605   1.462   2.433   0.740
 1788WAT     H1 5606   1.438   2.524   0.774
 1788WAT     H2 5607   1.503   2.380   0.814
 1789WAT      O 5608   0.791   1.725   1.008
 1789WAT     H1 5609   0.729   1.794   1.044
 1789WAT     H2 5610   0.885   1.758   1.014
 1790WAT      O 5611   9.443   6.050   9.266
 1790WAT     H1 5612   9.403   6.012   9.350
 1790WAT     H2 5613   9.411   6.144   9.253
 1791WAT      O 5614   6.456   0.353   3.911
 1791WAT     H1 5615   6.467   0.443   3.868
 1791WAT     H2 5616   6.428   0.364   4.006
 1792WAT      O 5617   8.405   9.030   9.238
 1792WAT     H1 5618   8.326   8.989   9.284
 1792WAT     H2 5619   8.428   8.976   9.157
 1793WAT      O 5620   9.635   9.462   0.550
 1793WAT     H1 5621   9.633   9.393   0.477
 1793WAT     H2 5622   9.698   9.535   0.525
 1794WAT      O 5623   4.523   0.588   5.369
 1794WAT     H1 5624   4.565   0.676   5.349
 1794WAT     H2 5625   4.589   0.528   5.415
 1795WAT      O 5626   5.075   9.334   5.455
 1795WAT     H1 5627   5.124   9.259   5.498
 1795WAT     H2 5628   5.136   9.412   5.444
 1796WAT      O 5629   1.287   9.046   7.286
 1796WAT     H1 5630   1.229   9.036   7.206
 1796WAT     H2 5631   1.357   9.116   7.268
 1797WAT      O 5632   4.887   8.388   4.003
 1797WAT     H1 5633   4.874   8.299   3.957
 1797WAT     H2 5634   4.906   8.373   4.100
 1798WAT      O 5635   5.086   9.000   8.708
 1798WAT     H1 5636   5.063   9.082   8.656
 1798WAT     H2 5637   5.002   8.959   8.745
 1799WAT      O 5638   1.619   9.433   4.333
 1799WAT     H1 5639   1.593   9.522   4.372
 1799WAT     H2 5640   1.653   9.446   4.240
 1800WAT      O 5641   8.423   4.708   7.582
 1800WAT     H1 5642   8.452   4.721   7.488
 1800WAT     H2 5643   8.371   4.623   7.589
 1801WAT      O 5644   3.905   3.980   4.680
 1801WAT     H1 5645   3.848   3.986   4.598
 1801WAT     H2 5646   3.848   3.956   4.758
 1802WAT      O 5647   7.165   1.238   2.563
 1802WAT     H1 5648   7.211   1.310   2.510
 1802WAT     H2 5649   7.154   1.157   2.506
 1803WAT      O 5650   5.601   5.937   7.553
 1803WAT     H1 5651   5.678   5.927   7.491
 1803WAT     H2 5652   5.568   6.032   7.550
 1804WAT      O 5653   9.306   5.528   2.435
 1804WAT     H1 5654   9.368   5.592   2.390
 1804WAT     H2 5655   9.261   5.574   2.512
 1805WAT      O 5656   7.857   5.830   8.137
 1805WAT     H1 5657   7.952   5.861   8.148
 1805WAT     H2 5658   7.850   5.769   8.058
 1806WAT      O 5659   5.241   3.295   3.622
 1806WAT     H1 5660   5.162   3.351   3.596
 1806WAT     H2 5661   5.212   3.225   3.687
 1807WAT      O 5662   6.589   5.058   4.377
 1807WAT     H1 5663   6.545   5.067   4.466
 1807WAT     H2 5664   6.639   5.142   4.355
 1808WAT      O 5665   4.003   9.561   1.429
 1808WAT     H1 5666   3.962   9.479   1.390
 1808WAT     H2 5667   4.053   9.610   1.358
 1809WAT      O 5668   4.167   8.017   1.779
 1809WAT     H1 5669   4.227   8.054   1.850
 1809WAT     H2 5670   4.180   8.068   1.694
 1810WAT      O 5671   8.624   9.552   7.166
 1810WAT     H1 5672   8.623   9.554   7.066
 1810WAT     H2 5673   8.565   9.478   7.198
 1811WAT      O 5674   4.801   0.514   9.224
 1811WAT     H1 5675   4.756   0.451   9.287
 1811WAT     H2 5676   4.880   0.469   9.182
 1812WAT      O 5677   1.812   8.543   2.380
 1812WAT     H1 5678   1.856   8.456   2.405
 1812WAT     H2 5679   1.865   8.587   2.307
 1813WAT      O 5680   7.157   1.120   3.445
 1813WAT     H1 5681   7.173   1.207   3.398
 1813WAT     H2 5682   7.244   1.079   3.470
 1814WAT      O 5683   7.410   8.862   8.251
 1814WAT     H1 5684   7.497   8.899   8.219
 1814WAT     H2 5685   7.340   8.934   8.251
 1815WAT      O 5686   0.945   0.389   5.668
 1815WAT     H1 5687   0.866   0.437   5.708
 1815WAT     H2 5688   0.990   0.449   5.603
 1816WAT      O 5689   1.496   2.001   5.765
 1816WAT     H1 5690   1.552   1.925   5.735
 1816WAT     H2 5691   1.411   2.003   5.712
 1817WAT      O 5692   5.868   9.051   0.371
 1817WAT     H1 5693   5.946   9.079   0.315
 1817WAT     H2 5694   5.785   9.097   0.337
 1818WAT      O 5695   2.222   6.941   7.944
 1818WAT     H1 5696   2.248   6.875   7.873
 1818WAT     H2 5697   2.291   7.013   7.950
 1819WAT      O 5698   8.412   1.311   1.851
 1819WAT     H1 5699   8.384   1.367   1.930
 1819WAT     H2 5700   8.505   1.335   1.824
 1820WAT      O 5701   5.992   2.630   6.855
 1820WAT     H1 5702   6.010   2.720   6.896
 1820WAT     H2 5703   5.959   2.568   6.926
 1821WAT      O 5704   1.743   9.526   9.860
 1821WAT     H1 5705   1.786   9.585   9.928
 1821WAT     H2 5706   1.667   9.573   9.817
 1822WAT      O 5707   6.408   3.105   2.009
 1822WAT     H1 5708   6.461   3.089   1.926
 1822WAT     H2 5709   6.391   3.203   2.018
 1823WAT      O 5710   7.964   1.284   7.276
 1823WAT     H1 5711   7.994   1.304   7.182
 1823WAT     H2 5712   8.045   1.267   7.332
 1824WAT      O 5713   4.777   0.749   0.247
 1824WAT     H1 5714   4.797   0.846   0.233
 1824WAT     H2 5715   4.680   0.738   0.268
 1825WAT      O 5716   3.196   3.243   8.614
 1825WAT     H1 5717   3.132   3.319   8.631
 1825WAT     H2 5718   3.275   3.252   8.675
 1826WAT      O 5719   8.482   3.115   8.275
 1826WAT     H1 5720   8.508   3.210   8.296
 1826WAT     H2 5721   8.554   3.053   8.307
 1827WAT      O 5722   4.768   7.876   7.092
 1827WAT     H1 5723   4.868   7.888   7.095
 1827WAT     H2 5724   4.723   7.964   7.107
 1828WAT      O 5725   5.643   2.621   4.238
 1828WAT     H1 5726   5.574   2.642   4.169
 1828WAT     H2 5727   5.657   2.702   4.296
 1829WAT      O 5728   9.798   8.117   7.746
 1829WAT     H1 5729   9.713   8.164   7.771
 1829WAT     H2 5730   9.776   8.033   7.696
 1830WAT      O 5731   2.030   6.958   5.193
 1830WAT     H1 5732   1.995   6.886   5.253
 1830WAT     H2 5733   2.067   7.032   5.248
 1831WAT      O 5734   5.297   1.401   8.009
 1831WAT     H1 5735   5.286   1.496   8.039
 1831WAT     H2 5736   5.322   1.344   8.087
 1832WAT      O 5737   6.076   6.296   7.288
 1832WAT     H1 5738   6.095   6.248   7.202
 1832WAT     H2 5739   6.010   6.243   7.342
 1833WAT      O 5740   5.320   3.391   3.228
 1833WAT     H1 5741   5.382   3.469   3.226
 1833WAT     H2 5742   5.227   3.423   3.246
 1834WAT      O 5743   1.494   3.075   4.568
 1834WAT     H1 5744   1.491   3.174   4.550
 1834WAT     H2 5745   1.493   3.059   4.667
 1835WAT      O 5746   5.441   9.802   7.624
 1835WAT     H1 5747   5.503   9.779   7.549
 1835WAT     H2 5748   5.489   9.793   7.711
 1836WAT      O 5749   5.668   8.311   5.039
 1836WAT     H1 5750   5.630   8.400   5.014
 1836WAT     H2 5751   5.627   8.279   5.125
 1837WAT      O 5752   7.679   2.224   3.583
 1837WAT     H1 5753   7.625   2.216   3.667
 1837WAT     H2 5754   7.770   2.261   3.606
 1838WAT      O 5755   9.206   4.790   2.911
 1838WAT     H1 5756   9.163   4.857   2.851
 1838WAT     H2 5757   9.210   4.826   3.004
 1839WAT      O 5758   9.379   1.132   9.760
 1839WAT     H1 5759   9.472   1.169   9.762
 1839WAT     H2 5760   9.359   1.097   9.669
 1840WAT      O 5761   9.319   8.286   4.921
 1840WAT     H1 5762   9.260   8.366   4.928
 1840WAT     H2 5763   9.353   8.261   5.011
 1841WAT      O 5764   2.105   7.109   3.832
 1841WAT     H1 5765   2.045   7.153   3.765
 1841WAT     H2 5766   2.108   7.164   3.915
 1842WAT      O 5767   5.085   0.775   4.149
 1842WAT     H1 5768   5.038   0.687   4.142
 1842WAT     H2 5769   5.103   0.811   4.058
 1843WAT      O 5770   9.599   5.815   6.935
 1843WAT     H1 5771   9.690   5.781   6.910
 1843WAT     H2 5772   9.602   5.850   7.029
 1844WAT      O 5773   2.122   3.936   8.737
 1844WAT     H1 5774   2.062   3.880   8.680
 1844WAT     H2 5775   2.067   3.993   8.798
 1845WAT      O 5776   3.370   9.526   4.819
 1845WAT     H1 5777   3.364   9.431   4.850
 1845WAT     H2 5778   3.286   9.551   4.771
 1846WAT      O 5779   0.537   2.027   6.675
 1846WAT     H1 5780   0.490   2.055   6.591
 1846WAT     H2 5781   0.573   1.935   6.663
 1847WAT      O 5782   3.894   7.445   7.320
 1847WAT     H1 5783   3.870   7.391   7.401
 1847WAT     H2 5784   3.811   7.472   7.272
 1848WAT      O 5785   3.604   2.861   2.972
 1848WAT     H1 5786   3.640   2.953   2.960
 1848WAT     H2 5787   3.505   2.862   2.959
 1849WAT      O 5788   1.666   8.198   1.772
 1849WAT     H1 5789   1.680   8.275   1.710
 1849WAT     H2 5790   1.602   8.224   1.844
 1850WAT      O 5791   2.586   4.826   9.061
 1850WAT     H1 5792   2.568   4.731   9.086
 1850WAT     H2 5793   2.609   4.831   8.964
 1851WAT      O 5794   2.121   4.818   1.746
 1851WAT     H1 5795   2.083   4.739   1.697
 1851WAT     H2 5796   2.180   4.870   1.685
 1852WAT      O 5797   6.165   1.936   0.546
 1852WAT     H1 5798   6.237   1.911   0.482
 1852WAT     H2 5799   6.082   1.885   0.524
 1853WAT      O 5800   0.030   4.989   3.647
 1853WAT     H1 5801   0.001   5.076   3.686
 1853WAT     H2 5802   0.125   4.996   3.615
 1854WAT      O 5803   4.767   0.298   7.575
 1854WAT     H1 5804   4.743   0.252   7.660
 1854WAT     H2 5805   4.831   0.241   7.523
 1855WAT      O 5806   0.364   2.134   7.157
 1855WAT     H1 5807   0.328   2.209   7.212
 1855WAT     H2 5808   0.300   2.114   7.082
 1856WAT      O 5809   4.033   7.217   7.759
 1856WAT     H1 5810   3.993   7.144   7.816
 1856WAT     H2 5811   4.124   7.190   7.730
 1857WAT      O 5812   9.764   3.062   8.312
 1857WAT     H1 5813   9.838   2.996   8.303
 1857WAT     H2 5814   9.683   3.029   8.263
 1858WAT      O 5815   5.237   6.846   4.737
 1858WAT     H1 5816   5.264   6.765   4.789
 1858WAT     H2 5817   5.220   6.921   4.800
 1859WAT      O 5818   8.735   3.819   7.874
 1859WAT     H1 5819   8.776   3.728   7.885
 1859WAT     H2 5820   8.775   3.864   7.794
 1860WAT      O 5821   3.594   7.661   6.467
 1860WAT     H1 5822   3.495   7.653   6.476
 1860WAT     H2 5823   3.639   7.600   6.531
 1861WAT      O 5824   7.735   8.450   6.449
 1861WAT     H1 5825   7.741   8.504   6.365
 1861WAT     H2 5826   7.656   8.389   6.444
 1862WAT      O 5827   1.085   4.513   7.997
 1862WAT     H1 5828   1.051   4.432   7.950
 1862WAT     H2 5829   1.100   4.492   8.093
 1863WAT      O 5830   8.929   3.599   3.856
 1863WAT     H1 5831   8.880   3.683   3.833
 1863WAT     H2 5832   9.009   3.591   3.797
 1864WAT      O 5833   1.596   5.578   6.438
 1864WAT     H1 5834   1.567   5.590   6.343
 1864WAT     H2 5835   1.611   5.481   6.456
 1865WAT      O 5836   0.183   7.968   8.865
 1865WAT     H1 5837   0.117   8.042   8.857
 1865WAT     H2 5838   0.140   7.890   8.910
 1866WAT      O 5839   3.723   5.951   6.742
 1866WAT     H1 5840   3.674   5.997   6.668
 1866WAT     H2 5841   3.707   6.001   6.828
 1867WAT      O 5842   4.091   1.043   7.132
 1867WAT     H1 5843   4.157   1.011   7.200
 1867WAT     H2 5844   4.122   1.130   7.093
 1868WAT      O 5845   3.207   7.113   5.512
 1868WAT     H1 5846   3.284   7.058   5.545
 1868WAT     H2 5847   3.240   7.201   5.479
 1869WAT      O 5848   9.253   3.924   4.336
 1869WAT     H1 5849   9.306   3.868   4.399
 1869WAT     H2 5850   9.185   3.977   4.387
 1870WAT      O 5851   3.248   9.400   7.188
 1870WAT     H1 5852   3.239   9.499   7.176
 1870WAT     H2 5853   3.158   9.357   7.177
 1871WAT      O 5854   6.590   3.912   6.647
 1871WAT     H1 5855   6.631   3.903   6.737
 1871WAT     H2 5856   6.658   3.890   6.577
 1872WAT      O 5857   4.806   6.347   8.017
 1872WAT     H1 5858   4.724   6.382   7.973
 1872WAT     H2 5859   4.783   6.318   8.110
 1873WAT      O 5860   0.183   8.040   6.567
 1873WAT     H1 5861   0.144   7.954   6.532
 1873WAT     H2 5862   0.249   8.019   6.640
 1874WAT      O 5863   9.161   1.364   4.268
 1874WAT     H1 5864   9.153   1.392   4.363
 1874WAT     H2 5865   9.258   1.361   4.242
 1875WAT      O 5866   8.562   7.080   4.348
 1875WAT     H1 5867   8.473   7.042   4.376
 1875WAT     H2 5868   8.628   7.006   4.337
 1876WAT      O 5869   6.889   0.220   0.918
 1876WAT     H1 5870   6.859   0.245   0.826
 1876WAT     H2 5871   6.900   0.303   0.973
 1877WAT      O 5872   8.483   9.776   2.676
 1877WAT     H1 5873   8.530   9.693   2.646
 1877WAT     H2 5874   8.411   9.799   2.610
 1878WAT      O 5875   3.272   7.383   3.489
 1878WAT     H1 5876   3.301   7.289   3.501
 1878WAT     H2 5877   3.351   7.439   3.463
 1879WAT      O 5878   1.794   8.046   3.928
 1879WAT     H1 5879   1.842   8.134   3.934
 1879WAT     H2 5880   1.859   7.974   3.904
 1880WAT      O 5881   3.536   2.102   3.466
 1880WAT     H1 5882   3.573   2.160   3.538
 1880WAT     H2 5883   3.436   2.114   3.462
 1881WAT      O 5884   4.772   6.819   7.070
 1881WAT     H1 5885   4.859   6.868   7.083
 1881WAT     H2 5886   4.768   6.741   7.133
 1882WAT      O 5887   3.770   7.060   4.700
 1882WAT     H1 5888   3.845   7.003   4.731
 1882WAT     H2 5889   3.799   7.156   4.699
 1883WAT      O 5890   3.599   2.078   1.817
 1883WAT     H1 5891   3.655   2.006   1.775
 1883WAT     H2 5892   3.604   2.071   1.916
 1884WAT      O 5893   9.837   5.273   6.853
 1884WAT     H1 5894   9.914   5.333   6.834
 1884WAT     H2 5895   9.868   5.197   6.911
 1885WAT      O 5896   4.771   0.031   4.480
 1885WAT     H1 5897   4.700  -0.028   4.518
 1885WAT     H2 5898   4.776   0.019   4.381
 1886WAT      O 5899   1.783   1.115   2.300
 1886WAT     H1 5900   1.827   1.112   2.210
 1886WAT     H2 5901   1.827   1.185   2.356
 1887WAT      O 5902   9.735   2.624   4.143
 1887WAT     H1 5903   9.659   2.607   4.206
 1887WAT     H2 5904   9.720   2.572   4.059
 1888WAT      O 5905   4.367   0.540   3.296
 1888WAT     H1 5906   4.455   0.576   3.326
 1888WAT     H2 5907   4.294   0.577   3.354
 1889WAT      O 5908   0.734   7.292   6.518
 1889WAT     H1 5909   0.684   7.250   6.594
 1889WAT     H2 5910   0.832   7.275   6.529
 1890WAT      O 5911   9.065   8.065   4.147
 1890WAT     H1 5912   9.120   7.982   4.134
 1890WAT     H2 5913   9.124   8.138   4.181
 1891WAT      O 5914   1.918   5.558   9.690
 1891WAT     H1 5915   1.990   5.513   9.637
 1891WAT     H2 5916   1.957   5.635   9.741
 1892WAT      O 5917   0.919   1.752   5.513
 1892WAT     H1 5918   1.009   1.712   5.498
 1892WAT     H2 5919   0.853   1.678   5.530
 1893WAT      O 5920   1.511   0.051   2.697
 1893WAT     H1 5921   1.498  -0.012   2.621
 1893WAT     H2 5922   1.538  -0.000   2.779
 1894WAT      O 5923   3.764   3.684   7.211
 1894WAT     H1 5924   3.718   3.725   7.290
 1894WAT     H2 5925   3.758   3.745   7.132
 1895WAT      O 5926   2.587   4.428   7.349
 1895WAT     H1 5927   2.488   4.431   7.335
 1895WAT     H2 5928   2.630   4.509   7.306
 1896WAT      O 5929   0.811   0.180   6.227
 1896WAT     H1 5930   0.867   0.214   6.303
 1896WAT     H2 5931   0.857   0.197   6.140
 1897WAT      O 5932   2.488   4.919   7.443
 1897WAT     H1 5933   2.451   5.005   7.479
 1897WAT     H2 5934   2.559   4.938   7.376
 1898WAT      O 5935   4.405   9.718   9.581
 1898WAT     H1 5936   4.442   9.740   9.490
 1898WAT     H2 5937   4.305   9.728   9.579
 1899WAT      O 5938   9.067   9.058   8.544
 1899WAT     H1 5939   9.072   9.157   8.547
 1899WAT     H2 5940   9.157   9.021   8.519
 1900WAT      O 5941   0.069   7.370   1.576
 1900WAT     H1 5942   0.100   7.380   1.670
 1900WAT     H2 5943   0.061   7.273   1.553
 1901WAT      O 5944   5.610   2.189   5.112
 1901WAT     H1 5945   5.669   2.265   5.138
 1901WAT     H2 5946   5.662   2.104   5.112
 1902WAT      O 5947   9.127   5.288   5.562
 1902WAT     H1 5948   9.083   5.199   5.567
 1902WAT     H2 5949   9.128   5.319   5.467
 1903WAT      O 5950   9.130   7.439   5.535
 1903WAT     H1 5951   9.040   7.400   5.556
 1903WAT     H2 5952   9.194   7.417   5.609
 1904WAT      O 5953   9.650   6.353   6.437
 1904WAT     H1 5954   9.634   6.321   6.344
 1904WAT     H2 5955   9.599   6.437   6.454
 1905WAT      O 5956   3.148   5.514   4.689
 1905WAT     H1 5957   3.182   5.593   4.639
 1905WAT     H2 5958   3.056   5.491   4.656
 1906WAT      O 5959   8.676   0.452   8.759
 1906WAT     H1 5960   8.767   0.491   8.746
 1906WAT     H2 5961   8.625   0.454   8.673
 1907WAT      O 5962   2.786   8.296   9.106
 1907WAT     H1 5963   2.720   8.369   9.085
 1907WAT     H2 5964   2.868   8.337   9.146
 1908WAT      O 5965   4.559   0.665   8.516
 1908WAT     H1 5966   4.566   0.630   8.609
 1908WAT     H2 5967   4.463   0.679   8.492
 1909WAT      O 5968   9.643   7.489   8.641
 1909WAT     H1 5969   9.694   7.553   8.698
 1909WAT     H2 5970   9.669   7.502   8.545
 1910WAT      O 5971   2.609   6.475   2.521
 1910WAT     H1 5972   2.592   6.447   2.426
 1910WAT     H2 5973   2.673   6.552   2.522
 1911WAT      O 5974   1.719   7.645   4.875
 1911WAT     H1 5975   1.699   7.548   4.861
 1911WAT     H2 5976   1.739   7.661   4.971
 1912WAT      O 5977   3.675   9.742   7.300
 1912WAT     H1 5978   3.768   9.707   7.312
 1912WAT     H2 5979   3.621   9.724   7.382
 1913WAT      O 5980   7.106   0.165   9.719
 1913WAT     H1 5981   7.092   0.071   9.750
 1913WAT     H2 5982   7.058   0.228   9.780
 1914WAT      O 5983   0.863   0.338   5.979
 1914WAT     H1 5984   0.786   0.304   5.925
 1914WAT     H2 5985   0.949   0.307   5.938
 1915WAT      O 5986   3.069   1.895   7.568
 1915WAT     H1 5987   3.167   1.915   7.556
 1915WAT     H2 5988   3.045   1.815   7.513
 1916WAT      O 5989   4.771   4.688   0.096
 1916WAT     H1 5990   4.789   4.717   0.190
 1916WAT     H2 5991   4.844   4.628   0.065
 1917WAT      O 5992   1.249   1.490   6.734
 1917WAT     H1 5993   1.196   1.446   6.807
 1917WAT     H2 5994   1.289   1.420   6.675
 1918WAT      O 5995   9.537   8.651   5.672
 1918WAT     H1 5996   9.516   8.584   5.601
 1918WAT     H2 5997   9.629   8.688   5.658
 1919WAT      O 5998   6.624   8.174   8.556
 1919WAT     H1 5999   6.570   8.134   8.483
 1919WAT     H2 6000   6.657   8.264   8.528
 1920WAT      O 6001   4.896   2.073   0.783
 1920WAT     H1 6002   4.894   1.998   0.849
 1920WAT     H2 6003   4.806   2.116   0.779
 1921WAT      O 6004   0.441   3.698   9.108
 1921WAT     H1 6005   0.419   3.783   9.061
 1921WAT     H2 6006   0.531   3.666   9.079
 1922WAT      O 6007   3.236   8.239   1.128
 1922WAT     H1 6008   3.177   8.263   1.051
 1922WAT     H2 6009   3.228   8.308   1.200
 1923WAT      O 6010   1.866   0.131   7.993
 1923WAT     H1 6011   1.940   0.164   8.051
 1923WAT     H2 6012   1.904   0.082   7.915
 1924WAT      O 6013   4.063   1.108   8.629
 1924WAT     H1 6014   4.017   1.197   8.627
 1924WAT     H2 6015   4.108   1.096   8.718
 1925WAT      O 6016   1.618   2.692   7.957
 1925WAT     H1 6017   1.692   2.675   8.022
 1925WAT     H2 6018   1.631   2.781   7.914
 1926WAT      O 6019   9.409   9.830   2.221
 1926WAT     H1 6020   9.450   9.751   2.177
 1926WAT     H2 6021   9.357   9.882   2.153
 1927WAT      O 6022   9.880   6.384   5.041
 1927WAT     H1 6023   9.979   6.385   5.027
 1927WAT     H2 6024   9.834   6.416   4.958
 1928WAT      O 6025   1.640   8.345   5.140
 1928WAT     H1 6026   1.705   8.413   5.173
 1928WAT     H2 6027   1.571   8.329   5.210
 1929WAT      O 6028   7.593   8.389   3.831
 1929WAT     H1 6029   7.503   8.406   3.791
 1929WAT     H2 6030   7.619   8.294   3.816
 1930WAT      O 6031   4.006   0.479   3.316
 1930WAT     H1 6032   4.045   0.560   3.360
 1930WAT     H2 6033   4.068   0.401   3.329
 1931WAT      O 6034   0.328   1.014   1.456
 1931WAT     H1 6035   0.405   0.957   1.426
 1931WAT     H2 6036   0.290   0.978   1.541
 1932WAT      O 6037   1.234   9.023   3.711
 1932WAT     H1 6038   1.145   8.978   3.721
 1932WAT     H2 6039   1.269   9.049   3.800
 1933WAT      O 6040   1.810   9.817   6.391
 1933WAT     H1 6041   1.715   9.813   6.420
 1933WAT     H2 6042   1.855   9.896   6.433
 1934WAT      O 6043   5.744   2.273   3.279
 1934WAT     H1 6044   5.674   2.264   3.208
 1934WAT     H2 6045   5.730   2.359   3.328
 1935WAT      O 6046   7.549   2.592   4.226
 1935WAT     H1 6047   7.535   2.555   4.134
 1935WAT     H2 6048   7.494   2.674   4.238
 1936WAT      O 6049   1.973   5.515   4.225
 1936WAT     H1 6050   1.974   5.469   4.313
 1936WAT     H2 6051   2.060   5.563   4.212
 1937WAT      O 6052   1.243   8.472   0.832
 1937WAT     H1 6053   1.219   8.562   0.796
 1937WAT     H2 6054   1.329   8.442   0.791
 1938WAT      O 6055   2.343   7.158   7.669
 1938WAT     H1 6056   2.253   7.116   7.680
 1938WAT     H2 6057   2.336   7.237   7.608
 1939WAT      O 6058   6.324   9.255   4.166
 1939WAT     H1 6059   6.283   9.288   4.251
 1939WAT     H2 6060   6.416   9.222   4.183
 1940WAT      O 6061   5.467   0.535   0.651
 1940WAT     H1 6062   5.381   0.497   0.684
 1940WAT     H2 6063   5.450   0.619   0.599
 1941WAT      O 6064   7.153   9.097   7.660
 1941WAT     H1 6065   7.076   9.159   7.641
 1941WAT     H2 6066   7.123   9.002   7.651
 1942WAT      O 6067   9.003   0.028   8.069
 1942WAT     H1 6068   9.011  -0.008   8.162
 1942WAT     H2 6069   8.907   0.037   8.044
 1943WAT      O 6070   1.563   1.532   7.770
 1943WAT     H1 6071   1.568   1.455   7.706
 1943WAT     H2 6072   1.494   1.597   7.739
 1944WAT      O 6073   9.240   5.321   8.849
 1944WAT     H1 6074   9.276   5.324   8.756
 1944WAT     H2 6075   9.182   5.401   8.865
 1945WAT      O 6076   8.572   3.685   9.194
 1945WAT     H1 6077   8.610   3.614   9.134
 1945WAT     H2 6078   8.556   3.768   9.141
 1946WAT      O 6079   0.679   9.138   1.519
 1946WAT     H1 6080   0.701   9.234   1.506
 1946WAT     H2 6081   0.763   9.086   1.535
 1947WAT      O 6082   0.086   6.419   2.122
 1947WAT     H1 6083   0.097   6.403   2.024
 1947WAT     H2 6084   0.059   6.334   2.167
 1948WAT      O 6085   7.573   1.333   1.253
 1948WAT     H1 6086   7.648   1.285   1.299
 1948WAT     H2 6087   7.561   1.295   1.161
 1949WAT      O 6088   7.322   1.305   3.728
 1949WAT     H1 6089   7.323   1.226   3.667
 1949WAT     H2 6090   7.390   1.372   3.697
 1950WAT      O 6091   7.353   9.817   3.320
 1950WAT     H1 6092   7.375   9.909   3.355
 1950WAT     H2 6093   7.304   9.826   3.233
 1951WAT      O 6094   5.182   1.347   6.935
 1951WAT     H1 6095   5.241   1.415   6.892
 1951WAT     H2 6096   5.127   1.302   6.865
 1952WAT      O 6097   1.532   0.897   4.852
 1952WAT     H1 6098   1.549   0.802   4.825
 1952WAT     H2 6099   1.607   0.955   4.819
 1953WAT      O 6100   5.341   9.635   2.480
 1953WAT     H1 6101   5.337   9.540   2.448
 1953WAT     H2 6102   5.385   9.691   2.411
 1954WAT      O 6103   3.812   2.791   0.158
 1954WAT     H1 6104   3.821   2.691   0.160
 1954WAT     H2 6105   3.887   2.831   0.105
 1955WAT      O 6106   1.650   0.038   9.210
 1955WAT     H1 6107   1.673   0.094   9.289
 1955WAT     H2 6108   1.628   0.097   9.132
 1956WAT      O 6109   6.814   6.933   7.104
 1956WAT     H1 6110   6.882   6.869   7.067
 1956WAT     H2 6111   6.731   6.928   7.049
 1957WAT      O 6112   4.692   2.589   7.268
 1957WAT     H1 6113   4.690   2.640   7.182
 1957WAT     H2 6114   4.600   2.582   7.305
 1958WAT      O 6115   6.333   1.237   3.714
 1958WAT     H1 6116   6.419   1.212   3.670
 1958WAT     H2 6117   6.313   1.171   3.787
 1959WAT      O 6118   8.844   1.455   6.636
 1959WAT     H1 6119   8.916   1.425   6.698
 1959WAT     H2 6120   8.820   1.380   6.575
 1960WAT      O 6121   1.771   6.580   6.335
 1960WAT     H1 6122   1.807   6.499   6.287
 1960WAT     H2 6123   1.734   6.552   6.424
 1961WAT      O 6124   2.794   5.080   7.718
 1961WAT     H1 6125   2.773   5.005   7.780
 1961WAT     H2 6126   2.723   5.151   7.725
 1962WAT      O 6127   2.461   8.594   2.935
 1962WAT     H1 6128   2.434   8.611   3.030
 1962WAT     H2 6129   2.380   8.571   2.881
 1963WAT      O 6130   3.756   4.274   0.427
 1963WAT     H1 6131   3.836   4.278   0.487
 1963WAT     H2 6132   3.732   4.179   0.410
 1964WAT      O 6133   1.357   1.303   2.522
 1964WAT     H1 6134   1.258   1.311   2.513
 1964WAT     H2 6135   1.391   1.238   2.455
 1965WAT      O 6136   3.694   1.794   2.741
 1965WAT     H1 6137   3.655   1.704   2.762
 1965WAT     H2 6138   3.669   1.858   2.814
 1966WAT      O 6139   5.444   7.053   3.244
 1966WAT     H1 6140   5.394   6.966   3.243
 1966WAT     H2 6141   5.535   7.040   3.205
 1967WAT      O 6142   6.073   0.801   3.380
 1967WAT     H1 6143   6.057   0.869   3.309
 1967WAT     H2 6144   6.046   0.710   3.347
 1968WAT      O 6145   6.428   1.890   6.446
 1968WAT     H1 6146   6.407   1.936   6.359
 1968WAT     H2 6147   6.454   1.795   6.427
 1969WAT      O 6148   0.926   2.123   1.074
 1969WAT     H1 6149   1.010   2.165   1.040
 1969WAT     H2 6150   0.867   2.194   1.114
 1970WAT      O 6151   8.542   5.209   7.696
 1970WAT     H1 6152   8.546   5.264   7.612
 1970WAT     H2 6153   8.505   5.118   7.675
 1971WAT      O 6154   8.189   2.098   8.181
 1971WAT     H1 6155   8.126   2.156   8.129
 1971WAT     H2 6156   8.142   2.016   8.211
 1972WAT      O 6157   1.527   9.050   9.049
 1972WAT     H1 6158   1.459   9.113   9.013
 1972WAT     H2 6159   1.521   9.048   9.149
 1973WAT      O 6160   8.429   4.568   7.127
 1973WAT     H1 6161   8.364   4.638   7.156
 1973WAT     H2 6162   8.481   4.600   7.048
 1974WAT      O 6163   6.496   8.456   2.980
 1974WAT     H1 6164   6.483   8.492   3.072
 1974WAT     H2 6165   6.408   8.438   2.938
 1975WAT      O 6166   2.766   0.108   0.983
 1975WAT     H1 6167   2.757   0.207   0.989
 1975WAT     H2 6168   2.753   0.079   0.887
 1976WAT      O 6169   1.401   8.559   1.382
 1976WAT     H1 6170   1.451   8.477   1.411
 1976WAT     H2 6171   1.466   8.634   1.369
 1977WAT      O 6172   3.401   3.442   9.329
 1977WAT     H1 6173   3.458   3.462   9.250
 1977WAT     H2 6174   3.400   3.521   9.390
 1978WAT      O 6175   2.315   5.724   4.279
 1978WAT     H1 6176   2.325   5.816   4.242
 1978WAT     H2 6177   2.226   5.716   4.325
 1979WAT      O 6178   5.884   5.850   2.977
 1979WAT     H1 6179   5.900   5.827   3.072
 1979WAT     H2 6180   5.786   5.859   2.960
 1980WAT      O 6181   5.466   2.414   4.568
 1980WAT     H1 6182   5.532   2.417   4.643
 1980WAT     H2 6183   5.434   2.507   4.548
 1981WAT      O 6184   1.162   6.538   1.090
 1981WAT     H1 6185   1.063   6.529   1.090
 1981WAT     H2 6186   1.195   6.552   0.997
 1982WAT      O 6187   1.863   0.611   4.507
 1982WAT     H1 6188   1.877   0.702   4.470
 1982WAT     H2 6189   1.844   0.617   4.605
 1983WAT      O 6190   5.857   6.620   6.422
 1983WAT     H1 6191   5.837   6.708   6.380
 1983WAT     H2 6192   5.796   6.550   6.385
 1984WAT      O 6193   3.904   6.354   7.974
 1984WAT     H1 6194   3.971   6.409   7.923
 1984WAT     H2 6195   3.838   6.315   7.910
 1985WAT      O 6196   8.997   1.728   8.411
 1985WAT     H1 6197   8.909   1.776   8.400
 1985WAT     H2 6198   9.070   1.784   8.372
 1986WAT      O 6199   2.477   5.917   4.891
 1986WAT     H1 6200   2.550   5.880   4.833
 1986WAT     H2 6201   2.410   5.964   4.833
 1987WAT      O 6202   1.848   5.469   0.809
 1987WAT     H1 6203   1.806   5.379   0.812
 1987WAT     H2 6204   1.867   5.493   0.713
 1988WAT      O 6205   7.023   6.626   9.614
 1988WAT     H1 6206   7.073   6.550   9.656
 1988WAT     H2 6207   6.984   6.595   9.527
 1989WAT      O 6208   4.307   9.565   8.500
 1989WAT     H1 6209   4.303   9.554   8.600
 1989WAT     H2 6210   4.278   9.658   8.476
 1990WAT      O 6211   1.276   3.764   0.028
 1990WAT     H1 6212   1.335   3.784  -0.051
 1990WAT     H2 6213   1.190   3.725  -0.005
 1991WAT      O 6214   4.619   3.562   6.052
 1991WAT     H1 6215   4.683   3.510   5.995
 1991WAT     H2 6216   4.538   3.585   5.998
 1992WAT      O 6217   2.397   0.603   9.155
 1992WAT     H1 6218   2.360   0.618   9.246
 1992WAT     H2 6219   2.328   0.557   9.098
 1993WAT      O 6220   2.118   9.587   1.280
 1993WAT     H1 6221   2.066   9.591   1.366
 1993WAT     H2 6222   2.203   9.637   1.290
 1994WAT      O 6223   5.934   8.783   1.278
 1994WAT     H1 6224   5.845   8.825   1.294
 1994WAT     H2 6225   6.006   8.845   1.307
 1995WAT      O 6226   1.946   9.101   2.990
 1995WAT     H1 6227   1.855   9.074   2.960
 1995WAT     H2 6228   2.015   9.056   2.933
 1996WAT      O 6229   9.512   2.000   4.238
 1996WAT     H1 6230   9.474   1.928   4.180
 1996WAT     H2 6231   9.608   2.013   4.217
 1997WAT      O 6232   4.960   3.565   3.848
 1997WAT     H1 6233   4.988   3.487   3.902
 1997WAT     H2 6234   4.862   3.583   3.863
 1998WAT      O 6235   0.050   3.135   1.329
 1998WAT     H1 6236   0.030   3.220   1.377
 1998WAT     H2 6237   0.148   3.113   1.338
 1999WAT      O 6238   3.499   3.247   9.610
 1999WAT     H1 6239   3.488   3.153   9.579
 1999WAT     H2 6240   3.510   3.248   9.710
 2000WAT      O 6241   2.728   6.191   3.085
 2000WAT     H1 6242   2.742   6.224   3.178
 2000WAT     H2 6243   2.817   6.173   3.042
 2001WAT      O 6244   3.186   9.046   3.833
 2001WAT     H1 6245   3.128   9.127   3.828
 2001WAT     H2 6246   3.186   8.998   3.746
 2002WAT      O 6247   7.953   7.350   3.677
 2002WAT     H1 6248   7.946   7.348   3.577
 2002WAT     H2 6249   7.869   7.312   3.717
 2003WAT      O 6250   0.357   5.388   9.882
 2003WAT     H1 6251   0.446   5.401   9.927
 2003WAT     H2 6252   0.294   5.344   9.946
 2004WAT      O 6253   3.356   3.832   8.906
 2004WAT     H1 6254   3.374   3.811   9.001
 2004WAT     H2 6255   3.288   3.768   8.870
 2005WAT      O 6256   6.076   7.465   0.514
 2005WAT     H1 6257   6.046   7.395   0.578
 2005WAT     H2 6258   5.997   7.510   0.474
 2006WAT      O 6259   2.898   6.494   6.760
 2006WAT     H1 6260   2.868   6.405   6.725
 2006WAT     H2 6261   2.871   6.504   6.856
 2007WAT      O 6262   6.944   1.797   8.889
 2007WAT     H1 6263   6.984   1.878   8.931
 2007WAT     H2 6264   6.940   1.723   8.957
 2008WAT      O 6265   5.624   2.872   4.350
 2008WAT     H1 6266   5.595   2.896   4.258
 2008WAT     H2 6267   5.598   2.946   4.413
 2009WAT      O 6268   3.521   7.503   4.505
 2009WAT     H1 6269   3.428   7.539   4.498
 2009WAT     H2 6270   3.518   7.407   4.533
 2010WAT      O 6271   1.365   1.810   7.160
 2010WAT     H1 6272   1.430   1.735   7.162
 2010WAT     H2 6273   1.292   1.790   7.094
 2011WAT      O 6274   5.801   7.781   1.834
 2011WAT     H1 6275   5.894   7.751   1.851
 2011WAT     H2 6276   5.739   7.703   1.839
 2012WAT      O 6277   2.115   0.772   8.212
 2012WAT     H1 6278   2.093   0.785   8.116
 2012WAT     H2 6279   2.060   0.834   8.268
 2013WAT      O 6280   9.197   7.265   8.226
 2013WAT     H1 6281   9.107   7.282   8.267
 2013WAT     H2 6282   9.209   7.323   8.145
 2014WAT      O 6283   9.284   6.967   2.060
 2014WAT     H1 6284   9.297   6.882   2.009
 2014WAT     H2 6285   9.220   6.952   2.135
 2015WAT      O 6286   5.734   7.179   8.112
 2015WAT     H1 6287   5.682   7.096   8.093
 2015WAT     H2 6288   5.831   7.156   8.122
 2016WAT      O 6289   9.633   0.677   2.784
 2016WAT     H1 6290   9.681   0.688   2.697
 2016WAT     H2 6291   9.678   0.605   2.838
 2017WAT      O 6292   7.354   4.830   2.046
 2017WAT     H1 6293   7.291   4.855   2.120
 2017WAT     H2 6294   7.378   4.734   2.054
 2018WAT      O 6295   1.906   9.372   2.737
 2018WAT     H1 6296   1.864   9.416   2.658
 2018WAT     H2 6297   1.874   9.278   2.745
 2019WAT      O 6298   0.852   0.816   8.667
 2019WAT     H1 6299   0.871   0.835   8.571
 2019WAT     H2 6300   0.934   0.776   8.709
 2020WAT      O 6301   3.580   6.824   0.071
 2020WAT     H1 6302   3.522   6.773   0.134
 2020WAT     H2 6303   3.562   6.922   0.081
 2021WAT      O 6304   1.225   3.664   3.600
 2021WAT     H1 6305   1.310   3.710   3.623
 2021WAT     H2 6306   1.163   3.728   3.554
 2022WAT      O 6307   3.238   1.057   4.804
 2022WAT     H1 6308   3.189   1.016   4.728
 2022WAT     H2 6309   3.294   0.986   4.849
 2023WAT      O 6310   8.449   5.597   0.659
 2023WAT     H1 6311   8.543   5.590   0.624
 2023WAT     H2 6312   8.405   5.507   0.652
 2024WAT      O 6313   7.955   7.305   9.881
 2024WAT     H1 6314   7.969   7.232   9.947
 2024WAT     H2 6315   7.931   7.390   9.929
 2025WAT      O 6316   0.067   3.852   6.050
 2025WAT     H1 6317   0.105   3.803   6.129
 2025WAT     H2 6318   0.142   3.882   5.991
 2026WAT      O 6319   6.559   9.132   4.027
 2026WAT     H1 6320   6.655   9.142   4.053
 2026WAT     H2 6321   6.543   9.176   3.939
 2027WAT      O 6322   1.498   8.802   2.529
 2027WAT     H1 6323   1.505   8.720   2.473
 2027WAT     H2 6324   1.499   8.777   2.626
 2028WAT      O 6325   6.314   3.527   0.948
 2028WAT     H1 6326   6.262   3.451   0.988
 2028WAT     H2 6327   6.404   3.532   0.992
 2029WAT      O 6328   3.246   4.593   2.763
 2029WAT     H1 6329   3.185   4.521   2.796
 2029WAT     H2 6330   3.261   4.660   2.836
 2030WAT      O 6331   7.790   3.643   2.920
 2030WAT     H1 6332   7.775   3.648   3.019
 2030WAT     H2 6333   7.760   3.555   2.886
 2031WAT      O 6334   7.926   2.391   3.102
 2031WAT     H1 6335   7.850   2.333   3.074
 2031WAT     H2 6336   8.013   2.344   3.085
 2032WAT      O 6337   9.568   2.297   7.683
 2032WAT     H1 6338   9.662   2.303   7.717
 2032WAT     H2 6339   9.506   2.276   7.758
 2033WAT      O 6340   3.261   8.590   5.965
 2033WAT     H1 6341   3.276   8.545   5.876
 2033WAT     H2 6342   3.349   8.619   6.003
 2034WAT      O 6343   8.105   7.834   7.077
 2034WAT     H1 6344   8.068   7.831   6.984
 2034WAT     H2 6345   8.205   7.834   7.072
 2035WAT      O 6346   0.933   4.917   0.504
 2035WAT     H1 6347   1.017   4.931   0.556
 2035WAT     H2 6348   0.939   4.831   0.453
 2036WAT      O 6349   8.064   5.677   9.745
 2036WAT     H1 6350   8.150   5.727   9.752
 2036WAT     H2 6351   8.007   5.717   9.674
 2037WAT      O 6352   2.802   2.676   2.032
 2037WAT     H1 6353   2.877   2.743   2.033
 2037WAT     H2 6354   2.798   2.629   2.120
 2038WAT      O 6355   7.582   5.484   4.370
 2038WAT     H1 6356   7.675   5.467   4.403
 2038WAT     H2 6357   7.551   5.406   4.316
 2039WAT      O 6358   4.820   8.801   3.295
 2039WAT     H1 6359   4.763   8.783   3.375
 2039WAT     H2 6360   4.766   8.785   3.212
 2040WAT      O 6361   5.006   2.884   1.821
 2040WAT     H1 6362   4.981   2.930   1.736
 2040WAT     H2 6363   4.923   2.854   1.869
 2041WAT      O 6364   2.568   0.553   6.089
 2041WAT     H1 6365   2.492   0.555   6.023
 2041WAT     H2 6366   2.532   0.565   6.181
 2042WAT      O 6367   4.785   1.323   9.404
 2042WAT     H1 6368   4.744   1.414   9.402
 2042WAT     H2 6369   4.857   1.317   9.335
 2043WAT      O 6370   6.914   9.387   8.107
 2043WAT     H1 6371   6.843   9.342   8.160
 2043WAT     H2 6372   6.926   9.481   8.139
 2044WAT      O 6373   2.143   4.837   8.773
 2044WAT     H1 6374   2.060   4.840   8.718
 2044WAT     H2 6375   2.134   4.768   8.845
 2045WAT      O 6376   8.146   9.372   0.222
 2045WAT     H1 6377   8.173   9.280   0.251
 2045WAT     H2 6378   8.186   9.439   0.285
 2046WAT      O 6379   2.741   4.586   7.159
 2046WAT     H1 6380   2.742   4.528   7.078
 2046WAT     H2 6381   2.720   4.680   7.133
 2047WAT      O 6382   9.537   0.575   5.343
 2047WAT     H1 6383   9.579   0.642   5.404
 2047WAT     H2 6384   9.442   0.602   5.324
 2048WAT      O 6385   3.815   4.531   3.326
 2048WAT     H1 6386   3.822   4.464   3.252
 2048WAT     H2 6387   3.796   4.621   3.287
 2049WAT      O 6388   0.328   1.695   4.411
 2049WAT     H1 6389   0.371   1.612   4.378
 2049WAT     H2 6390   0.232   1.698   4.381
 2050WAT      O 6391   8.097   4.786   2.911
 2050WAT     H1 6392   8.020   4.731   2.879
 2050WAT     H2 6393   8.179   4.762   2.861
 2051WAT      O 6394   2.091   1.110   3.179
 2051WAT     H1 6395   2.002   1.064   3.173
 2051WAT     H2 6396   2.079   1.208   3.166
 2052WAT      O 6397   2.870   2.194   6.462
 2052WAT     H1 6398   2.970   2.192   6.461
 2052WAT     H2 6399   2.839   2.286   6.486
 2053WAT      O 6400   7.095   1.660   3.128
 2053WAT     H1 6401   7.052   1.571   3.145
 2053WAT     H2 6402   7.177   1.647   3.073
 2054WAT      O 6403   0.733   1.495   3.787
 2054WAT     H1 6404   0.748   1.586   3.825
 2054WAT     H2 6405   0.705   1.502   3.692
 2055WAT      O 6406   5.740   8.929   3.479
 2055WAT     H1 6407   5.680   8.930   3.399
 2055WAT     H2 6408   5.828   8.888   3.455
 2056WAT      O 6409   2.316   8.418   7.714
 2056WAT     H1 6410   2.376   8.380   7.643
 2056WAT     H2 6411   2.269   8.343   7.761
 2057WAT      O 6412   3.158   6.831   3.691
 2057WAT     H1 6413   3.089   6.762   3.667
 2057WAT     H2 6414   3.249   6.789   3.690
 2058WAT      O 6415   5.815   2.103   5.435
 2058WAT     H1 6416   5.892   2.152   5.476
 2058WAT     H2 6417   5.734   2.163   5.437
 2059WAT      O 6418   2.671   7.398   4.292
 2059WAT     H1 6419   2.763   7.358   4.281
 2059WAT     H2 6420   2.604   7.340   4.245
 2060WAT      O 6421   0.691   8.371   4.286
 2060WAT     H1 6422   0.721   8.434   4.215
 2060WAT     H2 6423   0.766   8.354   4.350
 2061WAT      O 6424   2.199   4.190   3.561
 2061WAT     H1 6425   2.197   4.238   3.473
 2061WAT     H2 6426   2.285   4.209   3.608
 2062WAT      O 6427   1.183   9.682   9.761
 2062WAT     H1 6428   1.116   9.630   9.708
 2062WAT     H2 6429   1.250   9.619   9.801
 2063WAT      O 6430   4.092   0.353   1.849
 2063WAT     H1 6431   4.190   0.339   1.841
 2063WAT     H2 6432   4.051   0.354   1.758
 2064WAT      O 6433   5.504   3.301   5.162
 2064WAT     H1 6434   5.488   3.204   5.177
 2064WAT     H2 6435   5.566   3.336   5.233
 2065WAT      O 6436   6.490   3.721   7.310
 2065WAT     H1 6437   6.494   3.820   7.296
 2065WAT     H2 6438   6.496   3.701   7.407
 2066WAT      O 6439   3.208   1.261   6.942
 2066WAT     H1 6440   3.230   1.217   6.855
 2066WAT     H2 6441   3.216   1.195   7.016
 2067WAT      O 6442   5.732   6.793   1.045
 2067WAT     H1 6443   5.702   6.814   0.952
 2067WAT     H2 6444   5.788   6.868   1.079
 2068WAT      O 6445   2.984   9.772   9.644
 2068WAT     H1 6446   2.915   9.700   9.636
 2068WAT     H2 6447   2.939   9.860   9.661
 2069WAT      O 6448   1.742   3.118   3.911
 2069WAT     H1 6449   1.812   3.182   3.881
 2069WAT     H2 6450   1.673   3.106   3.839
 2070WAT      O 6451   3.211   7.285   8.200
 2070WAT     H1 6452   3.180   7.326   8.114
 2070WAT     H2 6453   3.208   7.353   8.273
 2071WAT      O 6454   6.864   4.837   0.921
 2071WAT     H1 6455   6.861   4.919   0.864
 2071WAT     H2 6456   6.831   4.759   0.868
 2072WAT      O 6457   9.617   3.891   1.205
 2072WAT     H1 6458   9.692   3.954   1.187
 2072WAT     H2 6459   9.556   3.930   1.274
 2073WAT      O 6460   6.577   1.481   0.138
 2073WAT     H1 6461   6.585   1.426   0.054
 2073WAT     H2 6462   6.647   1.551   0.138
 2074WAT      O 6463   8.232   3.700   3.159
 2074WAT     H1 6464   8.216   3.614   3.111
 2074WAT     H2 6465   8.318   3.740   3.128
 2075WAT      O 6466   2.326   2.845   8.812
 2075WAT     H1 6467   2.415   2.890   8.811
 2075WAT     H2 6468   2.290   2.839   8.719
 2076WAT      O 6469   4.057   7.668   4.173
 2076WAT     H1 6470   4.009   7.588   4.207
 2076WAT     H2 6471   4.128   7.695   4.237
 2077WAT      O 6472   3.273   2.129   6.968
 2077WAT     H1 6473   3.263   2.064   6.892
 2077WAT     H2 6474   3.183   2.161   6.997
 2078WAT      O 6475   1.050   6.817   3.781
 2078WAT     H1 6476   0.955   6.803   3.811
 2078WAT     H2 6477   1.052   6.887   3.710
 2079WAT      O 6478   2.777   2.335   7.995
 2079WAT     H1 6479   2.827   2.249   7.985
 2079WAT     H2 6480   2.734   2.359   7.908
 2080WAT      O 6481   5.567   1.430   2.137
 2080WAT     H1 6482   5.499   1.409   2.207
 2080WAT     H2 6483   5.656   1.395   2.165
 2081WAT      O 6484   1.088   3.634   2.111
 2081WAT     H1 6485   1.073   3.732   2.095
 2081WAT     H2 6486   1.059   3.582   2.031
 2082WAT      O 6487   9.567   1.509   3.354
 2082WAT     H1 6488   9.529   1.428   3.399
 2082WAT     H2 6489   9.570   1.494   3.255
 2083WAT      O 6490   3.780   4.689   0.959
 2083WAT     H1 6491   3.723   4.607   0.964
 2083WAT     H2 6492   3.860   4.670   0.903
 2084WAT      O 6493   7.342   8.558   1.714
 2084WAT     H1 6494   7.244   8.556   1.733
 2084WAT     H2 6495   7.389   8.609   1.786
 2085WAT      O 6496   5.450   9.138   3.223
 2085WAT     H1 6497   5.415   9.174   3.136
 2085WAT     H2 6498   5.374   9.097   3.274
 2086WAT      O 6499   3.090   0.104   6.318
 2086WAT     H1 6500   3.174   0.089   6.265
 2086WAT     H2 6501   3.019   0.140   6.258
 2087WAT      O 6502   2.178   4.186   6.111
 2087WAT     H1 6503   2.109   4.177   6.183
 2087WAT     H2 6504   2.145   4.251   6.042
 2088WAT      O 6505   1.864   1.931   7.006
 2088WAT     H1 6506   1.930   2.001   7.034
 2088WAT     H2 6507   1.772   1.969   7.011
 2089WAT      O 6508   5.303   7.061   9.848
 2089WAT     H1 6509   5.239   7.106   9.910
 2089WAT     H2 6510   5.374   7.015   9.900
 2090WAT      O 6511   5.083   0.279   2.751
 2090WAT     H1 6512   5.016   0.286   2.677
 2090WAT     H2 6513   5.136   0.364   2.756
 2091WAT      O 6514   5.937   9.328   4.201
 2091WAT     H1 6515   6.026   9.348   4.244
 2091WAT     H2 6516   5.950   9.314   4.102
 2092WAT      O 6517   2.318   9.443   1.732
 2092WAT     H1 6518   2.322   9.525   1.789
 2092WAT     H2 6519   2.354   9.464   1.641
 2093WAT      O 6520   9.039   4.596   0.024
 2093WAT     H1 6521   9.128   4.622   0.062
 2093WAT     H2 6522   9.013   4.506   0.059
 2094WAT      O 6523   9.183   9.082   4.384
 2094WAT     H1 6524   9.101   9.063   4.330
 2094WAT     H2 6525   9.232   8.997   4.401
 2095WAT      O 6526   1.430   9.174   8.288
 2095WAT     H1 6527   1.335   9.143   8.291
 2095WAT     H2 6528   1.433   9.271   8.264
 2096WAT      O 6529   2.493   5.184   2.605
 2096WAT     H1 6530   2.521   5.209   2.513
 2096WAT     H2 6531   2.413   5.125   2.601
 2097WAT      O 6532   7.625   1.215   8.130
 2097WAT     H1 6533   7.576   1.136   8.095
 2097WAT     H2 6534   7.631   1.285   8.058
 2098WAT      O 6535   8.249   6.239   4.916
 2098WAT     H1 6536   8.277   6.148   4.886
 2098WAT     H2 6537   8.187   6.231   4.993
 2099WAT      O 6538   7.127   3.809   4.139
 2099WAT     H1 6539   7.101   3.887   4.196
 2099WAT     H2 6540   7.226   3.801   4.136
 2100WAT      O 6541   2.349   4.647   3.186
 2100WAT     H1 6542   2.351   4.582   3.262
 2100WAT     H2 6543   2.424   4.712   3.196
 2101WAT      O 6544   6.571   8.563   0.947
 2101WAT     H1 6545   6.658   8.606   0.974
 2101WAT     H2 6546   6.569   8.552   0.848
 2102WAT      O 6547   9.089   5.025   5.482
 2102WAT     H1 6548   9.164   4.961   5.502
 2102WAT     H2 6549   9.103   5.065   5.392
 2103WAT      O 6550   8.987   3.879   4.183
 2103WAT     H1 6551   9.020   3.882   4.088
 2103WAT     H2 6552   9.057   3.916   4.244
 2104WAT      O 6553   2.218   8.386   6.148
 2104WAT     H1 6554   2.175   8.373   6.059
 2104WAT     H2 6555   2.317   8.376   6.139
 2105WAT      O 6556   0.236   7.538   3.060
 2105WAT     H1 6557   0.169   7.520   2.989
 2105WAT     H2 6558   0.209   7.618   3.113
 2106WAT      O 6559   7.897   0.620   9.335
 2106WAT     H1 6560   7.849   0.555   9.394
 2106WAT     H2 6561   7.994   0.620   9.358
 2107WAT      O 6562   8.934   7.915   4.366
 2107WAT     H1 6563   9.015   7.860   4.387
 2107WAT     H2 6564   8.955   7.979   4.292
 2108WAT      O 6565   9.067   1.133   4.146
 2108WAT     H1 6566   8.979   1.154   4.103
 2108WAT     H2 6567   9.103   1.214   4.192
 2109WAT      O 6568   8.186   3.801   4.510
 2109WAT     H1 6569   8.188   3.777   4.607
 2109WAT     H2 6570   8.091   3.804   4.478
 2110WAT      O 6571   7.553   1.269   7.383
 2110WAT     H1 6572   7.626   1.333   7.357
 2110WAT     H2 6573   7.496   1.310   7.454
 2111WAT      O 6574   6.180   3.406   2.195
 2111WAT     H1 6575   6.098   3.454   2.161
 2111WAT     H2 6576   6.179   3.312   2.161
 2112WAT      O 6577   7.888   4.397   3.234
 2112WAT     H1 6578   7.815   4.339   3.272
 2112WAT     H2 6579   7.923   4.355   3.151
 2113WAT      O 6580   9.673   0.704   6.662
 2113WAT     H1 6581   9.619   0.756   6.596
 2113WAT     H2 6582   9.746   0.761   6.698
 2114WAT      O 6583   6.766   4.576   5.030
 2114WAT     H1 6584   6.756   4.533   5.120
 2114WAT     H2 6585   6.675   4.587   4.988
 2115WAT      O 6586   0.374   4.165   1.740
 2115WAT     H1 6587   0.377   4.218   1.656
 2115WAT     H2 6588   0.343   4.223   1.815
 2116WAT      O 6589   6.941   7.357   7.457
 2116WAT     H1 6590   6.847   7.376   7.486
 2116WAT     H2 6591   6.950   7.260   7.435
 2117WAT      O 6592   2.732   1.052   7.206
 2117WAT     H1 6593   2.712   1.139   7.252
 2117WAT     H2 6594   2.827   1.051   7.178
 2118WAT      O 6595   2.719   6.087   8.268
 2118WAT     H1 6596   2.710   6.081   8.367
 2118WAT     H2 6597   2.769   6.007   8.234
 2119WAT      O 6598   5.290   0.184   3.399
 2119WAT     H1 6599   5.311   0.279   3.379
 2119WAT     H2 6600   5.240   0.144   3.322
 2120WAT      O 6601   1.461   5.597   2.257
 2120WAT     H1 6602   1.472   5.563   2.350
 2120WAT     H2 6603   1.536   5.659   2.235
 2121WAT      O 6604   1.737   9.105   4.604
 2121WAT     H1 6605   1.686   9.059   4.677
 2121WAT     H2 6606   1.786   9.184   4.642
 2122WAT      O 6607   0.590   9.741   3.089
 2122WAT     H1 6608   0.556   9.674   3.023
 2122WAT     H2 6609   0.513   9.796   3.124
 2123WAT      O 6610   6.316   3.917   2.215
 2123WAT     H1 6611   6.352   3.875   2.131
 2123WAT     H2 6612   6.242   3.861   2.251
 2124WAT      O 6613   3.148   9.407   6.852
 2124WAT     H1 6614   3.233   9.365   6.819
 2124WAT     H2 6615   3.104   9.346   6.917
 2125WAT      O 6616   4.187   7.933   0.665
 2125WAT     H1 6617   4.203   7.952   0.568
 2125WAT     H2 6618   4.114   7.992   0.699
 2126WAT      O 6619   2.637   3.868   8.395
 2126WAT     H1 6620   2.689   3.857   8.480
 2126WAT     H2 6621   2.686   3.929   8.334
 2127WAT      O 6622   7.048   6.805   5.301
 2127WAT     H1 6623   6.990   6.883   5.279
 2127WAT     H2 6624   6.993   6.735   5.348
 2128WAT      O 6625   3.928   5.520   6.404
 2128WAT     H1 6626   3.992   5.487   6.333
 2128WAT     H2 6627   3.834   5.509   6.371
 2129WAT      O 6628   3.464   1.678   5.008
 2129WAT     H1 6629   3.505   1.673   5.099
 2129WAT     H2 6630   3.389   1.613   5.001
 2130WAT      O 6631   1.241   0.366   2.649
 2130WAT     H1 6632   1.283   0.325   2.730
 2130WAT     H2 6633   1.178   0.301   2.607
 2131WAT      O 6634   0.298   7.039   8.728
 2131WAT     H1 6635   0.354   7.102   8.781
 2131WAT     H2 6636   0.313   7.055   8.630
 2132WAT      O 6637   7.986   7.353   0.586
 2132WAT     H1 6638   8.067   7.348   0.645
 2132WAT     H2 6639   7.929   7.273   0.602
 2133WAT      O 6640   7.911   2.324   4.536
 2133WAT     H1 6641   7.812   2.333   4.548
 2133WAT     H2 6642   7.955   2.411   4.554
 2134WAT      O 6643   3.480   7.502   0.167
 2134WAT     H1 6644   3.550   7.465   0.228
 2134WAT     H2 6645   3.436   7.581   0.211
 2135WAT      O 6646   8.377   5.505   5.914
 2135WAT     H1 6647   8.391   5.497   6.012
 2135WAT     H2 6648   8.439   5.574   5.876
 2136WAT      O 6649   3.543   0.372   5.435
 2136WAT     H1 6650   3.592   0.289   5.409
 2136WAT     H2 6651   3.475   0.394   5.365
 2137WAT      O 6652   4.637   4.760   0.893
 2137WAT     H1 6653   4.634   4.859   0.911
 2137WAT     H2 6654   4.549   4.730   0.856
 2138WAT      O 6655   6.701   8.845   3.164
 2138WAT     H1 6656   6.737   8.755   3.188
 2138WAT     H2 6657   6.610   8.857   3.204
 2139WAT      O 6658   0.456   7.374   5.952
 2139WAT     H1 6659   0.536   7.428   5.926
 2139WAT     H2 6660   0.384   7.435   5.984
 2140WAT      O 6661   7.102   6.903   3.159
 2140WAT     H1 6662   7.165   6.932   3.231
 2140WAT     H2 6663   7.016   6.953   3.168
 2141WAT      O 6664   6.074   7.835   9.065
 2141WAT     H1 6665   6.058   7.912   9.127
 2141WAT     H2 6666   6.147   7.858   9.000
 2142WAT      O 6667   9.632   1.478   2.356
 2142WAT     H1 6668   9.728   1.450   2.366
 2142WAT     H2 6669   9.615   1.504   2.261
 2143WAT      O 6670   0.573   4.541   1.379
 2143WAT     H1 6671   0.555   4.545   1.281
 2143WAT     H2 6672   0.489   4.559   1.430
 2144WAT      O 6673   8.136   9.665   0.754
 2144WAT     H1 6674   8.219   9.642   0.805
 2144WAT     H2 6675   8.066   9.596   0.772
 2145WAT      O 6676   8.439   2.006   0.596
 2145WAT     H1 6677   8.525   1.974   0.637
 2145WAT     H2 6678   8.460   2.068   0.520
 2146WAT      O 6679   5.479   4.992   2.013
 2146WAT     H1 6680   5.482   4.976   2.112
 2146WAT     H2 6681   5.384   5.007   1.985
 2147WAT      O 6682   8.787   3.817   3.777
 2147WAT     H1 6683   8.718   3.856   3.838
 2147WAT     H2 6684   8.785   3.865   3.689
 2148WAT      O 6685   8.301   3.228   4.285
 2148WAT     H1 6686   8.347   3.247   4.198
 2148WAT     H2 6687   8.348   3.152   4.331
 2149WAT      O 6688   5.743   7.887   3.333
 2149WAT     H1 6689   5.835   7.911   3.302
 2149WAT     H2 6690   5.703   7.820   3.271
 2150WAT      O 6691   5.107   0.241   6.281
 2150WAT     H1 6692   5.185   0.302   6.293
 2150WAT     H2 6693   5.134   0.148   6.306
 2151WAT      O 6694   6.231   6.387   5.642
 2151WAT     H1 6695   6.227   6.485   5.664
 2151WAT     H2 6696   6.295   6.342   5.704
 2152WAT      O 6697   1.710   6.439   4.880
 2152WAT     H1 6698   1.772   6.515   4.860
 2152WAT     H2 6699   1.759   6.366   4.927
 2153WAT      O 6700   3.976   2.475   6.705
 2153WAT     H1 6701   3.908   2.539   6.670
 2153WAT     H2 6702   4.059   2.481   6.649
 2154WAT      O 6703   9.509   1.812   1.123
 2154WAT     H1 6704   9.546   1.719   1.124
 2154WAT     H2 6705   9.433   1.817   1.059
 2155WAT      O 6706   6.421   9.510   6.867
 2155WAT     H1 6707   6.387   9.443   6.933
 2155WAT     H2 6708   6.454   9.462   6.786
 2156WAT      O 6709   2.479   9.244   4.526
 2156WAT     H1 6710   2.489   9.169   4.460
 2156WAT     H2 6711   2.443   9.208   4.612
 2157WAT      O 6712   1.981   5.446   5.503
 2157WAT     H1 6713   2.004   5.419   5.410
 2157WAT     H2 6714   2.036   5.526   5.529
 2158WAT      O 6715   3.112   2.634   2.079
 2158WAT     H1 6716   3.156   2.723   2.089
 2158WAT     H2 6717   3.141   2.592   1.993
 2159WAT      O 6718   3.382   1.958   9.233
 2159WAT     H1 6719   3.291   1.935   9.267
 2159WAT     H2 6720   3.390   2.058   9.226
 2160WAT      O 6721   5.883   5.106   6.294
 2160WAT     H1 6722   5.899   5.098   6.196
 2160WAT     H2 6723   5.808   5.170   6.311
 2161WAT      O 6724   2.902   2.626   0.208
 2161WAT     H1 6725   2.847   2.621   0.125
 2161WAT     H2 6726   2.916   2.533   0.244
 2162WAT      O 6727   8.429   6.624   7.546
 2162WAT     H1 6728   8.333   6.617   7.517
 2162WAT     H2 6729   8.457   6.720   7.543
 2163WAT      O 6730   5.835   9.786   5.552
 2163WAT     H1 6731   5.760   9.852   5.557
 2163WAT     H2 6732   5.862   9.773   5.456
 2164WAT      O 6733   2.421   1.717   7.731
 2164WAT     H1 6734   2.453   1.797   7.781
 2164WAT     H2 6735   2.351   1.745   7.665
 2165WAT      O 6736   8.372   8.525   4.145
 2165WAT     H1 6737   8.346   8.436   4.106
 2165WAT     H2 6738   8.455   8.557   4.099
 2166WAT      O 6739   3.027   4.851   9.341
 2166WAT     H1 6740   2.931   4.875   9.326
 2166WAT     H2 6741   3.039   4.752   9.335
 2167WAT      O 6742   1.071   1.427   8.849
 2167WAT     H1 6743   0.976   1.458   8.849
 2167WAT     H2 6744   1.117   1.460   8.932
 2168WAT      O 6745   1.092   5.052   3.885
 2168WAT     H1 6746   1.140   4.968   3.909
 2168WAT     H2 6747   1.130   5.128   3.937
 2169WAT      O 6748   2.779   5.322   1.218
 2169WAT     H1 6749   2.738   5.260   1.152
 2169WAT     H2 6750   2.878   5.309   1.220
 2170WAT      O 6751   9.728   2.789   6.450
 2170WAT     H1 6752   9.678   2.841   6.519
 2170WAT     H2 6753   9.745   2.696   6.483
 2171WAT      O 6754   3.984   9.290   7.792
 2171WAT     H1 6755   4.022   9.259   7.879
 2171WAT     H2 6756   3.901   9.344   7.808
 2172WAT      O 6757   5.614   9.551   1.598
 2172WAT     H1 6758   5.676   9.568   1.674
 2172WAT     H2 6759   5.664   9.556   1.512
 2173WAT      O 6760   9.127   2.096   7.965
 2173WAT     H1 6761   9.170   2.061   7.881
 2173WAT     H2 6762   9.083   2.020   8.014
 2174WAT      O 6763   8.110   8.066   0.073
 2174WAT     H1 6764   8.156   8.011   0.003
 2174WAT     H2 6765   8.019   8.091   0.040
 2175WAT      O 6766   5.307   5.544   2.223
 2175WAT     H1 6767   5.309   5.445   2.208
 2175WAT     H2 6768   5.232   5.584   2.172
 2176WAT      O 6769   3.970   0.429   6.982
 2176WAT     H1 6770   4.047   0.413   6.922
 2176WAT     H2 6771   3.944   0.343   7.026
 2177WAT      O 6772   5.377   3.414   2.241
 2177WAT     H1 6773   5.400   3.327   2.285
 2177WAT     H2 6774   5.404   3.490   2.300
 2178WAT      O 6775   9.680   2.902   3.950
 2178WAT     H1 6776   9.598   2.848   3.932
 2178WAT     H2 6777   9.752   2.876   3.886
 2179WAT      O 6778   3.311   2.604   7.896
 2179WAT     H1 6779   3.221   2.569   7.921
 2179WAT     H2 6780   3.322   2.600   7.797
 2180WAT      O 6781   2.695   0.026   4.061
 2180WAT     H1 6782   2.648   0.086   3.995
 2180WAT     H2 6783   2.791   0.051   4.066
 2181WAT      O 6784   2.792   4.892   5.074
 2181WAT     H1 6785   2.780   4.840   5.159
 2181WAT     H2 6786   2.705   4.899   5.026
 2182WAT      O 6787   8.229   5.981   7.117
 2182WAT     H1 6788   8.297   6.053   7.120
 2182WAT     H2 6789   8.238   5.930   7.031
 2183WAT      O 6790   2.917   1.686   6.036
 2183WAT     H1 6791   2.882   1.671   5.944
 2183WAT     H2 6792   3.015   1.705   6.032
 2184WAT      O 6793   1.930   0.453   1.074
 2184WAT     H1 6794   1.917   0.440   1.172
 2184WAT     H2 6795   1.847   0.494   1.034
 2185WAT      O 6796   3.739   2.452   2.288
 2185WAT     H1 6797   3.663   2.503   2.329
 2185WAT     H2 6798   3.766   2.378   2.349
 2186WAT      O 6799   8.893   4.013   7.256
 2186WAT     H1 6800   8.907   3.971   7.167
 2186WAT     H2 6801   8.821   3.964   7.306
 2187WAT      O 6802   7.643   8.764   7.713
 2187WAT     H1 6803   7.567   8.826   7.691
 2187WAT     H2 6804   7.672   8.716   7.630
 2188WAT      O 6805   5.695   2.621   7.894
 2188WAT     H1 6806   5.635   2.554   7.850
 2188WAT     H2 6807   5.789   2.587   7.894
 2189WAT      O 6808   5.096   5.310   9.731
 2189WAT     H1 6809   5.172   5.265   9.777
 2189WAT     H2 6810   5.073   5.395   9.780
 2190WAT      O 6811   6.511   5.672   0.412
 2190WAT     H1 6812   6.554   5.718   0.490
 2190WAT     H2 6813   6.452   5.599   0.445
 2191WAT      O 6814   2.900   7.620   8.208
 2191WAT     H1 6815   2.863   7.561   8.280
 2191WAT     H2 6816   2.993   7.647   8.233
 2192WAT      O 6817   4.129   6.959   7.581
 2192WAT     H1 6818   4.195   6.988   7.651
 2192WAT     H2 6819   4.135   7.022   7.503
 2193WAT      O 6820   5.356   3.240   7.961
 2193WAT     H1 6821   5.353   3.224   7.862
 2193WAT     H2 6822   5.286   3.306   7.987
 2194WAT      O 6823   1.517   4.139   4.351
 2194WAT     H1 6824   1.607   4.133   4.308
 2194WAT     H2 6825   1.449   4.093   4.295
 2195WAT      O 6826   1.181   3.669   9.616
 2195WAT     H1 6827   1.259   3.645   9.559
 2195WAT     H2 6828   1.122   3.589   9.627
 2196WAT      O 6829   1.099   7.128   7.330
 2196WAT     H1 6830   1.173   7.111   7.264
 2196WAT     H2 6831   1.054   7.214   7.307
 2197WAT      O 6832   3.664   0.691   9.189
 2197WAT     H1 6833   3.686   0.641   9.273
 2197WAT     H2 6834   3.715   0.652   9.113
 2198WAT      O 6835   9.432   2.094   4.480
 2198WAT     H1 6836   9.392   2.008   4.512
 2198WAT     H2 6837   9.483   2.076   4.395
 2199WAT      O 6838   3.505   5.426   6.973
 2199WAT     H1 6839   3.472   5.410   6.880
 2199WAT     H2 6840   3.482   5.347   7.030
 2200WAT      O 6841   0.186   7.240   7.001
 2200WAT     H1 6842   0.181   7.294   7.086
 2200WAT     H2 6843   0.182   7.143   7.023
 2201WAT      O 6844   0.992   5.981   7.930
 2201WAT     H1 6845   0.989   6.080   7.945
 2201WAT     H2 6846   0.902   5.942   7.951
 2202WAT      O 6847   3.407   0.722   1.432
 2202WAT     H1 6848   3.435   0.635   1.472
 2202WAT     H2 6849   3.308   0.720   1.415
 2203WAT      O 6850   6.961   0.787   0.228
 2203WAT     H1 6851   7.014   0.763   0.147
 2203WAT     H2 6852   6.992   0.875   0.264
 2204WAT      O 6853   6.132   5.747   7.095
 2204WAT     H1 6854   6.120   5.781   7.188
 2204WAT     H2 6855   6.197   5.670   7.096
 2205WAT      O 6856   1.573   9.445   8.279
 2205WAT     H1 6857   1.578   9.441   8.379
 2205WAT     H2 6858   1.541   9.535   8.251
 2206WAT      O 6859   3.282   0.295   4.442
 2206WAT     H1 6860   3.265   0.386   4.404
 2206WAT     H2 6861   3.308   0.304   4.538
 2207WAT      O 6862   1.133   4.368   3.782
 2207WAT     H1 6863   1.104   4.390   3.689
 2207WAT     H2 6864   1.057   4.325   3.832
 2208WAT      O 6865   7.083   1.699   3.479
 2208WAT     H1 6866   7.015   1.760   3.438
 2208WAT     H2 6867   7.167   1.700   3.425
 2209WAT      O 6868   8.497   9.288   1.347
 2209WAT     H1 6869   8.486   9.284   1.248
 2209WAT     H2 6870   8.566   9.356   1.370
 2210WAT      O 6871   1.497   9.653   1.743
 2210WAT     H1 6872   1.467   9.644   1.838
 2210WAT     H2 6873   1.595   9.671   1.740
 2211WAT      O 6874   9.067   3.352   0.701
 2211WAT     H1 6875   9.126   3.382   0.625
 2211WAT     H2 6876   9.083   3.255   0.719
 2212WAT      O 6877   6.614   2.344   0.414
 2212WAT     H1 6878   6.577   2.299   0.333
 2212WAT     H2 6879   6.606   2.283   0.493
 2213WAT      O 6880   0.203   1.736   9.403
 2213WAT     H1 6881   0.199   1.810   9.470
 2213WAT     H2 6882   0.172   1.769   9.314
 2214WAT      O 6883   0.649   1.684   4.023
 2214WAT     H1 6884   0.622   1.772   4.060
 2214WAT     H2 6885   0.746   1.669   4.041
 2215WAT      O 6886   7.426   8.894   4.402
 2215WAT     H1 6887   7.456   8.799   4.394
 2215WAT     H2 6888   7.341   8.906   4.350
 2216WAT      O 6889   5.233   9.513   2.693
 2216WAT     H1 6890   5.154   9.471   2.649
 2216WAT     H2 6891   5.271   9.583   2.634
 2217WAT      O 6892   5.684   2.546   1.474
 2217WAT     H1 6893   5.618   2.604   1.523
 2217WAT     H2 6894   5.750   2.509   1.539
 2218WAT      O 6895   4.637   4.762   6.543
 2218WAT     H1 6896   4.708   4.720   6.599
 2218WAT     H2 6897   4.547   4.732   6.575
 2219WAT      O 6898   7.739   5.924   3.837
 2219WAT     H1 6899   7.662   5.978   3.802
 2219WAT     H2 6900   7.825   5.969   3.812
 2220WAT      O 6901   1.274   9.438   9.479
 2220WAT     H1 6902   1.225   9.387   9.551
 2220WAT     H2 6903   1.249   9.535   9.485
 2221WAT      O 6904   7.751   9.372   0.281
 2221WAT     H1 6905   7.752   9.457   0.335
 2221WAT     H2 6906   7.805   9.384   0.198
 2222WAT      O 6907   4.071   4.979   8.213
 2222WAT     H1 6908   4.165   4.945   8.207
 2222WAT     H2 6909   4.018   4.920   8.273
 2223WAT      O 6910   4.825   9.450   8.045
 2223WAT     H1 6911   4.795   9.450   7.950
 2223WAT     H2 6912   4.871   9.537   8.066
 2224WAT      O 6913   2.509   5.488   9.523
 2224WAT     H1 6914   2.583   5.508   9.458
 2224WAT     H2 6915   2.530   5.403   9.571
 2225WAT      O 6916   5.986   7.919   5.258
 2225WAT     H1 6917   5.902   7.870   5.281
 2225WAT     H2 6918   6.000   7.993   5.324
 2226WAT      O 6919   1.935   4.991   9.753
 2226WAT     H1 6920   1.989   4.907   9.759
 2226WAT     H2 6921   1.898   5.002   9.661
 2227WAT      O 6922   3.793   1.069   2.509
 2227WAT     H1 6923   3.715   1.127   2.529
 2227WAT     H2 6924   3.771   1.008   2.433
 2228WAT      O 6925   1.082   0.506   7.711
 2228WAT     H1 6926   1.057   0.581   7.651
 2228WAT     H2 6927   1.090   0.539   7.805
 2229WAT      O 6928   3.653   2.426   7.731
 2229WAT     H1 6929   3.578   2.394   7.790
 2229WAT     H2 6930   3.718   2.478   7.786
 2230WAT      O 6931   1.344   6.332   8.972
 2230WAT     H1 6932   1.343   6.313   9.071
 2230WAT     H2 6933   1.373   6.426   8.957
 2231WAT      O 6934   7.536   3.562   3.287
 2231WAT     H1 6935   7.526   3.471   3.246
 2231WAT     H2 6936   7.591   3.555   3.370
 2232WAT      O 6937   4.329   0.080   0.013
 2232WAT     H1 6938   4.269   0.144  -0.036
 2232WAT     H2 6939   4.411   0.063  -0.041
 2233WAT      O 6940   1.927   5.507   1.403
 2233WAT     H1 6941   1.893   5.475   1.315
 2233WAT     H2 6942   1.974   5.431   1.450
 2234WAT      O 6943   3.872   5.825   7.951
 2234WAT     H1 6944   3.850   5.756   8.019
 2234WAT     H2 6945   3.884   5.781   7.862
 2235WAT      O 6946   9.875   2.782   5.732
 2235WAT     H1 6947   9.908   2.866   5.774
 2235WAT     H2 6948   9.807   2.804   5.663
 2236WAT      O 6949   5.523   4.211   4.557
 2236WAT     H1 6950   5.587   4.134   4.555
 2236WAT     H2 6951   5.571   4.295   4.580
 2237WAT      O 6952   7.526   4.983   3.454
 2237WAT     H1 6953   7.608   5.018   3.500
 2237WAT     H2 6954   7.489   4.906   3.505
 2238WAT      O 6955   1.588   3.406   7.749
 2238WAT     H1 6956   1.497   3.414   7.790
 2238WAT     H2 6957   1.636   3.327   7.788
 2239WAT      O 6958   9.304   7.169   4.263
 2239WAT     H1 6959   9.262   7.123   4.185
 2239WAT     H2 6960   9.351   7.101   4.319
 2240WAT      O 6961   5.146   9.825   2.413
 2240WAT     H1 6962   5.215   9.755   2.397
 2240WAT     H2 6963   5.126   9.872   2.327
 2241WAT      O 6964   9.653   6.179   6.649
 2241WAT     H1 6965   9.745   6.147   6.670
 2241WAT     H2 6966   9.657   6.251   6.580
 2242WAT      O 6967   8.089   8.622   1.292
 2242WAT     H1 6968   7.992   8.611   1.314
 2242WAT     H2 6969   8.128   8.692   1.351
 2243WAT      O 6970   3.390   9.328   9.791
 2243WAT     H1 6971   3.417   9.371   9.876
 2243WAT     H2 6972   3.392   9.228   9.801
 2244WAT      O 6973   2.968   6.113   2.937
 2244WAT     H1 6974   3.006   6.022   2.922
 2244WAT     H2 6975   2.934   6.150   2.851
 2245WAT      O 6976   4.094   3.167   9.104
 2245WAT     H1 6977   4.075   3.265   9.105
 2245WAT     H2 6978   4.060   3.126   9.189
 2246WAT      O 6979   6.073   4.572   9.020
 2246WAT     H1 6980   6.167   4.546   9.041
 2246WAT     H2 6981   6.028   4.496   8.972
 2247WAT      O 6982   2.050   2.272   5.233
 2247WAT     H1 6983   1.964   2.320   5.216
 2247WAT     H2 6984   2.031   2.184   5.276
 2248WAT      O 6985   7.327   4.675   4.290
 2248WAT     H1 6986   7.303   4.673   4.387
 2248WAT     H2 6987   7.397   4.606   4.271
 2249WAT      O 6988   5.903   6.936   1.429
 2249WAT     H1 6989   5.957   6.861   1.390
 2249WAT     H2 6990   5.889   6.920   1.527
 2250WAT      O 6991   9.809   4.476   5.771
 2250WAT     H1 6992   9.864   4.401   5.734
 2250WAT     H2 6993   9.739   4.502   5.705
 2251WAT      O 6994   0.701   0.730   7.522
 2251WAT     H1 6995   0.625   0.772   7.473
 2251WAT     H2 6996   0.675   0.716   7.618
 2252WAT      O 6997   1.807   5.293   3.072
 2252WAT     H1 6998   1.887   5.346   3.100
 2252WAT     H2 6999   1.728   5.354   3.062
 2253WAT      O 7000   7.474   6.970   1.155
 2253WAT     H1 7001   7.424   7.009   1.078
 2253WAT     H2 7002   7.558   6.927   1.121
 2254WAT      O 7003   9.068   5.814   1.398
 2254WAT     H1 7004   8.996   5.819   1.329
 2254WAT     H2 7005   9.150   5.859   1.364
 2255WAT      O 7006   9.586   9.091   8.531
 2255WAT     H1 7007   9.598   9.171   8.473
 2255WAT     H2 7008   9.648   9.096   8.609
 2256WAT      O 7009   0.729   9.640   8.947
 2256WAT     H1 7010   0.702   9.544   8.948
 2256WAT     H2 7011   0.791   9.656   8.870
 2257WAT      O 7012   6.931   3.767   7.423
 2257WAT     H1 7013   6.894   3.853   7.389
 2257WAT     H2 7014   6.949   3.706   7.346
 2258WAT      O 7015   5.858   3.562   1.557
 2258WAT     H1 7016   5.772   3.594   1.517
 2258WAT     H2 7017   5.935   3.601   1.507
 2259WAT      O 7018   3.656   2.061   7.849
 2259WAT     H1 7019   3.591   2.088   7.920
 2259WAT     H2 7020   3.744   2.038   7.891
 2260WAT      O 7021   6.976   8.030   5.986
 2260WAT     H1 7022   6.970   8.011   6.085
 2260WAT     H2 7023   7.069   8.010   5.955
 2261WAT      O 7024   4.293   7.111   7.763
 2261WAT     H1 7025   4.284   7.115   7.863
 2261WAT     H2 7026   4.388   7.131   7.738
 2262WAT      O 7027   0.387   4.596   8.942
 2262WAT     H1 7028   0.310   4.643   8.900
 2262WAT     H2 7029   0.472   4.626   8.900
 2263WAT      O 7030   9.740   5.619   3.704
 2263WAT     H1 7031   9.670   5.568   3.755
 2263WAT     H2 7032   9.828   5.572   3.713
 2264WAT      O 7033   3.007   2.925   1.423
 2264WAT     H1 7034   3.089   2.971   1.457
 2264WAT     H2 7035   2.967   2.871   1.497
 2265WAT      O 7036   2.339   5.917   8.448
 2265WAT     H1 7037   2.256   5.861   8.448
 2265WAT     H2 7038   2.419   5.858   8.435
 2266WAT      O 7039   3.753   8.876   8.279
 2266WAT     H1 7040   3.789   8.953   8.226
 2266WAT     H2 7041   3.707   8.812   8.217
 2267WAT      O 7042   1.170   1.797   7.597
 2267WAT     H1 7043   1.141   1.752   7.513
 2267WAT     H2 7044   1.130   1.888   7.602
 2268WAT      O 7045   9.687   0.204   1.215
 2268WAT     H1 7046   9.588   0.209   1.228
 2268WAT     H2 7047   9.729   0.285   1.255
 2269WAT      O 7048   3.116   0.027   1.718
 2269WAT     H1 7049   3.038   0.089   1.710
 2269WAT     H2 7050   3.115  -0.016   1.809
 2270WAT      O 7051   0.903   4.399   1.677
 2270WAT     H1 7052   0.810   4.380   1.710
 2270WAT     H2 7053   0.969   4.368   1.745
 2271WAT      O 7054   6.889   2.459   0.388
 2271WAT     H1 7055   6.929   2.372   0.362
 2271WAT     H2 7056   6.793   2.446   0.412
 2272WAT      O 7057   9.857   1.137   5.307
 2272WAT     H1 7058   9.903   1.219   5.340
 2272WAT     H2 7059   9.813   1.156   5.219
 2273WAT      O 7060   2.326   7.565   9.296
 2273WAT     H1 7061   2.348   7.482   9.244
 2273WAT     H2 7062   2.393   7.577   9.370
 2274WAT      O 7063   5.412   0.801   3.795
 2274WAT     H1 7064   5.403   0.790   3.696
 2274WAT     H2 7065   5.324   0.826   3.834
 2275WAT      O 7066   7.764   0.727   5.968
 2275WAT     H1 7067   7.852   0.745   5.924
 2275WAT     H2 7068   7.730   0.638   5.937
 2276WAT      O 7069   4.803   3.782   7.289
 2276WAT     H1 7070   4.892   3.762   7.330
 2276WAT     H2 7071   4.793   3.729   7.205
 2277WAT      O 7072   5.995   8.104   6.177
 2277WAT     H1 7073   5.901   8.071   6.171
 2277WAT     H2 7074   5.995   8.202   6.194
 2278WAT      O 7075   0.691   0.535   8.130
 2278WAT     H1 7076   0.624   0.487   8.186
 2278WAT     H2 7077   0.646   0.611   8.082
 2279WAT      O 7078   9.716   0.891   7.023
 2279WAT     H1 7079   9.783   0.927   6.958
 2279WAT     H2 7080   9.671   0.810   6.984
 2280WAT      O 7081   3.451   6.241   3.751
 2280WAT     H1 7082   3.366   6.278   3.714
 2280WAT     H2 7083   3.438   6.214   3.846
 2281WAT      O 7084   4.899   8.826   0.400
 2281WAT     H1 7085   4.931   8.742   0.445
 2281WAT     H2 7086   4.825   8.866   0.454
 2282WAT      O 7087   8.236   1.444   8.637
 2282WAT     H1 7088   8.278   1.356   8.657
 2282WAT     H2 7089   8.220   1.452   8.538
 2283WAT      O 7090   1.334   3.306   2.847
 2283WAT     H1 7091   1.416   3.300   2.904
 2283WAT     H2 7092   1.341   3.386   2.788
 2284WAT      O 7093   3.121   8.504   1.906
 2284WAT     H1 7094   3.115   8.477   2.002
 2284WAT     H2 7095   3.195   8.570   1.894
 2285WAT      O 7096   3.970   1.821   9.213
 2285WAT     H1 7097   4.030   1.743   9.197
 2285WAT     H2 7098   4.026   1.902   9.230
 2286WAT      O 7099   2.042   0.705   3.539
 2286WAT     H1 7100   2.136   0.738   3.544
 2286WAT     H2 7101   1.979   0.783   3.536
 2287WAT      O 7102   1.221   9.478   9.199
 2287WAT     H1 7103   1.293   9.479   9.129
 2287WAT     H2 7104   1.261   9.455   9.288
 2288WAT      O 7105   7.085   9.138   1.637
 2288WAT     H1 7106   7.024   9.096   1.570
 2288WAT     H2 7107   7.048   9.124   1.729
 2289WAT      O 7108   6.544   0.284   4.998
 2289WAT     H1 7109   6.606   0.212   5.029
 2289WAT     H2 7110   6.579   0.373   5.028
 2290WAT      O 7111   9.441   1.594   6.236
 2290WAT     H1 7112   9.512   1.577   6.167
 2290WAT     H2 7113   9.454   1.532   6.313
 2291WAT      O 7114   3.710   6.415   9.819
 2291WAT     H1 7115   3.650   6.398   9.897
 2291WAT     H2 7116   3.706   6.511   9.794
 2292WAT      O 7117   2.583   1.950   1.126
 2292WAT     H1 7118   2.538   2.008   1.194
 2292WAT     H2 7119   2.536   1.861   1.122
 2293WAT      O 7120   7.200   8.446   8.510
 2293WAT     H1 7121   7.267   8.513   8.541
 2293WAT     H2 7122   7.195   8.370   8.575
 2294WAT      O 7123   0.023   5.131   1.393
 2294WAT     H1 7124   0.062   5.187   1.466
 2294WAT     H2 7125   0.024   5.183   1.307
 2295WAT      O 7126   6.712   6.620   2.105
 2295WAT     H1 7127   6.778   6.588   2.172
 2295WAT     H2 7128   6.760   6.666   2.030
 2296WAT      O 7129   4.155   0.895   6.221
 2296WAT     H1 7130   4.178   0.915   6.316
 2296WAT     H2 7131   4.131   0.979   6.174
 2297WAT      O 7132   4.649   8.701   9.351
 2297WAT     H1 7133   4.560   8.739   9.323
 2297WAT     H2 7134   4.716   8.775   9.356
 2298WAT      O 7135   2.516   3.760   3.162
 2298WAT     H1 7136   2.447   3.823   3.126
 2298WAT     H2 7137   2.528   3.776   3.260
 2299WAT      O 7138   9.621   7.644   7.994
 2299WAT     H1 7139   9.574   7.556   8.002
 2299WAT     H2 7140   9.720   7.630   7.992
 2300WAT      O 7141   2.912   8.782   5.825
 2300WAT     H1 7142   2.899   8.763   5.923
 2300WAT     H2 7143   2.909   8.881   5.810
 2301WAT      O 7144   3.528   8.045   9.014
 2301WAT     H1 7145   3.489   8.085   9.098
 2301WAT     H2 7146   3.457   8.039   8.944
 2302WAT      O 7147   4.300   0.018   1.197
 2302WAT     H1 7148   4.313   0.002   1.100
 2302WAT     H2 7149   4.382   0.059   1.235
 2303WAT      O 7150   3.622   5.514   0.786
 2303WAT     H1 7151   3.581   5.445   0.847
 2303WAT     H2 7152   3.713   5.538   0.820
 2304WAT      O 7153   1.785   2.169   2.804
 2304WAT     H1 7154   1.772   2.070   2.796
 2304WAT     H2 7155   1.835   2.203   2.725
 2305WAT      O 7156   4.929   1.981   5.959
 2305WAT     H1 7157   4.941   1.897   6.013
 2305WAT     H2 7158   4.833   1.988   5.931
 2306WAT      O 7159   0.682   3.035   2.483
 2306WAT     H1 7160   0.704   3.040   2.580
 2306WAT     H2 7161   0.692   3.126   2.442
 2307WAT      O 7162   5.619   0.184   3.992
 2307WAT     H1 7163   5.708   0.138   3.995
 2307WAT     H2 7164   5.624   0.262   3.929
 2308WAT      O 7165   7.003   5.029   4.267
 2308WAT     H1 7166   7.086   5.061   4.222
 2308WAT     H2 7167   6.928   5.027   4.201
 2309WAT      O 7168   1.762   4.863   5.920
 2309WAT     H1 7169   1.740   4.885   5.825
 2309WAT     H2 7170   1.834   4.924   5.953
 2310WAT      O 7171   4.479   6.269   8.322
 2310WAT     H1 7172   4.454   6.220   8.406
 2310WAT     H2 7173   4.436   6.225   8.243
 2311WAT      O 7174   0.581   6.832   5.119
 2311WAT     H1 7175   0.663   6.884   5.096
 2311WAT     H2 7176   0.607   6.742   5.155
 2312WAT      O 7177   9.221   4.039   5.978
 2312WAT     H1 7178   9.173   4.121   5.947
 2312WAT     H2 7179   9.203   4.025   6.076
 2313WAT      O 7180   2.309   6.787   9.861
 2313WAT     H1 7181   2.323   6.858   9.931
 2313WAT     H2 7182   2.331   6.697   9.899
 2314WAT      O 7183   0.074   7.647   7.597
 2314WAT     H1 7184  -0.020   7.624   7.624
 2314WAT     H2 7185   0.097   7.738   7.630
 2315WAT      O 7186   9.818   2.463   1.328
 2315WAT     H1 7187   9.850   2.386   1.273
 2315WAT     H2 7188   9.879   2.541   1.314
 2316WAT      O 7189   1.492   0.233   9.696
 2316WAT     H1 7190   1.403   0.280   9.696
 2316WAT     H2 7191   1.487   0.153   9.756
 2317WAT      O 7192   3.062   7.520   7.550
 2317WAT     H1 7193   3.036   7.579   7.626
 2317WAT     H2 7194   3.086   7.429   7.586
 2318WAT      O 7195   1.975   6.201   9.574
 2318WAT     H1 7196   1.917   6.232   9.500
 2318WAT     H2 7197   2.043   6.271   9.595
 2319WAT      O 7198   1.742   3.996   5.535
 2319WAT     H1 7199   1.737   3.916   5.594
 2319WAT     H2 7200   1.688   4.070   5.575
 2320WAT      O 7201   0.914   2.892   2.000
 2320WAT     H1 7202   0.886   2.902   2.096
 2320WAT     H2 7203   1.013   2.904   1.992
 2321WAT      O 7204   1.310   1.235   4.647
 2321WAT     H1 7205   1.331   1.203   4.739
 2321WAT     H2 7206   1.215   1.267   4.644
 2322WAT      O 7207   0.733   0.317   3.164
 2322WAT     H1 7208   0.638   0.289   3.148
 2322WAT     H2 7209   0.735   0.414   3.187
 2323WAT      O 7210   7.297   9.141   6.029
 2323WAT     H1 7211   7.369   9.122   5.963
 2323WAT     H2 7212   7.328   9.211   6.093
 2324WAT      O 7213   4.613   7.730   1.486
 2324WAT     H1 7214   4.571   7.725   1.577
 2324WAT     H2 7215   4.661   7.817   1.478
 2325WAT      O 7216   4.227   2.002   8.619
 2325WAT     H1 7217   4.321   2.035   8.623
 2325WAT     H2 7218   4.194   1.983   8.711
 2326WAT      O 7219   4.615   0.703   6.408
 2326WAT     H1 7220   4.629   0.643   6.487
 2326WAT     H2 7221   4.672   0.672   6.332
 2327WAT      O 7222   8.613   0.175   6.578
 2327WAT     H1 7223   8.698   0.209   6.537
 2327WAT     H2 7224   8.580   0.096   6.527
 2328WAT      O 7225   7.966   5.022   6.338
 2328WAT     H1 7226   7.912   5.080   6.400
 2328WAT     H2 7227   8.063   5.043   6.348
 2329WAT      O 7228   4.434   1.582   2.450
 2329WAT     H1 7229   4.354   1.565   2.507
 2329WAT     H2 7230   4.406   1.624   2.364
 2330WAT      O 7231   1.738   0.374   8.203
 2330WAT     H1 7232   1.695   0.290   8.168
 2330WAT     H2 7233   1.756   0.363   8.300
 2331WAT      O 7234   2.722   7.679   6.172
 2331WAT     H1 7235   2.732   7.772   6.207
 2331WAT     H2 7236   2.790   7.620   6.215
 2332WAT      O 7237   3.022   8.411   9.214
 2332WAT     H1 7238   3.086   8.407   9.292
 2332WAT     H2 7239   3.047   8.488   9.155
 2333WAT      O 7240   4.871   7.402   7.418
 2333WAT     H1 7241   4.942   7.382   7.351
 2333WAT     H2 7242   4.785   7.423   7.370
 2334WAT      O 7243   1.078   9.753   5.735
 2334WAT     H1 7244   1.060   9.656   5.719
 2334WAT     H2 7245   1.136   9.763   5.816
 2335WAT      O 7246   9.738   6.412   9.206
 2335WAT     H1 7247   9.825   6.436   9.163
 2335WAT     H2 7248   9.719   6.478   9.280
 2336WAT      O 7249   5.620   8.380   1.732
 2336WAT     H1 7250   5.531   8.342   1.705
 2336WAT     H2 7251   5.693   8.322   1.695
 2337WAT      O 7252   1.716   8.617   0.154
 2337WAT     H1 7253   1.732   8.527   0.115
 2337WAT     H2 7254   1.780   8.633   0.230
 2338WAT      O 7255   3.177   3.604   5.537
 2338WAT     H1 7256   3.267   3.629   5.500
 2338WAT     H2 7257   3.147   3.675   5.601
 2339WAT      O 7258   0.926   0.712   5.832
 2339WAT     H1 7259   0.929   0.757   5.921
 2339WAT     H2 7260   0.837   0.668   5.819
 2340WAT      O 7261   0.517   5.073   2.497
 2340WAT     H1 7262   0.522   5.132   2.416
 2340WAT     H2 7263   0.556   4.983   2.475
 2341WAT      O 7264   1.817   3.668   1.905
 2341WAT     H1 7265   1.780   3.611   1.978
 2341WAT     H2 7266   1.744   3.726   1.868
 2342WAT      O 7267   6.407   2.590   0.756
 2342WAT     H1 7268   6.349   2.548   0.686
 2342WAT     H2 7269   6.498   2.605   0.719
 2343WAT      O 7270   4.600   0.686   3.429
 2343WAT     H1 7271   4.583   0.689   3.527
 2343WAT     H2 7272   4.644   0.772   3.400
 2344WAT      O 7273   3.178   1.003   3.312
 2344WAT     H1 7274   3.161   1.019   3.215
 2344WAT     H2 7275   3.272   0.971   3.325
 2345WAT      O 7276   3.587   2.734   5.543
 2345WAT     H1 7277   3.595   2.634   5.541
 2345WAT     H2 7278   3.510   2.760   5.602
 2346WAT      O 7279   6.907   6.510   4.308
 2346WAT     H1 7280   6.837   6.575   4.278
 2346WAT     H2 7281   6.911   6.509   4.408
 2347WAT      O 7282   2.685   5.823   4.732
 2347WAT     H1 7283   2.783   5.817   4.711
 2347WAT     H2 7284   2.641   5.736   4.712
 2348WAT      O 7285   1.512   3.647   8.385
 2348WAT     H1 7286   1.514   3.547   8.384
 2348WAT     H2 7287   1.437   3.680   8.328
 2349WAT      O 7288   9.485   6.273   8.633
 2349WAT     H1 7289   9.550   6.210   8.676
 2349WAT     H2 7290   9.422   6.221   8.576
 2350WAT      O 7291   7.217   6.934   9.208
 2350WAT     H1 7292   7.248   7.004   9.143
 2350WAT     H2 7293   7.195   6.850   9.158
 2351WAT      O 7294   6.282   7.075   0.463
 2351WAT     H1 7295   6.346   7.150   0.449
 2351WAT     H2 7296   6.192   7.112   0.488
 2352WAT      O 7297   1.522   7.574   6.962
 2352WAT     H1 7298   1.530   7.616   7.052
 2352WAT     H2 7299   1.551   7.639   6.892
 2353WAT      O 7300   3.665   2.804   2.510
 2353WAT     H1 7301   3.640   2.732   2.575
 2353WAT     H2 7302   3.666   2.892   2.558
 2354WAT      O 7303   4.049   7.886   1.394
 2354WAT     H1 7304   4.071   7.974   1.351
 2354WAT     H2 7305   3.967   7.848   1.351
 2355WAT      O 7306   1.620   2.569   3.001
 2355WAT     H1 7307   1.702   2.511   3.002
 2355WAT     H2 7308   1.576   2.566   3.091
 2356WAT      O 7309   4.384   2.822   9.040
 2356WAT     H1 7310   4.464   2.764   9.022
 2356WAT     H2 7311   4.336   2.840   8.954
 2357WAT      O 7312   7.103   5.624   2.840
 2357WAT     H1 7313   7.017   5.612   2.791
 2357WAT     H2 7314   7.138   5.535   2.869
 2358WAT      O 7315   3.856   8.994   5.788
 2358WAT     H1 7316   3.778   8.968   5.731
 2358WAT     H2 7317   3.864   9.093   5.791
 2359WAT      O 7318   5.718   1.523   8.088
 2359WAT     H1 7319   5.735   1.558   8.180
 2359WAT     H2 7320   5.784   1.451   8.067
 2360WAT      O 7321   8.555   3.424   1.940
 2360WAT     H1 7322   8.527   3.328   1.951
 2360WAT     H2 7323   8.530   3.455   1.848
 2361WAT      O 7324   5.272   8.076   4.358
 2361WAT     H1 7325   5.245   7.980   4.361
 2361WAT     H2 7326   5.318   8.101   4.443
 2362WAT      O 7327   4.150   8.398   4.617
 2362WAT     H1 7328   4.090   8.416   4.696
 2362WAT     H2 7329   4.121   8.315   4.571
 2363WAT      O 7330   0.872   6.967   1.444
 2363WAT     H1 7331   0.931   7.023   1.385
 2363WAT     H2 7332   0.790   6.941   1.393
 2364WAT      O 7333   8.527   1.115   5.376
 2364WAT     H1 7334   8.615   1.161   5.390
 2364WAT     H2 7335   8.460   1.152   5.441
 2365WAT      O 7336   6.803   8.779   9.649
 2365WAT     H1 7337   6.899   8.785   9.676
 2365WAT     H2 7338   6.754   8.860   9.681
 2366WAT      O 7339   7.579   1.500   3.353
 2366WAT     H1 7340   7.556   1.416   3.305
 2366WAT     H2 7341   7.644   1.553   3.298
 2367WAT      O 7342   1.567   6.560   7.119
 2367WAT     H1 7343   1.552   6.557   7.217
 2367WAT     H2 7344   1.663   6.577   7.099
 2368WAT      O 7345   9.345   6.385   5.238
 2368WAT     H1 7346   9.406   6.456   5.202
 2368WAT     H2 7347   9.400   6.310   5.276
 2369WAT      O 7348   6.820   2.013   8.760
 2369WAT     H1 7349   6.879   1.946   8.805
 2369WAT     H2 7350   6.855   2.105   8.778
 2370WAT      O 7351   7.193   2.071   2.117
 2370WAT     H1 7352   7.256   2.119   2.056
 2370WAT     H2 7353   7.193   1.974   2.096
 2371WAT      O 7354   6.582   3.663   3.941
 2371WAT     H1 7355   6.593   3.739   4.004
 2371WAT     H2 7356   6.576   3.698   3.847
 2372WAT      O 7357   0.875   6.330   8.991
 2372WAT     H1 7358   0.792   6.295   8.947
 2372WAT     H2 7359   0.949   6.263   8.982
 2373WAT      O 7360   3.611   8.075   0.088
 2373WAT     H1 7361   3.654   8.120   0.167
 2373WAT     H2 7362   3.629   8.128   0.006
 2374WAT      O 7363   5.987   2.586   0.226
 2374WAT     H1 7364   5.964   2.651   0.155
 2374WAT     H2 7365   6.079   2.550   0.211
 2375WAT      O 7366   8.875   3.155   9.621
 2375WAT     H1 7367   8.829   3.073   9.587
 2375WAT     H2 7368   8.827   3.237   9.587
 2376WAT      O 7369   1.992   5.761   1.503
 2376WAT     H1 7370   1.961   5.675   1.463
 2376WAT     H2 7371   1.942   5.837   1.462
 2377WAT      O 7372   2.899   6.550   1.817
 2377WAT     H1 7373   2.928   6.633   1.864
 2377WAT     H2 7374   2.943   6.546   1.727
 2378WAT      O 7375   2.387   4.507   8.538
 2378WAT     H1 7376   2.328   4.441   8.492
 2378WAT     H2 7377   2.472   4.519   8.486
 2379WAT      O 7378   9.558   3.252   2.621
 2379WAT     H1 7379   9.540   3.173   2.562
 2379WAT     H2 7380   9.493   3.252   2.698
 2380WAT      O 7381   1.601   5.040   2.458
 2380WAT     H1 7382   1.553   4.980   2.522
 2380WAT     H2 7383   1.676   5.086   2.505
 2381WAT      O 7384   3.525   1.230   7.867
 2381WAT     H1 7385   3.466   1.304   7.901
 2381WAT     H2 7386   3.603   1.219   7.929
 2382WAT      O 7387   3.936   2.177   3.203
 2382WAT     H1 7388   3.844   2.163   3.166
 2382WAT     H2 7389   3.959   2.274   3.200
 2383WAT      O 7390   7.125   8.346   0.954
 2383WAT     H1 7391   7.083   8.376   0.868
 2383WAT     H2 7392   7.114   8.419   1.023
 2384WAT      O 7393   5.692   3.351   2.011
 2384WAT     H1 7394   5.601   3.339   1.973
 2384WAT     H2 7395   5.709   3.448   2.028
 2385WAT      O 7396   0.948   5.477   5.216
 2385WAT     H1 7397   1.011   5.553   5.201
 2385WAT     H2 7398   0.978   5.398   5.163
 2386WAT      O 7399   2.162   7.148   4.942
 2386WAT     H1 7400   2.145   7.153   4.843
 2386WAT     H2 7401   2.148   7.238   4.983
 2387WAT      O 7402   8.707   9.457   8.020
 2387WAT     H1 7403   8.801   9.430   8.039
 2387WAT     H2 7404   8.685   9.436   7.924
 2388WAT      O 7405   1.470   3.766   1.234
 2388WAT     H1 7406   1.482   3.680   1.184
 2388WAT     H2 7407   1.377   3.772   1.270
 2389WAT      O 7408   0.472   2.433   8.630
 2389WAT     H1 7409   0.546   2.500   8.630
 2389WAT     H2 7410   0.462   2.394   8.721
 2390WAT      O 7411   3.681   3.227   2.177
 2390WAT     H1 7412   3.673   3.173   2.093
 2390WAT     H2 7413   3.628   3.183   2.250
 2391WAT      O 7414   5.743   9.658   3.892
 2391WAT     H1 7415   5.677   9.583   3.898
 2391WAT     H2 7416   5.831   9.622   3.861
 2392WAT      O 7417   7.276   1.354   6.628
 2392WAT     H1 7418   7.256   1.452   6.636
 2392WAT     H2 7419   7.346   1.340   6.557
 2393WAT      O 7420   0.268   3.693   7.407
 2393WAT     H1 7421   0.248   3.790   7.417
 2393WAT     H2 7422   0.366   3.680   7.394
 2394WAT      O 7423   2.486   6.285   5.081
 2394WAT     H1 7424   2.402   6.284   5.027
 2394WAT     H2 7425   2.504   6.378   5.115
 2395WAT      O 7426   2.223   1.128   1.585
 2395WAT     H1 7427   2.239   1.110   1.682
 2395WAT     H2 7428   2.234   1.226   1.567
 2396WAT      O 7429   8.203   4.516   6.453
 2396WAT     H1 7430   8.107   4.543   6.454
 2396WAT     H2 7431   8.234   4.504   6.359
 2397WAT      O 7432   7.286   6.759   7.878
 2397WAT     H1 7433   7.313   6.703   7.956
 2397WAT     H2 7434   7.350   6.746   7.803
 2398WAT      O 7435   2.166   0.657   7.161
 2398WAT     H1 7436   2.207   0.581   7.111
 2398WAT     H2 7437   2.182   0.742   7.111
 2399WAT      O 7438   4.546   2.357   1.822
 2399WAT     H1 7439   4.574   2.269   1.861
 2399WAT     H2 7440   4.626   2.417   1.815
 2400WAT      O 7441   2.723   3.082   1.086
 2400WAT     H1 7442   2.634   3.048   1.117
 2400WAT     H2 7443   2.751   3.160   1.142
 2401WAT      O 7444   9.864   8.457   5.147
 2401WAT     H1 7445   9.960   8.443   5.123
 2401WAT     H2 7446   9.811   8.470   5.063
 2402WAT      O 7447   7.996   2.446   7.893
 2402WAT     H1 7448   7.998   2.536   7.936
 2402WAT     H2 7449   8.003   2.457   7.794
 2403WAT      O 7450   1.395   4.748   5.584
 2403WAT     H1 7451   1.334   4.700   5.520
 2403WAT     H2 7452   1.391   4.703   5.673
 2404WAT      O 7453   1.953   7.293   3.320
 2404WAT     H1 7454   2.008   7.375   3.336
 2404WAT     H2 7455   1.905   7.268   3.404
 2405WAT      O 7456   3.116   7.971   0.962
 2405WAT     H1 7457   3.125   8.017   0.874
 2405WAT     H2 7458   3.079   7.879   0.948
 2406WAT      O 7459   2.431   1.049   9.477
 2406WAT     H1 7460   2.379   1.118   9.527
 2406WAT     H2 7461   2.408   0.958   9.511
 2407WAT      O 7462   4.121   9.651   5.434
 2407WAT     H1 7463   4.204   9.598   5.416
 2407WAT     H2 7464   4.118   9.731   5.375
 2408WAT      O 7465   3.964   0.233   7.188
 2408WAT     H1 7466   4.045   0.292   7.184
 2408WAT     H2 7467   3.925   0.235   7.280
 2409WAT      O 7468   7.543   6.251   4.703
 2409WAT     H1 7469   7.590   6.163   4.696
 2409WAT     H2 7470   7.508   6.264   4.796
 2410WAT      O 7471   7.719   6.360   2.022
 2410WAT     H1 7472   7.665   6.343   1.939
 2410WAT     H2 7473   7.704   6.285   2.087
 2411WAT      O 7474   1.077   9.318   0.623
 2411WAT     H1 7475   1.039   9.311   0.530
 2411WAT     H2 7476   1.009   9.284   0.689
 2412WAT      O 7477   3.893   6.461   3.320
 2412WAT     H1 7478   3.905   6.386   3.384
 2412WAT     H2 7479   3.934   6.437   3.232
 2413WAT      O 7480   2.052   6.503   0.774
 2413WAT     H1 7481   2.108   6.578   0.739
 2413WAT     H2 7482   2.105   6.418   0.772
 2414WAT      O 7483   6.620   7.509   7.805
 2414WAT     H1 7484   6.652   7.600   7.778
 2414WAT     H2 7485   6.693   7.462   7.856
 2415WAT      O 7486   3.010   3.091   7.270
 2415WAT     H1 7487   3.092   3.090   7.328
 2415WAT     H2 7488   2.987   3.186   7.247
 2416WAT      O 7489   1.321   3.061   2.980
 2416WAT     H1 7490   1.415   3.038   3.002
 2416WAT     H2 7491   1.319   3.144   2.924
 2417WAT      O 7492   0.744   3.732   8.898
 2417WAT     H1 7493   0.689   3.679   8.833
 2417WAT     H2 7494   0.773   3.817   8.854
 2418WAT      O 7495   0.965   4.124   1.291
 2418WAT     H1 7496   0.903   4.179   1.347
 2418WAT     H2 7497   1.041   4.181   1.260
 2419WAT      O 7498   5.852   3.216   0.231
 2419WAT     H1 7499   5.943   3.235   0.193
 2419WAT     H2 7500   5.785   3.279   0.191
 2420WAT      O 7501   0.603   0.665   6.149
 2420WAT     H1 7502   0.573   0.737   6.085
 2420WAT     H2 7503   0.526   0.638   6.207
 2421WAT      O 7504   9.662   3.371   1.321
 2421WAT     H1 7505   9.669   3.455   1.376
 2421WAT     H2 7506   9.678   3.292   1.380
 2422WAT      O 7507   5.858   8.842   4.582
 2422WAT     H1 7508   5.839   8.746   4.600
 2422WAT     H2 7509   5.898   8.883   4.664
 2423WAT      O 7510   3.590   6.695   1.029
 2423WAT     H1 7511   3.606   6.629   0.956
 2423WAT     H2 7512   3.636   6.665   1.113
 2424WAT      O 7513   3.296   6.825   7.317
 2424WAT     H1 7514   3.218   6.761   7.316
 2424WAT     H2 7515   3.267   6.913   7.278
 2425WAT      O 7516   3.499   9.056   7.973
 2425WAT     H1 7517   3.525   9.104   7.889
 2425WAT     H2 7518   3.488   9.122   8.047
 2426WAT      O 7519   2.550   6.763   4.977
 2426WAT     H1 7520   2.472   6.799   5.028
 2426WAT     H2 7521   2.602   6.839   4.937
 2427WAT      O 7522   3.633   2.337   8.174
 2427WAT     H1 7523   3.593   2.424   8.203
 2427WAT     H2 7524   3.732   2.340   8.186
 2428WAT      O 7525   5.083   3.964   0.041
 2428WAT     H1 7526   5.104   3.924  -0.048
 2428WAT     H2 7527   4.987   3.991   0.044
 2429WAT      O 7528   8.430   8.683   3.474
 2429WAT     H1 7529   8.442   8.644   3.566
 2429WAT     H2 7530   8.341   8.657   3.438
 2430WAT      O 7531   2.994   6.221   8.000
 2430WAT     H1 7532   3.016   6.137   8.049
 2430WAT     H2 7533   3.023   6.212   7.904
 2431WAT      O 7534   0.947   2.866   8.097
 2431WAT     H1 7535   1.013   2.792   8.084
 2431WAT     H2 7536   0.856   2.835   8.070
 2432WAT      O 7537   4.092   3.800   6.192
 2432WAT     H1 7538   4.042   3.748   6.123
 2432WAT     H2 7539   4.085   3.898   6.172
 2433WAT      O 7540   1.341   9.720   0.187
 2433WAT     H1 7541   1.350   9.688   0.281
 2433WAT     H2 7542   1.335   9.641   0.126
 2434WAT      O 7543   0.260   1.456   0.556
 2434WAT     H1 7544   0.229   1.495   0.469
 2434WAT     H2 7545   0.186   1.462   0.623
 2435WAT      O 7546   0.922   1.911   9.284
 2435WAT     H1 7547   0.947   1.822   9.247
 2435WAT     H2 7548   0.990   1.979   9.256
 2436WAT      O 7549   6.241   5.278   6.168
 2436WAT     H1 7550   6.271   5.226   6.248
 2436WAT     H2 7551   6.155   5.325   6.189
 2437WAT      O 7552   1.261   8.580   8.630
 2437WAT     H1 7553   1.259   8.670   8.588
 2437WAT     H2 7554   1.202   8.578   8.710
 2438WAT      O 7555   6.262   2.785   8.580
 2438WAT     H1 7556   6.290   2.689   8.581
 2438WAT     H2 7557   6.256   2.819   8.674
 2439WAT      O 7558   9.727   0.191   5.805
 2439WAT     H1 7559   9.804   0.152   5.755
 2439WAT     H2 7560   9.681   0.118   5.857
 2440WAT      O 7561   0.060   7.672   8.514
 2440WAT     H1 7562   0.126   7.608   8.474
 2440WAT     H2 7563  -0.032   7.652   8.478
 2441WAT      O 7564   7.329   7.488   9.435
 2441WAT     H1 7565   7.241   7.523   9.401
 2441WAT     H2 7566   7.397   7.492   9.362
 2442WAT      O 7567   9.540   3.827   6.715
 2442WAT     H1 7568   9.504   3.774   6.638
 2442WAT     H2 7569   9.464   3.857   6.773
 2443WAT      O 7570   8.698   9.467   1.426
 2443WAT     H1 7571   8.760   9.513   1.489
 2443WAT     H2 7572   8.748   9.439   1.344
 2444WAT      O 7573   7.667   2.463   2.222
 2444WAT     H1 7574   7.674   2.554   2.262
 2444WAT     H2 7575   7.742   2.448   2.158
 2445WAT      O 7576   3.454   8.260   9.469
 2445WAT     H1 7577   3.443   8.246   9.371
 2445WAT     H2 7578   3.469   8.172   9.514
 2446WAT      O 7579   9.316   9.518   6.378
 2446WAT     H1 7580   9.367   9.515   6.465
 2446WAT     H2 7581   9.229   9.565   6.392
 2447WAT      O 7582   9.432   7.169   0.313
 2447WAT     H1 7583   9.370   7.150   0.388
 2447WAT     H2 7584   9.387   7.149   0.226
 2448WAT      O 7585   4.591   0.751   2.869
 2448WAT     H1 7586   4.500   0.736   2.831
 2448WAT     H2 7587   4.618   0.672   2.925
 2449WAT      O 7588   0.080   4.807   2.359
 2449WAT     H1 7589   0.057   4.871   2.433
 2449WAT     H2 7590   0.043   4.717   2.381
 2450WAT      O 7591   1.386   7.392   9.009
 2450WAT     H1 7592   1.455   7.392   9.081
 2450WAT     H2 7593   1.418   7.446   8.931
 2451WAT      O 7594   2.797   8.881   2.885
 2451WAT     H1 7595   2.819   8.783   2.879
 2451WAT     H2 7596   2.753   8.910   2.800
 2452WAT      O 7597   1.870   8.827   9.176
 2452WAT     H1 7598   1.803   8.813   9.249
 2452WAT     H2 7599   1.824   8.819   9.087
 2453WAT      O 7600   7.043   3.179   1.923
 2453WAT     H1 7601   7.041   3.093   1.974
 2453WAT     H2 7602   7.138   3.205   1.905
 2454WAT      O 7603   5.351   2.757   1.310
 2454WAT     H1 7604   5.415   2.696   1.265
 2454WAT     H2 7605   5.301   2.810   1.242
 2455WAT      O 7606   0.575   3.980   8.345
 2455WAT     H1 7607   0.633   3.986   8.426
 2455WAT     H2 7608   0.519   4.062   8.338
 2456WAT      O 7609   2.814   8.147   9.528
 2456WAT     H1 7610   2.773   8.059   9.553
 2456WAT     H2 7611   2.904   8.132   9.488
 2457WAT      O 7612   6.817   7.346   4.886
 2457WAT     H1 7613   6.855   7.272   4.941
 2457WAT     H2 7614   6.879   7.367   4.810
 2458WAT      O 7615   8.137   1.527   6.766
 2458WAT     H1 7616   8.074   1.518   6.843
 2458WAT     H2 7617   8.095   1.583   6.695
 2459WAT      O 7618   2.404   8.887   1.068
 2459WAT     H1 7619   2.308   8.874   1.092
 2459WAT     H2 7620   2.431   8.821   0.999
 2460WAT      O 7621   9.682   6.202   4.386
 2460WAT     H1 7622   9.780   6.218   4.373
 2460WAT     H2 7623   9.647   6.269   4.451
 2461WAT      O 7624   5.389   5.067   8.041
 2461WAT     H1 7625   5.468   5.011   8.019
 2461WAT     H2 7626   5.318   5.053   7.972
 2462WAT      O 7627   1.359   1.127   1.954
 2462WAT     H1 7628   1.451   1.090   1.938
 2462WAT     H2 7629   1.291   1.067   1.913
 2463WAT      O 7630   3.154   0.247   1.985
 2463WAT     H1 7631   3.138   0.309   1.908
 2463WAT     H2 7632   3.142   0.296   2.071
 2464WAT      O 7633   9.726   8.721   4.243
 2464WAT     H1 7634   9.693   8.716   4.337
 2464WAT     H2 7635   9.803   8.785   4.238
 2465WAT      O 7636   1.241   3.169   1.292
 2465WAT     H1 7637   1.177   3.153   1.367
 2465WAT     H2 7638   1.287   3.083   1.268
 2466WAT      O 7639   8.464   9.390   7.276
 2466WAT     H1 7640   8.382   9.350   7.235
 2466WAT     H2 7641   8.447   9.413   7.371
 2467WAT      O 7642   1.469   4.727   5.253
 2467WAT     H1 7643   1.559   4.683   5.247
 2467WAT     H2 7644   1.404   4.678   5.195
 2468WAT      O 7645   1.864   6.774   5.621
 2468WAT     H1 7646   1.807   6.704   5.664
 2468WAT     H2 7647   1.875   6.852   5.683
 2469WAT      O 7648   9.818   3.568   1.762
 2469WAT     H1 7649   9.767   3.620   1.831
 2469WAT     H2 7650   9.905   3.615   1.743
 2470WAT      O 7651   3.468   5.742   6.466
 2470WAT     H1 7652   3.522   5.753   6.549
 2470WAT     H2 7653   3.374   5.769   6.483
 2471WAT      O 7654   0.295   6.484   6.439
 2471WAT     H1 7655   0.198   6.469   6.419
 2471WAT     H2 7656   0.315   6.582   6.435
 2472WAT      O 7657   2.173   8.310   3.442
 2472WAT     H1 7658   2.255   8.272   3.400
 2472WAT     H2 7659   2.098   8.308   3.376
 2473WAT      O 7660   1.829   6.258   7.735
 2473WAT     H1 7661   1.908   6.319   7.741
 2473WAT     H2 7662   1.791   6.264   7.642
 2474WAT      O 7663   5.951   4.847   3.442
 2474WAT     H1 7664   5.944   4.836   3.541
 2474WAT     H2 7665   6.028   4.794   3.408
 2475WAT      O 7666   4.289   8.551   2.364
 2475WAT     H1 7667   4.195   8.584   2.359
 2475WAT     H2 7668   4.312   8.530   2.459
 2476WAT      O 7669   1.395   0.746   5.995
 2476WAT     H1 7670   1.470   0.731   6.060
 2476WAT     H2 7671   1.327   0.805   6.035
 2477WAT      O 7672   8.084   7.916   8.850
 2477WAT     H1 7673   8.136   7.834   8.872
 2477WAT     H2 7674   7.988   7.892   8.833
 2478WAT      O 7675   0.720   0.483   0.092
 2478WAT     H1 7676   0.754   0.560   0.146
 2478WAT     H2 7677   0.682   0.517   0.006
 2479WAT      O 7678   2.458   2.217   2.917
 2479WAT     H1 7679   2.511   2.258   2.990
 2479WAT     H2 7680   2.360   2.234   2.933
 2480WAT      O 7681   6.512   4.148   2.551
 2480WAT     H1 7682   6.604   4.139   2.587
 2480WAT     H2 7683   6.513   4.135   2.452
 2481WAT      O 7684   6.139   9.027   2.489
 2481WAT     H1 7685   6.178   8.941   2.456
 2481WAT     H2 7686   6.119   9.087   2.412
 2482WAT      O 7687   9.235   7.624   3.198
 2482WAT     H1 7688   9.232   7.570   3.282
 2482WAT     H2 7689   9.261   7.718   3.220
 2483WAT      O 7690   2.145   3.566   4.494
 2483WAT     H1 7691   2.200   3.485   4.516
 2483WAT     H2 7692   2.050   3.539   4.479
 2484WAT      O 7693   4.525   8.368   2.899
 2484WAT     H1 7694   4.611   8.327   2.866
 2484WAT     H2 7695   4.530   8.467   2.890
 2485WAT      O 7696   5.134   7.711   8.607
 2485WAT     H1 7697   5.201   7.744   8.674
 2485WAT     H2 7698   5.044   7.748   8.629
 2486WAT      O 7699   2.413   7.996   7.672
 2486WAT     H1 7700   2.351   7.918   7.664
 2486WAT     H2 7701   2.392   8.046   7.756
 2487WAT      O 7702   7.255   3.260   9.443
 2487WAT     H1 7703   7.267   3.268   9.344
 2487WAT     H2 7704   7.335   3.215   9.482
 2488WAT      O 7705   3.384   9.426   2.156
 2488WAT     H1 7706   3.440   9.501   2.190
 2488WAT     H2 7707   3.440   9.367   2.098
 2489WAT      O 7708   1.117   8.874   4.080
 2489WAT     H1 7709   1.153   8.781   4.095
 2489WAT     H2 7710   1.019   8.868   4.062
 2490WAT      O 7711   9.302   3.859   3.138
 2490WAT     H1 7712   9.378   3.881   3.078
 2490WAT     H2 7713   9.336   3.825   3.226
 2491WAT      O 7714   9.578   6.305   5.564
 2491WAT     H1 7715   9.582   6.273   5.658
 2491WAT     H2 7716   9.567   6.405   5.563
 2492WAT      O 7717   6.469   8.419   6.922
 2492WAT     H1 7718   6.369   8.421   6.914
 2492WAT     H2 7719   6.499   8.500   6.972
 2493WAT      O 7720   5.218   9.275   6.288
 2493WAT     H1 7721   5.143   9.318   6.239
 2493WAT     H2 7722   5.245   9.332   6.365
 2494WAT      O 7723   2.159   8.108   1.067
 2494WAT     H1 7724   2.212   8.023   1.065
 2494WAT     H2 7725   2.102   8.109   1.149
 2495WAT      O 7726   8.409   5.732   9.154
 2495WAT     H1 7727   8.385   5.703   9.062
 2495WAT     H2 7728   8.451   5.823   9.151
 2496WAT      O 7729   0.458   4.421   9.762
 2496WAT     H1 7730   0.418   4.501   9.719
 2496WAT     H2 7731   0.385   4.360   9.794
 2497WAT      O 7732   9.481   0.971   0.066
 2497WAT     H1 7733   9.425   1.028   0.006
 2497WAT     H2 7734   9.436   0.882   0.079
 2498WAT      O 7735   2.537   9.481   3.853
 2498WAT     H1 7736   2.547   9.397   3.906
 2498WAT     H2 7737   2.476   9.466   3.775
 2499WAT      O 7738   2.817   8.461   1.994
 2499WAT     H1 7739   2.879   8.522   1.945
 2499WAT     H2 7740   2.740   8.438   1.935
 2500WAT      O 7741   6.713   7.968   8.849
 2500WAT     H1 7742   6.723   7.895   8.781
 2500WAT     H2 7743   6.636   8.027   8.823
 2501WAT      O 7744   1.016   3.744   5.984
 2501WAT     H1 7745   1.019   3.667   5.921
 2501WAT     H2 7746   0.965   3.819   5.943
 2502WAT      O 7747   5.605   2.742   5.514
 2502WAT     H1 7748   5.554   2.737   5.600
 2502WAT     H2 7749   5.671   2.668   5.510
 2503WAT      O 7750   5.964   7.227   9.347
 2503WAT     H1 7751   5.921   7.138   9.335
 2503WAT     H2 7752   5.922   7.293   9.285
 2504WAT      O 7753   0.705   0.402   5.023
 2504WAT     H1 7754   0.805   0.407   5.023
 2504WAT     H2 7755   0.675   0.346   4.946
 2505WAT      O 7756   5.759   2.997   7.589
 2505WAT     H1 7757   5.845   2.996   7.640
 2505WAT     H2 7758   5.778   2.997   7.491
 2506WAT      O 7759   0.441   2.677   8.824
 2506WAT     H1 7760   0.531   2.636   8.809
 2506WAT     H2 7761   0.401   2.704   8.737
 2507WAT      O 7762   5.243   7.042   6.740
 2507WAT     H1 7763   5.213   7.039   6.645
 2507WAT     H2 7764   5.270   6.950   6.769
 2508WAT      O 7765   0.839   1.749   3.762
 2508WAT     H1 7766   0.922   1.720   3.811
 2508WAT     H2 7767   0.821   1.845   3.782
 2509WAT      O 7768   1.477   4.403   0.006
 2509WAT     H1 7769   1.542   4.359   0.069
 2509WAT     H2 7770   1.430   4.333  -0.047
 2510WAT      O 7771   6.736   9.243   1.472
 2510WAT     H1 7772   6.782   9.156   1.456
 2510WAT     H2 7773   6.646   9.242   1.428
 2511WAT      O 7774   1.592   8.221   7.328
 2511WAT     H1 7775   1.562   8.299   7.382
 2511WAT     H2 7776   1.550   8.138   7.362
 2512WAT      O 7777   3.148   4.548   1.565
 2512WAT     H1 7778   3.179   4.544   1.470
 2512WAT     H2 7779   3.200   4.482   1.619
 2513WAT      O 7780   6.167   1.124   2.070
 2513WAT     H1 7781   6.222   1.157   1.994
 2513WAT     H2 7782   6.072   1.155   2.059
 2514WAT      O 7783   6.210   8.646   0.381
 2514WAT     H1 7784   6.221   8.547   0.371
 2514WAT     H2 7785   6.279   8.693   0.326
 2515WAT      O 7786   0.883   6.913   6.184
 2515WAT     H1 7787   0.980   6.888   6.185
 2515WAT     H2 7788   0.857   6.942   6.092
 2516WAT      O 7789   7.025   0.683   6.772
 2516WAT     H1 7790   6.942   0.667   6.720
 2516WAT     H2 7791   7.027   0.622   6.852
 2517WAT      O 7792   5.653   9.401   0.881
 2517WAT     H1 7793   5.570   9.453   0.860
 2517WAT     H2 7794   5.723   9.420   0.813
 2518WAT      O 7795   0.075   8.377   4.603
 2518WAT     H1 7796  -0.016   8.414   4.582
 2518WAT     H2 7797   0.114   8.335   4.521
 2519WAT      O 7798   7.766   6.985   7.631
 2519WAT     H1 7799   7.774   6.891   7.598
 2519WAT     H2 7800   7.834   7.001   7.703
 2520WAT      O 7801   1.310   2.556   5.628
 2520WAT     H1 7802   1.253   2.552   5.710
 2520WAT     H2 7803   1.304   2.647   5.587
 2521WAT      O 7804   6.816   6.228   2.204
 2521WAT     H1 7805   6.731   6.228   2.152
 2521WAT     H2 7806   6.815   6.302   2.271
 2522WAT      O 7807   0.769   5.398   6.912
 2522WAT     H1 7808   0.862   5.426   6.937
 2522WAT     H2 7809   0.705   5.427   6.983
 2523WAT      O 7810   6.279   9.353   9.749
 2523WAT     H1 7811   6.323   9.301   9.677
 2523WAT     H2 7812   6.346   9.412   9.794
 2524WAT      O 7813   1.585   1.962   1.441
 2524WAT     H1 7814   1.611   1.895   1.372
 2524WAT     H2 7815   1.501   1.931   1.487
 2525WAT      O 7816   1.104   7.407   8.663
 2525WAT     H1 7817   1.048   7.367   8.736
 2525WAT     H2 7818   1.125   7.336   8.595
 2526WAT      O 7819   4.732   7.329   6.821
 2526WAT     H1 7820   4.779   7.310   6.735
 2526WAT     H2 7821   4.635   7.345   6.804
 2527WAT      O 7822   1.157   4.197   5.915
 2527WAT     H1 7823   1.222   4.174   5.987
 2527WAT     H2 7824   1.113   4.284   5.937
 2528WAT      O 7825   5.535   1.398   4.669
 2528WAT     H1 7826   5.445   1.402   4.712
 2528WAT     H2 7827   5.527   1.358   4.578
 2529WAT      O 7828   8.768   1.632   8.147
 2529WAT     H1 7829   8.816   1.544   8.145
 2529WAT     H2 7830   8.676   1.620   8.109
 2530WAT      O 7831   3.939   8.377   9.692
 2530WAT     H1 7832   3.915   8.360   9.788
 2530WAT     H2 7833   3.963   8.473   9.681
 2531WAT      O 7834   7.437   7.032   4.897
 2531WAT     H1 7835   7.341   7.031   4.868
 2531WAT     H2 7836   7.495   7.004   4.821
 2532WAT      O 7837   3.314   2.549   6.477
 2532WAT     H1 7838   3.279   2.606   6.551
 2532WAT     H2 7839   3.259   2.564   6.395
 2533WAT      O 7840   1.978   4.629   0.424
 2533WAT     H1 7841   1.971   4.688   0.344
 2533WAT     H2 7842   1.900   4.567   0.427
 2534WAT      O 7843   5.838   5.535   0.688
 2534WAT     H1 7844   5.752   5.575   0.656
 2534WAT     H2 7845   5.850   5.557   0.785
 2535WAT      O 7846   0.704   1.851   3.039
 2535WAT     H1 7847   0.741   1.760   3.021
 2535WAT     H2 7848   0.751   1.890   3.119
 2536WAT      O 7849   6.785   0.114   7.373
 2536WAT     H1 7850   6.699   0.069   7.350
 2536WAT     H2 7851   6.781   0.210   7.347
 2537WAT      O 7852   0.687   3.553   1.572
 2537WAT     H1 7853   0.728   3.639   1.602
 2537WAT     H2 7854   0.606   3.572   1.517
 2538WAT      O 7855   6.953   4.120   0.556
 2538WAT     H1 7856   6.904   4.146   0.472
 2538WAT     H2 7857   7.050   4.143   0.546
 2539WAT      O 7858   0.262   8.861   2.404
 2539WAT     H1 7859   0.271   8.935   2.471
 2539WAT     H2 7860   0.166   8.852   2.378
 2540WAT      O 7861   3.626   3.626   6.703
 2540WAT     H1 7862   3.647   3.572   6.622
 2540WAT     H2 7863   3.533   3.662   6.695
 2541WAT      O 7864   7.714   4.908   1.805
 2541WAT     H1 7865   7.658   4.969   1.749
 2541WAT     H2 7866   7.808   4.943   1.809
 2542WAT      O 7867   4.925   4.850   8.410
 2542WAT     H1 7868   4.961   4.939   8.438
 2542WAT     H2 7869   4.860   4.862   8.335
 2543WAT      O 7870   8.990   2.429   8.945
 2543WAT     H1 7871   8.908   2.479   8.973
 2543WAT     H2 7872   9.064   2.448   9.010
 2544WAT      O 7873   5.398   4.173   7.640
 2544WAT     H1 7874   5.347   4.244   7.592
 2544WAT     H2 7875   5.336   4.099   7.666
 2545WAT      O 7876   0.278   6.093   4.315
 2545WAT     H1 7877   0.209   6.047   4.369
 2545WAT     H2 7878   0.239   6.123   4.227
 2546WAT      O 7879   6.988   5.108   0.049
 2546WAT     H1 7880   7.023   5.171  -0.019
 2546WAT     H2 7881   7.035   5.123   0.136
 2547WAT      O 7882   5.635   7.567   1.781
 2547WAT     H1 7883   5.566   7.542   1.850
 2547WAT     H2 7884   5.713   7.505   1.789
 2548WAT      O 7885   9.763   7.576   8.344
 2548WAT     H1 7886   9.730   7.483   8.326
 2548WAT     H2 7887   9.735   7.637   8.269
 2549WAT      O 7888   1.573   6.835   1.721
 2549WAT     H1 7889   1.550   6.931   1.737
 2549WAT     H2 7890   1.604   6.824   1.627
 2550WAT      O 7891   8.811   6.029   8.226
 2550WAT     H1 7892   8.831   6.107   8.286
 2550WAT     H2 7893   8.785   6.062   8.136
 2551WAT      O 7894   0.176   2.646   4.817
 2551WAT     H1 7895   0.251   2.644   4.751
 2551WAT     H2 7896   0.115   2.723   4.796
 2552WAT      O 7897   3.156   5.265   8.083
 2552WAT     H1 7898   3.171   5.172   8.117
 2552WAT     H2 7899   3.185   5.331   8.152
 2553WAT      O 7900   7.751   2.164   5.090
 2553WAT     H1 7901   7.826   2.145   5.026
 2553WAT     H2 7902   7.686   2.088   5.087
 2554WAT      O 7903   1.563   2.872   8.259
 2554WAT     H1 7904   1.640   2.893   8.198
 2554WAT     H2 7905   1.527   2.958   8.296
 2555WAT      O 7906   9.759   4.412   3.391
 2555WAT     H1 7907   9.853   4.420   3.357
 2555WAT     H2 7908   9.711   4.499   3.375
 2556WAT      O 7909   8.935   7.100   3.995
 2556WAT     H1 7910   9.029   7.068   4.012
 2556WAT     H2 7911   8.925   7.126   3.900
 2557WAT      O 7912   9.131   9.697   1.144
 2557WAT     H1 7913   9.108   9.755   1.066
 2557WAT     H2 7914   9.192   9.747   1.206
 2558WAT      O 7915   4.480   5.870   3.515
 2558WAT     H1 7916   4.545   5.846   3.444
 2558WAT     H2 7917   4.481   5.969   3.530
 2559WAT      O 7918   1.111   3.268   6.632
 2559WAT     H1 7919   1.176   3.337   6.602
 2559WAT     H2 7920   1.019   3.307   6.635
 2560WAT      O 7921   7.820   2.276   0.451
 2560WAT     H1 7922   7.775   2.213   0.388
 2560WAT     H2 7923   7.879   2.338   0.400
 2561WAT      O 7924   7.434   7.254   1.183
 2561WAT     H1 7925   7.516   7.311   1.195
 2561WAT     H2 7926   7.461   7.159   1.171
 2562WAT      O 7927   3.326   9.038   9.822
 2562WAT     H1 7928   3.311   9.021   9.725
 2562WAT     H2 7929   3.247   9.005   9.874
 2563WAT      O 7930   3.797   5.877   5.604
 2563WAT     H1 7931   3.778   5.863   5.701
 2563WAT     H2 7932   3.864   5.809   5.573
 2564WAT      O 7933   6.157   4.296   0.928
 2564WAT     H1 7934   6.245   4.342   0.919
 2564WAT     H2 7935   6.167   4.199   0.907
 2565WAT      O 7936   3.585   4.356   6.342
 2565WAT     H1 7937   3.646   4.283   6.311
 2565WAT     H2 7938   3.490   4.327   6.333
 2566WAT      O 7939   8.436   7.366   2.522
 2566WAT     H1 7940   8.378   7.402   2.448
 2566WAT     H2 7941   8.448   7.436   2.592
 2567WAT      O 7942   6.556   1.457   5.105
 2567WAT     H1 7943   6.586   1.416   5.019
 2567WAT     H2 7944   6.489   1.398   5.149
 2568WAT      O 7945   4.090   9.588   3.341
 2568WAT     H1 7946   4.104   9.528   3.263
 2568WAT     H2 7947   4.177   9.603   3.388
 2569WAT      O 7948   1.196   4.499   9.014
 2569WAT     H1 7949   1.292   4.523   9.021
 2569WAT     H2 7950   1.140   4.565   9.064
 2570WAT      O 7951   0.048   3.770   3.705
 2570WAT     H1 7952  -0.043   3.764   3.665
 2570WAT     H2 7953   0.057   3.856   3.755
 2571WAT      O 7954   0.476   5.253   2.306
 2571WAT     H1 7955   0.421   5.277   2.386
 2571WAT     H2 7956   0.527   5.333   2.276
 2572WAT      O 7957   7.578   6.688   5.791
 2572WAT     H1 7958   7.514   6.738   5.732
 2572WAT     H2 7959   7.547   6.693   5.886
 2573WAT      O 7960   7.061   5.456   1.586
 2573WAT     H1 7961   7.139   5.509   1.618
 2573WAT     H2 7962   7.001   5.516   1.532
 2574WAT      O 7963   5.938   2.659   1.388
 2574WAT     H1 7964   5.845   2.623   1.397
 2574WAT     H2 7965   5.981   2.620   1.307
 2575WAT      O 7966   4.427   2.419   7.082
 2575WAT     H1 7967   4.501   2.391   7.020
 2575WAT     H2 7968   4.351   2.455   7.028
 2576WAT      O 7969   7.228   2.064   8.823
 2576WAT     H1 7970   7.216   2.108   8.734
 2576WAT     H2 7971   7.144   2.070   8.875
 2577WAT      O 7972   3.062   5.173   1.524
 2577WAT     H1 7973   3.143   5.220   1.488
 2577WAT     H2 7974   3.011   5.132   1.449
 2578WAT      O 7975   1.306   7.077   4.499
 2578WAT     H1 7976   1.277   6.986   4.472
 2578WAT     H2 7977   1.233   7.121   4.552
 2579WAT      O 7978   2.382   2.060   5.514
 2579WAT     H1 7979   2.433   2.130   5.563
 2579WAT     H2 7980   2.342   1.996   5.579
 2580WAT      O 7981   3.624   8.188   7.095
 2580WAT     H1 7982   3.535   8.175   7.051
 2580WAT     H2 7983   3.696   8.160   7.032
 2581WAT      O 7984   8.428   4.030   4.954
 2581WAT     H1 7985   8.436   4.006   4.858
 2581WAT     H2 7986   8.456   3.952   5.010
 2582WAT      O 7987   1.053   8.128   2.117
 2582WAT     H1 7988   1.022   8.203   2.174
 2582WAT     H2 7989   0.976   8.066   2.099
 2583WAT      O 7990   8.956   9.288   2.044
 2583WAT     H1 7991   9.022   9.213   2.049
 2583WAT     H2 7992   8.878   9.267   2.103
 2584WAT      O 7993   7.406   0.955   0.886
 2584WAT     H1 7994   7.366   1.017   0.820
 2584WAT     H2 7995   7.487   0.911   0.847
 2585WAT      O 7996   1.869   5.965   1.377
 2585WAT     H1 7997   1.805   5.999   1.445
 2585WAT     H2 7998   1.914   6.042   1.332
 2586WAT      O 7999   6.355   5.871   1.085
 2586WAT     H1 8000   6.279   5.880   1.021
 2586WAT     H2 8001   6.378   5.774   1.095
 2587WAT      O 8002   8.884   7.463   6.527
 2587WAT     H1 8003   8.977   7.499   6.533
 2587WAT     H2 8004   8.840   7.467   6.616
 2588WAT      O 8005   8.265   1.056   9.463
 2588WAT     H1 8006   8.172   1.069   9.498
 2588WAT     H2 8007   8.296   1.140   9.420
 2589WAT      O 8008   0.610   5.937   2.512
 2589WAT     H1 8009   0.662   5.958   2.595
 2589WAT     H2 8010   0.647   5.990   2.435
 2590WAT      O 8011   7.429   2.013   8.117
 2590WAT     H1 8012   7.418   2.080   8.044
 2590WAT     H2 8013   7.352   2.020   8.181
 2591WAT      O 8014   0.464   8.462   4.409
 2591WAT     H1 8015   0.536   8.410   4.363
 2591WAT     H2 8016   0.381   8.460   4.353
 2592WAT      O 8017   6.165   8.180   8.734
 2592WAT     H1 8018   6.196   8.125   8.811
 2592WAT     H2 8019   6.085   8.234   8.761
 2593WAT      O 8020   9.746   7.209   2.877
 2593WAT     H1 8021   9.667   7.166   2.920
 2593WAT     H2 8022   9.728   7.223   2.779
 2594WAT      O 8023   2.439   4.961   5.538
 2594WAT     H1 8024   2.358   4.913   5.572
 2594WAT     H2 8025   2.453   4.938   5.442
 2595WAT      O 8026   2.376   5.911   0.159
 2595WAT     H1 8027   2.366   5.812   0.157
 2595WAT     H2 8028   2.445   5.937   0.226
 2596WAT      O 8029   3.450   8.743   2.573
 2596WAT     H1 8030   3.370   8.719   2.518
 2596WAT     H2 8031   3.531   8.748   2.514
 2597WAT      O 8032   7.312   3.162   2.106
 2597WAT     H1 8033   7.388   3.222   2.083
 2597WAT     H2 8034   7.319   3.077   2.054
 2598WAT      O 8035   8.742   7.999   9.671
 2598WAT     H1 8036   8.813   7.932   9.689
 2598WAT     H2 8037   8.726   8.055   9.752
 2599WAT      O 8038   7.327   7.762   3.583
 2599WAT     H1 8039   7.308   7.664   3.588
 2599WAT     H2 8040   7.395   7.779   3.512
 2600WAT      O 8041   2.107   5.524   0.201
 2600WAT     H1 8042   2.018   5.477   0.205
 2600WAT     H2 8043   2.111   5.594   0.272
 2601WAT      O 8044   5.242   9.374   7.277
 2601WAT     H1 8045   5.245   9.422   7.364
 2601WAT     H2 8046   5.334   9.343   7.252
 2602WAT      O 8047   8.810   3.199   6.638
 2602WAT     H1 8048   8.758   3.280   6.611
 2602WAT     H2 8049   8.770   3.159   6.720
 2603WAT      O 8050   4.509   7.838   6.376
 2603WAT     H1 8051   4.423   7.868   6.334
 2603WAT     H2 8052   4.508   7.859   6.474
 2604WAT      O 8053   0.415   5.838   8.437
 2604WAT     H1 8054   0.469   5.763   8.401
 2604WAT     H2 8055   0.345   5.802   8.500
 2605WAT      O 8056   3.306   7.880   5.879
 2605WAT     H1 8057   3.360   7.930   5.946
 2605WAT     H2 8058   3.213   7.869   5.913
 2606WAT      O 8059   2.015   7.928   6.011
 2606WAT     H1 8060   2.076   7.970   5.945
 2606WAT     H2 8061   2.067   7.897   6.090
 2607WAT      O 8062   7.977   4.282   3.003
 2607WAT     H1 8063   8.000   4.190   2.971
 2607WAT     H2 8064   7.925   4.330   2.933
 2608WAT      O 8065   6.428   4.565   7.026
 2608WAT     H1 8066   6.454   4.471   7.049
 2608WAT     H2 8067   6.365   4.564   6.948
 2609WAT      O 8068   7.202   4.470   7.440
 2609WAT     H1 8069   7.135   4.494   7.370
 2609WAT     H2 8070   7.291   4.511   7.416
 2610WAT      O 8071   5.799   0.846   1.169
 2610WAT     H1 8072   5.890   0.887   1.178
 2610WAT     H2 8073   5.770   0.809   1.258
 2611WAT      O 8074   0.407   9.826   5.576
 2611WAT     H1 8075   0.390   9.882   5.657
 2611WAT     H2 8076   0.361   9.867   5.497
 2612WAT      O 8077   2.222   9.384   6.300
 2612WAT     H1 8078   2.160   9.307   6.314
 2612WAT     H2 8079   2.182   9.467   6.341
 2613WAT      O 8080   6.897   5.472   5.850
 2613WAT     H1 8081   6.896   5.556   5.904
 2613WAT     H2 8082   6.882   5.394   5.911
 2614WAT      O 8083   5.214   4.976   2.611
 2614WAT     H1 8084   5.272   4.996   2.533
 2614WAT     H2 8085   5.121   4.955   2.580
 2615WAT      O 8086   1.397   1.578   4.940
 2615WAT     H1 8087   1.366   1.540   5.027
 2615WAT     H2 8088   1.353   1.666   4.925
 2616WAT      O 8089   8.789   2.666   2.561
 2616WAT     H1 8090   8.772   2.582   2.613
 2616WAT     H2 8091   8.743   2.661   2.473
 2617WAT      O 8092   6.787   9.359   0.234
 2617WAT     H1 8093   6.737   9.321   0.311
 2617WAT     H2 8094   6.745   9.446   0.206
 2618WAT      O 8095   6.637   0.707   6.802
 2618WAT     H1 8096   6.671   0.747   6.887
 2618WAT     H2 8097   6.692   0.739   6.725
 2619WAT      O 8098   5.831   4.074   5.481
 2619WAT     H1 8099   5.759   4.059   5.413
 2619WAT     H2 8100   5.876   4.162   5.464
 2620WAT      O 8101   9.182   8.664   3.858
 2620WAT     H1 8102   9.185   8.584   3.917
 2620WAT     H2 8103   9.087   8.694   3.847
 2621WAT      O 8104   5.105   3.728   2.724
 2621WAT     H1 8105   5.131   3.820   2.754
 2621WAT     H2 8106   5.076   3.675   2.804
 2622WAT      O 8107   0.703   4.230   3.565
 2622WAT     H1 8108   0.762   4.308   3.586
 2622WAT     H2 8109   0.612   4.264   3.539
 2623WAT      O 8110   4.200   2.466   6.950
 2623WAT     H1 8111   4.189   2.558   6.911
 2623WAT     H2 8112   4.163   2.398   6.886
 2624WAT      O 8113   1.414   9.091   5.215
 2624WAT     H1 8114   1.489   9.052   5.269
 2624WAT     H2 8115   1.448   9.118   5.125
 2625WAT      O 8116   4.701   0.957   7.222
 2625WAT     H1 8117   4.691   1.054   7.204
 2625WAT     H2 8118   4.629   0.906   7.175
 2626WAT      O 8119   2.022   4.940   1.958
 2626WAT     H1 8120   2.067   4.906   1.875
 2626WAT     H2 8121   1.931   4.899   1.966
 2627WAT      O 8122   2.566   9.448   4.251
 2627WAT     H1 8123   2.501   9.467   4.325
 2627WAT     H2 8124   2.566   9.525   4.187
 2628WAT      O 8125   7.551   6.212   9.026
 2628WAT     H1 8126   7.532   6.186   9.120
 2628WAT     H2 8127   7.648   6.233   9.016
 2629WAT      O 8128   8.814   7.606   9.078
 2629WAT     H1 8129   8.910   7.626   9.097
 2629WAT     H2 8130   8.757   7.681   9.112
 2630WAT      O 8131   5.742   5.934   6.046
 2630WAT     H1 8132   5.670   5.884   6.093
 2630WAT     H2 8133   5.804   5.975   6.112
 2631WAT      O 8134   9.004   3.427   4.989
 2631WAT     H1 8135   8.932   3.396   4.928
 2631WAT     H2 8136   9.092   3.424   4.941
 2632WAT      O 8137   1.067   1.110   2.888
 2632WAT     H1 8138   1.073   1.195   2.940
 2632WAT     H2 8139   1.079   1.129   2.791
 2633WAT      O 8140   1.760   3.057   2.327
 2633WAT     H1 8141   1.768   2.995   2.405
 2633WAT     H2 8142   1.807   3.143   2.348
 2634WAT      O 8143   7.330   1.416   5.214
 2634WAT     H1 8144   7.375   1.350   5.275
 2634WAT     H2 8145   7.244   1.446   5.255
 2635WAT      O 8146   2.180   3.452   6.516
 2635WAT     H1 8147   2.111   3.391   6.556
 2635WAT     H2 8148   2.155   3.470   6.420
 2636WAT      O 8149   3.481   6.077   3.542
 2636WAT     H1 8150   3.472   6.139   3.464
 2636WAT     H2 8151   3.510   6.128   3.623
 2637WAT      O 8152   4.205   8.739   0.219
 2637WAT     H1 8153   4.191   8.641   0.233
 2637WAT     H2 8154   4.251   8.754   0.132
 2638WAT      O 8155   1.212   2.629   1.951
 2638WAT     H1 8156   1.284   2.560   1.955
 2638WAT     H2 8157   1.123   2.585   1.937
 2639WAT      O 8158   6.581   0.196   0.404
 2639WAT     H1 8159   6.495   0.168   0.363
 2639WAT     H2 8160   6.576   0.183   0.503
 2640WAT      O 8161   6.379   4.074   4.007
 2640WAT     H1 8162   6.365   3.985   3.964
 2640WAT     H2 8163   6.296   4.098   4.059
 2641WAT      O 8164   3.343   4.238   7.860
 2641WAT     H1 8165   3.409   4.269   7.792
 2641WAT     H2 8166   3.357   4.141   7.878
 2642WAT      O 8167   0.241   0.144   1.128
 2642WAT     H1 8168   0.290   0.137   1.041
 2642WAT     H2 8169   0.144   0.126   1.114
 2643WAT      O 8170   3.837   7.356   6.588
 2643WAT     H1 8171   3.915   7.303   6.621
 2643WAT     H2 8172   3.811   7.324   6.497
 2644WAT      O 8173   2.855   1.458   4.689
 2644WAT     H1 8174   2.872   1.501   4.601
 2644WAT     H2 8175   2.934   1.404   4.716
 2645WAT      O 8176   1.705   5.784   5.044
 2645WAT     H1 8177   1.656   5.859   5.088
 2645WAT     H2 8178   1.803   5.802   5.048
 2646WAT      O 8179   1.049   1.186   8.215
 2646WAT     H1 8180   1.112   1.123   8.171
 2646WAT     H2 8181   1.089   1.218   8.301
 2647WAT      O 8182   7.715   3.901   8.655
 2647WAT     H1 8183   7.623   3.939   8.652
 2647WAT     H2 8184   7.769   3.936   8.579
 2648WAT      O 8185   7.225   4.992   1.700
 2648WAT     H1 8186   7.211   5.081   1.657
 2648WAT     H2 8187   7.275   5.004   1.786
 2649WAT      O 8188   3.287   1.998   5.216
 2649WAT     H1 8189   3.359   2.042   5.163
 2649WAT     H2 8190   3.224   1.951   5.154
 2650WAT      O 8191   2.046   7.985   2.056
 2650WAT     H1 8192   1.949   7.966   2.072
 2650WAT     H2 8193   2.056   8.068   2.001
 2651WAT      O 8194   0.080   4.292   5.655
 2651WAT     H1 8195   0.100   4.316   5.561
 2651WAT     H2 8196   0.066   4.193   5.663
 2652WAT      O 8197   8.946   1.505   3.317
 2652WAT     H1 8198   8.957   1.561   3.235
 2652WAT     H2 8199   9.020   1.524   3.381
 2653WAT      O 8200   7.244   5.370   4.076
 2653WAT     H1 8201   7.251   5.283   4.124
 2653WAT     H2 8202   7.150   5.385   4.046
 2654WAT      O 8203   1.170   2.701   8.385
 2654WAT     H1 8204   1.078   2.663   8.378
 2654WAT     H2 8205   1.177   2.754   8.470
 2655WAT      O 8206   3.017   0.673   7.285
 2655WAT     H1 8207   3.085   0.604   7.260
 2655WAT     H2 8208   2.956   0.636   7.356
 2656WAT      O 8209   0.319   7.489   0.641
 2656WAT     H1 8210   0.407   7.535   0.646
 2656WAT     H2 8211   0.299   7.446   0.729
 2657WAT      O 8212   4.996   2.936   7.820
 2657WAT     H1 8213   5.029   2.947   7.914
 2657WAT     H2 8214   5.035   3.008   7.763
 2658WAT      O 8215   1.955   7.603   1.146
 2658WAT     H1 8216   1.915   7.674   1.204
 2658WAT     H2 8217   1.960   7.517   1.196
 2659WAT      O 8218   6.208   5.171   5.062
 2659WAT     H1 8219   6.195   5.225   4.978
 2659WAT     H2 8220   6.176   5.078   5.047
 2660WAT      O 8221   7.811   7.752   0.378
 2660WAT     H1 8222   7.856   7.774   0.291
 2660WAT     H2 8223   7.861   7.793   0.453
 2661WAT      O 8224   2.643   2.094   9.658
 2661WAT     H1 8225   2.634   2.030   9.735
 2661WAT     H2 8226   2.705   2.055   9.590
 2662WAT      O 8227   9.790   7.798   6.736
 2662WAT     H1 8228   9.874   7.753   6.767
 2662WAT     H2 8229   9.716   7.731   6.734
 2663WAT      O 8230   1.804   1.784   8.556
 2663WAT     H1 8231   1.763   1.874   8.572
 2663WAT     H2 8232   1.820   1.738   8.643
 2664WAT      O 8233   1.661   1.501   4.672
 2664WAT     H1 8234   1.719   1.440   4.726
 2664WAT     H2 8235   1.565   1.476   4.685
 2665WAT      O 8236   4.000   4.468   3.108
 2665WAT     H1 8237   4.030   4.408   3.034
 2665WAT     H2 8238   3.966   4.554   3.070
 2666WAT      O 8239   4.113   8.132   3.305
 2666WAT     H1 8240   4.086   8.142   3.210
 2666WAT     H2 8241   4.170   8.210   3.333
 2667WAT      O 8242   4.144   0.045   0.655
 2667WAT     H1 8243   4.201   0.031   0.575
 2667WAT     H2 8244   4.115   0.141   0.659
 2668WAT      O 8245   3.635   6.414   9.522
 2668WAT     H1 8246   3.571   6.480   9.559
 2668WAT     H2 8247   3.720   6.416   9.575
 2669WAT      O 8248   6.450   8.400   8.893
 2669WAT     H1 8249   6.359   8.441   8.883
 2669WAT     H2 8250   6.446   8.303   8.870
 2670WAT      O 8251   0.415   8.717   4.958
 2670WAT     H1 8252   0.370   8.706   4.869
 2670WAT     H2 8253   0.489   8.784   4.950
 2671WAT      O 8254   8.365   8.843   5.300
 2671WAT     H1 8255   8.304   8.788   5.357
 2671WAT     H2 8256   8.413   8.782   5.236
 2672WAT      O 8257   2.391   5.824   2.207
 2672WAT     H1 8258   2.419   5.731   2.184
 2672WAT     H2 8259   2.468   5.887   2.191
 2673WAT      O 8260   8.201   4.137   3.385
 2673WAT     H1 8261   8.139   4.212   3.405
 2673WAT     H2 8262   8.276   4.170   3.327
 2674WAT      O 8263   4.823   1.681   3.007
 2674WAT     H1 8264   4.834   1.778   2.984
 2674WAT     H2 8265   4.726   1.657   3.004
 2675WAT      O 8266   1.973   1.021   1.009
 2675WAT     H1 8267   1.993   0.948   1.074
 2675WAT     H2 8268   2.030   1.101   1.029
 2676WAT      O 8269   4.370   4.007   7.101
 2676WAT     H1 8270   4.397   3.941   7.171
 2676WAT     H2 8271   4.442   4.011   7.031
 2677WAT      O 8272   3.496   1.367   2.334
 2677WAT     H1 8273   3.577   1.417   2.301
 2677WAT     H2 8274   3.414   1.421   2.315
 2678WAT      O 8275   9.014   1.070   1.223
 2678WAT     H1 8276   9.019   1.055   1.321
 2678WAT     H2 8277   9.070   1.002   1.175
 2679WAT      O 8278   0.788   3.667   2.063
 2679WAT     H1 8279   0.825   3.712   1.982
 2679WAT     H2 8280   0.716   3.724   2.103
 2680WAT      O 8281   7.391   1.826   9.802
 2680WAT     H1 8282   7.357   1.748   9.750
 2680WAT     H2 8283   7.343   1.909   9.774
 2681WAT      O 8284   2.900   9.440   8.851
 2681WAT     H1 8285   2.965   9.369   8.878
 2681WAT     H2 8286   2.937   9.490   8.772
 2682WAT      O 8287   8.332   4.738   4.557
 2682WAT     H1 8288   8.327   4.825   4.508
 2682WAT     H2 8289   8.388   4.749   4.639
 2683WAT      O 8290   9.164   7.775   2.901
 2683WAT     H1 8291   9.237   7.710   2.881
 2683WAT     H2 8292   9.172   7.805   2.996
 2684WAT      O 8293   9.830   1.085   9.330
 2684WAT     H1 8294   9.925   1.075   9.300
 2684WAT     H2 8295   9.824   1.156   9.400
 2685WAT      O 8296   9.114   1.493   5.088
 2685WAT     H1 8297   9.163   1.418   5.044
 2685WAT     H2 8298   9.107   1.476   5.186
 2686WAT      O 8299   3.607   2.172   8.536
 2686WAT     H1 8300   3.605   2.104   8.462
 2686WAT     H2 8301   3.701   2.187   8.566
 2687WAT      O 8302   0.152   8.533   1.982
 2687WAT     H1 8303   0.243   8.494   1.964
 2687WAT     H2 8304   0.084   8.460   1.982
 2688WAT      O 8305   0.283   3.933   5.923
 2688WAT     H1 8306   0.304   3.989   5.843
 2688WAT     H2 8307   0.364   3.883   5.951
 2689WAT      O 8308   2.028   1.296   7.112
 2689WAT     H1 8309   1.964   1.343   7.174
 2689WAT     H2 8310   1.993   1.204   7.093
 2690WAT      O 8311   4.824   0.839   6.118
 2690WAT     H1 8312   4.826   0.909   6.190
 2690WAT     H2 8313   4.844   0.749   6.158
 2691WAT      O 8314   7.958   2.849   2.054
 2691WAT     H1 8315   7.904   2.785   1.999
 2691WAT     H2 8316   8.023   2.798   2.111
 2692WAT      O 8317   8.980   7.131   3.708
 2692WAT     H1 8318   9.012   7.056   3.650
 2692WAT     H2 8319   9.011   7.218   3.669
 2693WAT      O 8320   1.448   6.473   9.770
 2693WAT     H1 8321   1.445   6.568   9.800
 2693WAT     H2 8322   1.542   6.441   9.767
 2694WAT      O 8323   1.728   6.149   6.985
 2694WAT     H1 8324   1.695   6.243   6.984
 2694WAT     H2 8325   1.669   6.093   7.043
 2695WAT      O 8326   8.872   7.269   5.605
 2695WAT     H1 8327   8.862   7.254   5.704
 2695WAT     H2 8328   8.781   7.284   5.565
 2696WAT      O 8329   6.234   8.384   9.721
 2696WAT     H1 8330   6.178   8.438   9.784
 2696WAT     H2 8331   6.247   8.435   9.636
 2697WAT      O 8332   9.518   0.013   5.933
 2697WAT     H1 8333   9.574   0.030   6.015
 2697WAT     H2 8334   9.520  -0.085   5.911
 2698WAT      O 8335   4.442   0.640   5.621
 2698WAT     H1 8336   4.533   0.670   5.650
 2698WAT     H2 8337   4.449   0.592   5.534
 2699WAT      O 8338   6.728   4.474   4.671
 2699WAT     H1 8339   6.796   4.498   4.740
 2699WAT     H2 8340   6.749   4.384   4.633
 2700WAT      O 8341   0.562   3.424   9.633
 2700WAT     H1 8342   0.502   3.381   9.700
 2700WAT     H2 8343   0.508   3.475   9.567
 2701WAT      O 8344   8.110   8.933   0.102
 2701WAT     H1 8345   8.207   8.938   0.076
 2701WAT     H2 8346   8.103   8.925   0.201
 2702WAT      O 8347   5.382   0.515   6.660
 2702WAT     H1 8348   5.348   0.573   6.734
 2702WAT     H2 8349   5.319   0.439   6.645
 2703WAT      O 8350   7.481   1.217   2.032
 2703WAT     H1 8351   7.450   1.213   2.127
 2703WAT     H2 8352   7.532   1.134   2.010
 2704WAT      O 8353   0.105   3.821   8.176
 2704WAT     H1 8354   0.181   3.887   8.181
 2704WAT     H2 8355   0.111   3.771   8.090
 2705WAT      O 8356   4.967   5.160   8.109
 2705WAT     H1 8357   4.887   5.206   8.071
 2705WAT     H2 8358   4.976   5.069   8.070
 2706WAT      O 8359   1.405   6.371   9.253
 2706WAT     H1 8360   1.500   6.366   9.220
 2706WAT     H2 8361   1.375   6.466   9.254
 2707WAT      O 8362   8.408   3.981   9.419
 2707WAT     H1 8363   8.381   4.041   9.344
 2707WAT     H2 8364   8.334   3.915   9.437
 2708WAT      O 8365   9.439   7.741   8.337
 2708WAT     H1 8366   9.424   7.819   8.398
 2708WAT     H2 8367   9.417   7.768   8.243
 2709WAT      O 8368   0.638   8.700   4.290
 2709WAT     H1 8369   0.603   8.721   4.199
 2709WAT     H2 8370   0.570   8.648   4.341
 2710WAT      O 8371   0.262   6.878   3.972
 2710WAT     H1 8372   0.192   6.819   3.931
 2710WAT     H2 8373   0.239   6.896   4.067
 2711WAT      O 8374   1.205   0.926   8.316
 2711WAT     H1 8375   1.204   0.959   8.221
 2711WAT     H2 8376   1.244   0.834   8.319
 2712WAT      O 8377   8.588   6.733   8.899
 2712WAT     H1 8378   8.638   6.649   8.918
 2712WAT     H2 8379   8.570   6.739   8.801
 2713WAT      O 8380   3.256   5.427   6.332
 2713WAT     H1 8381   3.186   5.362   6.362
 2713WAT     H2 8382   3.229   5.465   6.244
 2714WAT      O 8383   7.672   4.413   7.369
 2714WAT     H1 8384   7.639   4.375   7.456
 2714WAT     H2 8385   7.763   4.452   7.383
 2715WAT      O 8386   4.755   6.426   1.705
 2715WAT     H1 8387   4.839   6.438   1.652
 2715WAT     H2 8388   4.748   6.499   1.773
 2716WAT      O 8389   2.976   1.278   3.927
 2716WAT     H1 8390   3.014   1.224   3.852
 2716WAT     H2 8391   2.933   1.217   3.994
 2717WAT      O 8392   4.113   2.941   0.039
 2717WAT     H1 8393   4.106   3.039   0.020
 2717WAT     H2 8394   4.082   2.889  -0.041
 2718WAT      O 8395   2.666   3.237   8.097
 2718WAT     H1 8396   2.579   3.269   8.134
 2718WAT     H2 8397   2.710   3.175   8.161
 2719WAT      O 8398   8.771   1.331   0.653
 2719WAT     H1 8399   8.707   1.263   0.618
 2719WAT     H2 8400   8.772   1.411   0.592
 2720WAT      O 8401   7.679   5.013   0.082
 2720WAT     H1 8402   7.723   4.956   0.151
 2720WAT     H2 8403   7.590   4.974   0.058
 2721WAT      O 8404   4.119   9.048   9.039
 2721WAT     H1 8405   4.055   9.108   9.087
 2721WAT     H2 8406   4.072   9.001   8.964
 2722WAT      O 8407   5.546   2.446   7.749
 2722WAT     H1 8408   5.520   2.471   7.656
 2722WAT     H2 8409   5.465   2.422   7.801
 2723WAT      O 8410   0.072   2.168   7.399
 2723WAT     H1 8411  -0.024   2.197   7.402
 2723WAT     H2 8412   0.078   2.069   7.397
 2724WAT      O 8413   0.539   0.441   3.472
 2724WAT     H1 8414   0.611   0.510   3.465
 2724WAT     H2 8415   0.562   0.376   3.545
 2725WAT      O 8416   9.656   4.745   0.290
 2725WAT     H1 8417   9.616   4.657   0.266
 2725WAT     H2 8418   9.617   4.816   0.232
 2726WAT      O 8419   0.037   4.826   0.214
 2726WAT     H1 8420  -0.048   4.796   0.257
 2726WAT     H2 8421   0.048   4.925   0.225
 2727WAT      O 8422   1.402   6.126   2.501
 2727WAT     H1 8423   1.434   6.165   2.415
 2727WAT     H2 8424   1.409   6.026   2.498
 2728WAT      O 8425   4.712   7.090   3.539
 2728WAT     H1 8426   4.803   7.128   3.558
 2728WAT     H2 8427   4.722   7.009   3.480
 2729WAT      O 8428   4.492   1.897   7.480
 2729WAT     H1 8429   4.408   1.845   7.493
 2729WAT     H2 8430   4.564   1.860   7.539
 2730WAT      O 8431   8.547   9.407   4.153
 2730WAT     H1 8432   8.508   9.497   4.132
 2730WAT     H2 8433   8.482   9.336   4.126
 2731WAT      O 8434   6.825   8.464   0.295
 2731WAT     H1 8435   6.911   8.414   0.289
 2731WAT     H2 8436   6.829   8.529   0.371
 2732WAT      O 8437   8.710   5.437   6.584
 2732WAT     H1 8438   8.644   5.507   6.611
 2732WAT     H2 8439   8.691   5.410   6.489
 2733WAT      O 8440   4.128   3.823   2.648
 2733WAT     H1 8441   4.190   3.891   2.609
 2733WAT     H2 8442   4.056   3.869   2.700
 2734WAT      O 8443   6.223   5.909   5.863
 2734WAT     H1 8444   6.147   5.857   5.823
 2734WAT     H2 8445   6.223   6.002   5.826
 2735WAT      O 8446   8.110   1.283   7.013
 2735WAT     H1 8447   8.199   1.252   7.047
 2735WAT     H2 8448   8.067   1.209   6.961
 2736WAT      O 8449   8.571   7.803   6.909
 2736WAT     H1 8450   8.670   7.788   6.907
 2736WAT     H2 8451   8.534   7.792   6.817
 2737WAT      O 8452   6.191   1.098   5.198
 2737WAT     H1 8453   6.210   1.046   5.281
 2737WAT     H2 8454   6.093   1.097   5.179
 2738WAT      O 8455   9.855   2.003   2.141
 2738WAT     H1 8456   9.786   1.955   2.196
 2738WAT     H2 8457   9.945   1.962   2.158
 2739WAT      O 8458   6.528   0.672   3.899
 2739WAT     H1 8459   6.493   0.721   3.818
 2739WAT     H2 8460   6.539   0.737   3.974
 2740WAT      O 8461   2.571   6.200   9.758
 2740WAT     H1 8462   2.490   6.248   9.792
 2740WAT     H2 8463   2.557   6.101   9.764
 2741WAT      O 8464   4.961   2.699   6.384
 2741WAT     H1 8465   4.973   2.603   6.359
 2741WAT     H2 8466   4.944   2.706   6.483
 2742WAT      O 8467   4.075   8.859   0.465
 2742WAT     H1 8468   4.128   8.827   0.387
 2742WAT     H2 8469   4.020   8.938   0.438
 2743WAT      O 8470   2.872   6.189   5.438
 2743WAT     H1 8471   2.787   6.238   5.417
 2743WAT     H2 8472   2.902   6.213   5.530
 2744WAT      O 8473   2.096   7.693   2.033
 2744WAT     H1 8474   2.158   7.671   1.957
 2744WAT     H2 8475   2.103   7.791   2.053
 2745WAT      O 8476   6.116   6.699   1.556
 2745WAT     H1 8477   6.067   6.740   1.633
 2745WAT     H2 8478   6.213   6.691   1.580
 2746WAT      O 8479   5.338   1.120   4.394
 2746WAT     H1 8480   5.272   1.176   4.445
 2746WAT     H2 8481   5.300   1.028   4.380
 2747WAT      O 8482   2.411   2.810   5.758
 2747WAT     H1 8483   2.354   2.761   5.824
 2747WAT     H2 8484   2.504   2.818   5.794
 2748WAT      O 8485   5.995   8.649   5.692
 2748WAT     H1 8486   6.059   8.653   5.615
 2748WAT     H2 8487   5.947   8.736   5.700
 2749WAT      O 8488   0.908   8.774   7.785
 2749WAT     H1 8489   0.873   8.778   7.691
 2749WAT     H2 8490   0.831   8.768   7.848
 2750WAT      O 8491   5.434   4.125   0.310
 2750WAT     H1 8492   5.489   4.104   0.391
 2750WAT     H2 8493   5.467   4.209   0.268
 2751WAT      O 8494   1.328   2.576   8.880
 2751WAT     H1 8495   1.350   2.480   8.900
 2751WAT     H2 8496   1.358   2.598   8.787
 2752WAT      O 8497   5.930   7.449   6.934
 2752WAT     H1 8498   5.994   7.465   6.860
 2752WAT     H2 8499   5.867   7.375   6.909
 2753WAT      O 8500   8.746   5.529   5.878
 2753WAT     H1 8501   8.784   5.499   5.966
 2753WAT     H2 8502   8.709   5.622   5.888
 2754WAT      O 8503   6.563   4.133   8.030
 2754WAT     H1 8504   6.568   4.210   8.093
 2754WAT     H2 8505   6.525   4.053   8.077
 2755WAT      O 8506   9.261   4.618   8.238
 2755WAT     H1 8507   9.277   4.697   8.179
 2755WAT     H2 8508   9.180   4.569   8.208
 2756WAT      O 8509   1.511   2.516   5.916
 2756WAT     H1 8510   1.563   2.501   5.999
 2756WAT     H2 8511   1.442   2.587   5.932
 2757WAT      O 8512   6.119   4.196   4.087
 2757WAT     H1 8513   6.085   4.119   4.034
 2757WAT     H2 8514   6.075   4.280   4.057
 2758WAT      O 8515   7.529   0.622   1.355
 2758WAT     H1 8516   7.511   0.674   1.438
 2758WAT     H2 8517   7.445   0.578   1.324
 2759WAT      O 8518   1.889   5.033   7.658
 2759WAT     H1 8519   1.834   5.004   7.736
 2759WAT     H2 8520   1.946   4.957   7.627
 2760WAT      O 8521   8.946   0.480   0.642
 2760WAT     H1 8522   9.005   0.558   0.662
 2760WAT     H2 8523   8.965   0.446   0.550
 2761WAT      O 8524   0.519   7.223   1.988
 2761WAT     H1 8525   0.447   7.288   2.012
 2761WAT     H2 8526   0.565   7.193   2.071
 2762WAT      O 8527   8.707   5.591   7.849
 2762WAT     H1 8528   8.679   5.655   7.920
 2762WAT     H2 8529   8.642   5.596   7.773
 2763WAT      O 8530   6.063   4.302   1.790
 2763WAT     H1 8531   5.987   4.367   1.787
 2763WAT     H2 8532   6.139   4.338   1.736
 2764WAT      O 8533   4.151   0.809   3.030
 2764WAT     H1 8534   4.135   0.905   3.008
 2764WAT     H2 8535   4.229   0.775   2.976
 2765WAT      O 8536   6.505   2.111   9.513
 2765WAT     H1 8537   6.539   2.027   9.555
 2765WAT     H2 8538   6.549   2.123   9.424
 2766WAT      O 8539   5.750   6.577   0.035
 2766WAT     H1 8540   5.702   6.664   0.023
 2766WAT     H2 8541   5.684   6.506   0.059
 2767WAT      O 8542   1.310   8.639   5.976
 2767WAT     H1 8543   1.337   8.545   5.957
 2767WAT     H2 8544   1.340   8.698   5.901
 2768WAT      O 8545   6.419   2.315   2.707
 2768WAT     H1 8546   6.496   2.327   2.645
 2768WAT     H2 8547   6.338   2.288   2.654
 2769WAT      O 8548   2.059   6.801   4.951
 2769WAT     H1 8549   2.131   6.827   4.886
 2769WAT     H2 8550   2.069   6.854   5.035
 2770WAT      O 8551   4.631   8.032   5.569
 2770WAT     H1 8552   4.624   8.086   5.485
 2770WAT     H2 8553   4.654   8.092   5.646
 2771WAT      O 8554   1.377   5.616   3.364
 2771WAT     H1 8555   1.401   5.629   3.460
 2771WAT     H2 8556   1.336   5.526   3.352
 2772WAT      O 8557   2.490   9.634   2.790
 2772WAT     H1 8558   2.427   9.621   2.867
 2772WAT     H2 8559   2.577   9.669   2.824
 2773WAT      O 8560   6.826   0.492   1.429
 2773WAT     H1 8561   6.911   0.520   1.474
 2773WAT     H2 8562   6.820   0.392   1.430
 2774WAT      O 8563   9.162   0.154   6.332
 2774WAT     H1 8564   9.157   0.219   6.409
 2774WAT     H2 8565   9.156   0.204   6.246
 2775WAT      O 8566   5.668   5.044   9.331
 2775WAT     H1 8567   5.597   4.979   9.359
 2775WAT     H2 8568   5.661   5.061   9.233
 2776WAT      O 8569   6.850   5.110   0.784
 2776WAT     H1 8570   6.890   5.116   0.692
 2776WAT     H2 8571   6.751   5.104   0.777
 2777WAT      O 8572   1.872   1.338   0.977
 2777WAT     H1 8573   1.903   1.329   1.072
 2777WAT     H2 8574   1.777   1.368   0.975
 2778WAT      O 8575   0.701   9.701   7.169
 2778WAT     H1 8576   0.607   9.730   7.185
 2778WAT     H2 8577   0.736   9.745   7.086
 2779WAT      O 8578   8.379   6.092   1.985
 2779WAT     H1 8579   8.365   5.997   1.957
 2779WAT     H2 8580   8.299   6.124   2.035
 2780WAT      O 8581   9.563   5.648   8.432
 2780WAT     H1 8582   9.485   5.616   8.485
 2780WAT     H2 8583   9.587   5.578   8.364
 2781WAT      O 8584   5.094   7.609   9.697
 2781WAT     H1 8585   5.170   7.665   9.663
 2781WAT     H2 8586   5.130   7.524   9.735
 2782WAT      O 8587   7.474   2.899   9.702
 2782WAT     H1 8588   7.424   2.828   9.653
 2782WAT     H2 8589   7.549   2.858   9.753
 2783WAT      O 8590   3.581   4.399   1.966
 2783WAT     H1 8591   3.676   4.392   1.997
 2783WAT     H2 8592   3.562   4.494   1.940
 2784WAT      O 8593   8.085   3.037   4.905
 2784WAT     H1 8594   8.137   2.972   4.849
 2784WAT     H2 8595   7.991   3.042   4.872
 2785WAT      O 8596   9.017   1.961   4.189
 2785WAT     H1 8597   9.102   1.910   4.176
 2785WAT     H2 8598   8.955   1.909   4.248
 2786WAT      O 8599   2.462   5.901   7.332
 2786WAT     H1 8600   2.542   5.847   7.307
 2786WAT     H2 8601   2.463   5.988   7.283
 2787WAT      O 8602   0.121   1.042   4.394
 2787WAT     H1 8603   0.111   1.078   4.487
 2787WAT     H2 8604   0.154   0.948   4.398
 2788WAT      O 8605   6.725   9.315   5.353
 2788WAT     H1 8606   6.797   9.271   5.407
 2788WAT     H2 8607   6.636   9.294   5.393
 2789WAT      O 8608   7.354   1.761   4.719
 2789WAT     H1 8609   7.379   1.856   4.702
 2789WAT     H2 8610   7.268   1.740   4.673
 2790WAT      O 8611   6.801   0.301   7.793
 2790WAT     H1 8612   6.870   0.228   7.789
 2790WAT     H2 8613   6.717   0.265   7.833
 2791WAT      O 8614   7.692   6.082   2.893
 2791WAT     H1 8615   7.704   6.148   2.819
 2791WAT     H2 8616   7.632   6.008   2.862
 2792WAT      O 8617   2.565   9.540   9.483
 2792WAT     H1 8618   2.517   9.467   9.532
 2792WAT     H2 8619   2.583   9.512   9.389
 2793WAT      O 8620   0.898   3.496   9.559
 2793WAT     H1 8621   0.813   3.525   9.513
 2793WAT     H2 8622   0.940   3.422   9.507
 2794WAT      O 8623   0.833   5.733   5.811
 2794WAT     H1 8624   0.758   5.789   5.846
 2794WAT     H2 8625   0.810   5.637   5.823
 2795WAT      O 8626   7.639   9.144   0.839
 2795WAT     H1 8627   7.624   9.199   0.921
 2795WAT     H2 8628   7.595   9.055   0.850
 2796WAT      O 8629   2.693   2.502   7.324
 2796WAT     H1 8630   2.784   2.545   7.328
 2796WAT     H2 8631   2.626   2.570   7.293
 2797WAT      O 8632   2.103   5.821   3.507
 2797WAT     H1 8633   2.007   5.848   3.507
 2797WAT     H2 8634   2.160   5.901   3.523
 2798WAT      O 8635   6.572   9.132   5.087
 2798WAT     H1 8636   6.558   9.224   5.051
 2798WAT     H2 8637   6.516   9.120   5.169
 2799WAT      O 8638   7.533   3.221   1.725
 2799WAT     H1 8639   7.605   3.163   1.762
 2799WAT     H2 8640   7.557   3.317   1.740
 2800WAT      O 8641   4.410   0.128   3.852
 2800WAT     H1 8642   4.325   0.085   3.884
 2800WAT     H2 8643   4.457   0.067   3.789
 2801WAT      O 8644   1.691   2.426   1.051
 2801WAT     H1 8645   1.615   2.368   1.027
 2801WAT     H2 8646   1.733   2.393   1.136
 2802WAT      O 8647   0.280   5.825   3.811
 2802WAT     H1 8648   0.274   5.915   3.854
 2802WAT     H2 8649   0.217   5.762   3.857
 2803WAT      O 8650   4.726   0.717   5.141
 2803WAT     H1 8651   4.805   0.696   5.083
 2803WAT     H2 8652   4.757   0.736   5.234
 2804WAT      O 8653   0.050   2.459   0.099
 2804WAT     H1 8654   0.123   2.452   0.167
 2804WAT     H2 8655  -0.026   2.512   0.137
 2805WAT      O 8656   3.202   1.626   8.332
 2805WAT     H1 8657   3.246   1.713   8.354
 2805WAT     H2 8658   3.150   1.594   8.412
 2806WAT      O 8659   4.158   7.495   4.656
 2806WAT     H1 8660   4.108   7.446   4.585
 2806WAT     H2 8661   4.253   7.464   4.658
 2807WAT      O 8662   5.396   5.456   3.582
 2807WAT     H1 8663   5.317   5.506   3.544
 2807WAT     H2 8664   5.472   5.461   3.517
 2808WAT      O 8665   9.693   4.713   5.532
 2808WAT     H1 8666   9.633   4.654   5.586
 2808WAT     H2 8667   9.723   4.664   5.450
 2809WAT      O 8668   3.006   8.834   9.677
 2809WAT     H1 8669   3.094   8.791   9.659
 2809WAT     H2 8670   2.961   8.787   9.753
 2810WAT      O 8671   1.011   4.890   7.271
 2810WAT     H1 8672   1.008   4.977   7.221
 2810WAT     H2 8673   1.103   4.876   7.308
 2811WAT      O 8674   9.007   0.225   5.908
 2811WAT     H1 8675   9.095   0.185   5.883
 2811WAT     H2 8676   8.943   0.152   5.934
 2812WAT      O 8677   1.483   9.039   4.222
 2812WAT     H1 8678   1.503   9.105   4.294
 2812WAT     H2 8679   1.426   8.965   4.259
 2813WAT      O 8680   3.295   0.086   8.166
 2813WAT     H1 8681   3.221   0.152   8.169
 2813WAT     H2 8682   3.261  -0.000   8.129
 2814WAT      O 8683   1.482   9.493   5.305
 2814WAT     H1 8684   1.456   9.495   5.209
 2814WAT     H2 8685   1.528   9.578   5.329
 2815WAT      O 8686   1.110   6.478   6.632
 2815WAT     H1 8687   1.016   6.506   6.646
 2815WAT     H2 8688   1.171   6.535   6.688
 2816WAT      O 8689   5.601   2.266   3.063
 2816WAT     H1 8690   5.527   2.333   3.057
 2816WAT     H2 8691   5.572   2.181   3.020
 2817WAT      O 8692   0.515   5.422   5.379
 2817WAT     H1 8693   0.476   5.440   5.289
 2817WAT     H2 8694   0.610   5.395   5.370
 2818WAT      O 8695   9.656   0.908   2.467
 2818WAT     H1 8696   9.653   0.947   2.560
 2818WAT     H2 8697   9.708   0.823   2.469
 2819WAT      O 8698   8.368   2.931   3.755
 2819WAT     H1 8699   8.448   2.872   3.762
 2819WAT     H2 8700   8.382   2.998   3.682
 2820WAT      O 8701   6.495   2.771   2.552
 2820WAT     H1 8702   6.566   2.749   2.619
 2820WAT     H2 8703   6.531   2.839   2.487
 2821WAT      O 8704   6.840   8.031   0.077
 2821WAT     H1 8705   6.793   7.950   0.113
 2821WAT     H2 8706   6.935   8.008   0.056
 2822WAT      O 8707   1.778   5.244   9.135
 2822WAT     H1 8708   1.749   5.284   9.048
 2822WAT     H2 8709   1.707   5.184   9.169
 2823WAT      O 8710   4.144   3.856   1.004
 2823WAT     H1 8711   4.125   3.954   0.990
 2823WAT     H2 8712   4.097   3.824   1.086
 2824WAT      O 8713   9.548   0.170   1.930
 2824WAT     H1 8714   9.611   0.158   2.006
 2824WAT     H2 8715   9.599   0.183   1.845
 2825WAT      O 8716   1.628   6.610   6.061
 2825WAT     H1 8717   1.607   6.513   6.069
 2825WAT     H2 8718   1.629   6.652   6.152
 2826WAT      O 8719   5.189   9.601   8.617
 2826WAT     H1 8720   5.237   9.554   8.691
 2826WAT     H2 8721   5.249   9.669   8.576
 2827WAT      O 8722   2.345   5.443   9.317
 2827WAT     H1 8723   2.376   5.501   9.241
 2827WAT     H2 8724   2.413   5.446   9.391
 2828WAT      O 8725   0.335   3.177   2.638
 2828WAT     H1 8726   0.317   3.126   2.722
 2828WAT     H2 8727   0.326   3.275   2.655
 2829WAT      O 8728   4.685   4.859   3.028
 2829WAT     H1 8729   4.595   4.897   3.005
 2829WAT     H2 8730   4.687   4.838   3.126
 2830WAT      O 8731   1.669   8.056   4.324
 2830WAT     H1 8732   1.688   8.114   4.245
 2830WAT     H2 8733   1.724   8.085   4.402
 2831WAT      O 8734   2.130   9.199   8.974
 2831WAT     H1 8735   2.046   9.146   8.968
 2831WAT     H2 8736   2.115   9.278   9.033
 2832WAT      O 8737   7.645   2.986   3.316
 2832WAT     H1 8738   7.563   2.946   3.358
 2832WAT     H2 8739   7.724   2.970   3.375
 2833WAT      O 8740   4.438   7.089   5.038
 2833WAT     H1 8741   4.426   7.188   5.035
 2833WAT     H2 8742   4.518   7.064   4.982
 2834WAT      O 8743   6.058   8.297   4.458
 2834WAT     H1 8744   5.989   8.271   4.526
 2834WAT     H2 8745   6.130   8.349   4.502
 2835WAT      O 8746   8.596   8.802   1.026
 2835WAT     H1 8747   8.623   8.750   1.107
 2835WAT     H2 8748   8.566   8.738   0.955
 2836WAT      O 8749   7.616   8.188   0.923
 2836WAT     H1 8750   7.521   8.163   0.942
 2836WAT     H2 8751   7.626   8.287   0.934
 2837WAT      O 8752   1.887   4.990   4.143
 2837WAT     H1 8753   1.854   5.074   4.101
 2837WAT     H2 8754   1.869   4.912   4.082
 2838WAT      O 8755   5.121   9.362   8.861
 2838WAT     H1 8756   5.073   9.300   8.923
 2838WAT     H2 8757   5.171   9.309   8.793
 2839WAT      O 8758   3.543   8.464   5.583
 2839WAT     H1 8759   3.484   8.512   5.648
 2839WAT     H2 8760   3.578   8.380   5.625
 2840WAT      O 8761   7.947   8.196   8.620
 2840WAT     H1 8762   7.971   8.278   8.569
 2840WAT     H2 8763   7.879   8.219   8.689
 2841WAT      O 8764   3.849   6.152   8.808
 2841WAT     H1 8765   3.842   6.251   8.802
 2841WAT     H2 8766   3.855   6.113   8.716
 2842WAT      O 8767   5.832   7.041   1.106
 2842WAT     H1 8768   5.913   7.042   1.165
 2842WAT     H2 8769   5.823   7.130   1.061
 2843WAT      O 8770   4.554   5.426   1.255
 2843WAT     H1 8771   4.584   5.445   1.349
 2843WAT     H2 8772   4.458   5.452   1.244
 2844WAT      O 8773   0.597   6.196   0.003
 2844WAT     H1 8774   0.606   6.144  -0.082
 2844WAT     H2 8775   0.558   6.138   0.074
 2845WAT      O 8776   9.385   4.025   8.599
 2845WAT     H1 8777   9.422   3.947   8.650
 2845WAT     H2 8778   9.405   4.109   8.649
 2846WAT      O 8779   0.956   8.332   2.253
 2846WAT     H1 8780   0.946   8.419   2.206
 2846WAT     H2 8781   0.875   8.315   2.310
 2847WAT      O 8782   1.380   7.964   4.501
 2847WAT     H1 8783   1.436   7.937   4.579
 2847WAT     H2 8784   1.440   7.997   4.428
 2848WAT      O 8785   0.565   9.276   5.862
 2848WAT     H1 8786   0.523   9.322   5.784
 2848WAT     H2 8787   0.654   9.240   5.835
 2849WAT      O 8788   8.728   3.421   3.834
 2849WAT     H1 8789   8.676   3.434   3.919
 2849WAT     H2 8790   8.811   3.475   3.836
 2850WAT      O 8791   2.142   9.485   2.741
 2850WAT     H1 8792   2.059   9.429   2.741
 2850WAT     H2 8793   2.178   9.490   2.834
 2851WAT      O 8794   6.744   3.819   2.010
 2851WAT     H1 8795   6.793   3.891   2.058
 2851WAT     H2 8796   6.752   3.832   1.911
 2852WAT      O 8797   5.235   1.120   0.591
 2852WAT     H1 8798   5.191   1.148   0.506
 2852WAT     H2 8799   5.334   1.115   0.578
 2853WAT      O 8800   5.056   5.236   6.109
 2853WAT     H1 8801   4.966   5.200   6.131
 2853WAT     H2 8802   5.047   5.317   6.051
 2854WAT      O 8803   3.253   1.898   0.792
 2854WAT     H1 8804   3.349   1.924   0.789
 2854WAT     H2 8805   3.203   1.962   0.850
 2855WAT      O 8806   4.948   6.714   6.215
 2855WAT     H1 8807   4.872   6.676   6.267
 2855WAT     H2 8808   4.976   6.801   6.255
 2856WAT      O 8809   3.071   0.497   3.579
 2856WAT     H1 8810   2.995   0.513   3.517
 2856WAT     H2 8811   3.157   0.520   3.533
 2857WAT      O 8812   2.544   4.846   6.369
 2857WAT     H1 8813   2.515   4.899   6.448
 2857WAT     H2 8814   2.503   4.755   6.373
 2858WAT      O 8815   2.023   2.002   3.572
 2858WAT     H1 8816   1.972   1.963   3.495
 2858WAT     H2 8817   2.002   1.951   3.655
 2859WAT      O 8818   7.358   0.942   8.943
 2859WAT     H1 8819   7.318   0.870   8.886
 2859WAT     H2 8820   7.307   0.949   9.029
 2860WAT      O 8821   2.448   1.788   0.815
 2860WAT     H1 8822   2.366   1.768   0.867
 2860WAT     H2 8823   2.429   1.778   0.717
 2861WAT      O 8824   3.425   7.239   7.023
 2861WAT     H1 8825   3.412   7.333   7.055
 2861WAT     H2 8826   3.337   7.198   7.001
 2862WAT      O 8827   7.794   0.607   2.375
 2862WAT     H1 8828   7.734   0.559   2.310
 2862WAT     H2 8829   7.775   0.574   2.468
 2863WAT      O 8830   1.511   8.820   6.502
 2863WAT     H1 8831   1.411   8.824   6.506
 2863WAT     H2 8832   1.550   8.901   6.546
 2864WAT      O 8833   7.086   9.427   0.535
 2864WAT     H1 8834   7.114   9.331   0.542
 2864WAT     H2 8835   7.056   9.446   0.441
 2865WAT      O 8836   0.223   3.021   3.357
 2865WAT     H1 8837   0.176   3.102   3.391
 2865WAT     H2 8838   0.184   2.996   3.268
 2866WAT      O 8839   5.683   7.684   2.896
 2866WAT     H1 8840   5.751   7.611   2.892
 2866WAT     H2 8841   5.608   7.663   2.834
 2867WAT      O 8842   5.614   8.895   3.913
 2867WAT     H1 8843   5.546   8.842   3.862
 2867WAT     H2 8844   5.704   8.882   3.872
 2868WAT      O 8845   6.454   4.550   0.344
 2868WAT     H1 8846   6.443   4.577   0.440
 2868WAT     H2 8847   6.393   4.606   0.287
 2869WAT      O 8848   7.961   8.184   1.804
 2869WAT     H1 8849   7.873   8.136   1.800
 2869WAT     H2 8850   8.035   8.117   1.803
 2870WAT      O 8851   8.189   8.119   8.718
 2870WAT     H1 8852   8.115   8.158   8.663
 2870WAT     H2 8853   8.153   8.047   8.777
 2871WAT      O 8854   6.866   3.881   0.689
 2871WAT     H1 8855   6.886   3.963   0.635
 2871WAT     H2 8856   6.941   3.816   0.680
 2872WAT      O 8857   0.913   1.015   5.172
 2872WAT     H1 8858   0.980   1.088   5.181
 2872WAT     H2 8859   0.913   0.958   5.254
 2873WAT      O 8860   5.939   4.416   8.436
 2873WAT     H1 8861   6.002   4.348   8.474
 2873WAT     H2 8862   5.860   4.425   8.496
 2874WAT      O 8863   0.145   3.781   5.279
 2874WAT     H1 8864   0.162   3.816   5.372
 2874WAT     H2 8865   0.048   3.790   5.257
 2875WAT      O 8866   3.454   2.178   8.737
 2875WAT     H1 8867   3.474   2.097   8.792
 2875WAT     H2 8868   3.512   2.178   8.655
 2876WAT      O 8869   5.682   2.460   4.734
 2876WAT     H1 8870   5.721   2.547   4.704
 2876WAT     H2 8871   5.748   2.411   4.791
 2877WAT      O 8872   2.884   2.205   2.083
 2877WAT     H1 8873   2.915   2.297   2.058
 2877WAT     H2 8874   2.793   2.189   2.045
 2878WAT      O 8875   1.557   8.035   9.023
 2878WAT     H1 8876   1.527   7.940   9.016
 2878WAT     H2 8877   1.645   8.045   8.977
 2879WAT      O 8878   3.540   6.956   6.228
 2879WAT     H1 8879   3.639   6.944   6.235
 2879WAT     H2 8880   3.516   6.983   6.135
 2880WAT      O 8881   3.674   1.925   3.862
 2880WAT     H1 8882   3.754   1.870   3.835
 2880WAT     H2 8883   3.623   1.951   3.780
 2881WAT      O 8884   5.267   8.517   4.283
 2881WAT     H1 8885   5.169   8.514   4.262
 2881WAT     H2 8886   5.318   8.546   4.201
 2882WAT      O 8887   7.702   2.498   8.146
 2882WAT     H1 8888   7.705   2.530   8.051
 2882WAT     H2 8889   7.732   2.572   8.206
 2883WAT      O 8890   2.134   3.468   3.766
 2883WAT     H1 8891   2.224   3.475   3.722
 2883WAT     H2 8892   2.064   3.506   3.706
 2884WAT      O 8893   5.076   7.899   8.251
 2884WAT     H1 8894   5.123   7.831   8.308
 2884WAT     H2 8895   5.029   7.853   8.176
 2885WAT      O 8896   0.586   2.643   2.541
 2885WAT     H1 8897   0.608   2.595   2.626
 2885WAT     H2 8898   0.615   2.738   2.547
 2886WAT      O 8899   4.625   5.388   1.974
 2886WAT     H1 8900   4.659   5.300   1.942
 2886WAT     H2 8901   4.687   5.424   2.043
 2887WAT      O 8902   4.048   6.996   9.618
 2887WAT     H1 8903   3.989   6.930   9.665
 2887WAT     H2 8904   4.008   7.020   9.530
 2888WAT      O 8905   8.285   2.936   8.172
 2888WAT     H1 8906   8.367   2.988   8.196
 2888WAT     H2 8907   8.211   2.999   8.151
 2889WAT      O 8908   4.848   4.649   2.673
 2889WAT     H1 8909   4.926   4.641   2.735
 2889WAT     H2 8910   4.812   4.742   2.677
 2890WAT      O 8911   6.562   6.464   9.226
 2890WAT     H1 8912   6.639   6.442   9.287
 2890WAT     H2 8913   6.544   6.387   9.165
 2891WAT      O 8914   0.313   0.616   6.801
 2891WAT     H1 8915   0.407   0.651   6.807
 2891WAT     H2 8916   0.251   0.692   6.783
 2892WAT      O 8917   3.088   5.027   5.175
 2892WAT     H1 8918   3.126   4.945   5.218
 2892WAT     H2 8919   3.057   5.005   5.083
 2893WAT      O 8920   1.228   4.198   0.190
 2893WAT     H1 8921   1.250   4.255   0.111
 2893WAT     H2 8922   1.167   4.125   0.163
 2894WAT      O 8923   8.282   8.277   9.792
 2894WAT     H1 8924   8.293   8.317   9.701
 2894WAT     H2 8925   8.192   8.300   9.828
 2895WAT      O 8926   5.349   1.578   5.387
 2895WAT     H1 8927   5.344   1.481   5.366
 2895WAT     H2 8928   5.409   1.623   5.322
 2896WAT      O 8929   8.107   2.949   5.174
 2896WAT     H1 8930   8.099   3.001   5.089
 2896WAT     H2 8931   8.027   2.965   5.232
 2897WAT      O 8932   1.601   7.168   7.109
 2897WAT     H1 8933   1.623   7.223   7.028
 2897WAT     H2 8934   1.608   7.225   7.191
 2898WAT      O 8935   4.755   6.794   7.885
 2898WAT     H1 8936   4.745   6.749   7.974
 2898WAT     H2 8937   4.779   6.726   7.816
 2899WAT      O 8938   7.883   1.618   1.153
 2899WAT     H1 8939   7.804   1.601   1.212
 2899WAT     H2 8940   7.966   1.585   1.198
 2900WAT      O 8941   6.522   6.561   8.242
 2900WAT     H1 8942   6.580   6.504   8.184
 2900WAT     H2 8943   6.484   6.636   8.188
 2901WAT      O 8944   6.415   8.045   7.617
 2901WAT     H1 8945   6.417   8.008   7.525
 2901WAT     H2 8946   6.395   8.143   7.613
 2902WAT      O 8947   3.083   8.879   2.307
 2902WAT     H1 8948   3.132   8.829   2.236
 2902WAT     H2 8949   3.061   8.971   2.273
 2903WAT      O 8950   5.199   9.456   9.803
 2903WAT     H1 8951   5.208   9.392   9.879
 2903WAT     H2 8952   5.289   9.492   9.779
 2904WAT      O 8953   7.579   0.519   4.771
 2904WAT     H1 8954   7.545   0.596   4.826
 2904WAT     H2 8955   7.616   0.554   4.685
 2905WAT      O 8956   1.952   7.236   4.255
 2905WAT     H1 8957   1.866   7.285   4.239
 2905WAT     H2 8958   1.933   7.138   4.268
 2906WAT      O 8959   3.417   3.666   5.377
 2906WAT     H1 8960   3.344   3.655   5.310
 2906WAT     H2 8961   3.464   3.754   5.360
 2907WAT      O 8962   5.350   8.079   9.133
 2907WAT     H1 8963   5.269   8.047   9.182
 2907WAT     H2 8964   5.424   8.012   9.143
 2908WAT      O 8965   8.154   3.774   7.713
 2908WAT     H1 8966   8.153   3.680   7.680
 2908WAT     H2 8967   8.204   3.832   7.648
 2909WAT      O 8968   4.709   3.195   7.812
 2909WAT     H1 8969   4.772   3.164   7.741
 2909WAT     H2 8970   4.635   3.129   7.823
 2910WAT      O 8971   7.703   1.808   6.546
 2910WAT     H1 8972   7.709   1.886   6.609
 2910WAT     H2 8973   7.777   1.813   6.479
 2911WAT      O 8974   8.727   4.420   2.709
 2911WAT     H1 8975   8.804   4.434   2.647
 2911WAT     H2 8976   8.696   4.325   2.702
 2912WAT      O 8977   5.762   0.833   6.346
 2912WAT     H1 8978   5.675   0.882   6.357
 2912WAT     H2 8979   5.791   0.797   6.434
 2913WAT      O 8980   2.051   4.280   1.827
 2913WAT     H1 8981   2.108   4.270   1.909
 2913WAT     H2 8982   1.958   4.250   1.847
 2914WAT      O 8983   1.262   7.307   2.993
 2914WAT     H1 8984   1.313   7.393   2.994
 2914WAT     H2 8985   1.266   7.266   2.902
 2915WAT      O 8986   6.693   6.919   6.042
 2915WAT     H1 8987   6.609   6.958   6.079
 2915WAT     H2 8988   6.733   6.857   6.109
 2916WAT      O 8989   7.656   6.874   3.993
 2916WAT     H1 8990   7.684   6.916   4.079
 2916WAT     H2 8991   7.557   6.881   3.982
 2917WAT      O 8992   5.942   8.143   3.259
 2917WAT     H1 8993   5.880   8.222   3.251
 2917WAT     H2 8994   5.973   8.135   3.353
 2918WAT      O 8995   3.917   9.692   2.547
 2918WAT     H1 8996   3.990   9.643   2.595
 2918WAT     H2 8997   3.898   9.646   2.460
 2919WAT      O 8998   3.991   5.613   0.838
 2919WAT     H1 8999   3.982   5.535   0.776
 2919WAT     H2 9000   4.024   5.582   0.927
 2920WAT      O 9001   0.107   1.201   7.965
 2920WAT     H1 9002   0.089   1.120   8.021
 2920WAT     H2 9003   0.028   1.262   7.967
 2921WAT      O 9004   1.290   2.866   5.446
 2921WAT     H1 9005   1.242   2.942   5.489
 2921WAT     H2 9006   1.383   2.861   5.481
 2922WAT      O 9007   0.062   8.489   3.944
 2922WAT     H1 9008   0.031   8.399   3.916
 2922WAT     H2 9009   0.005   8.560   3.902
 2923WAT      O 9010   2.456   1.729   0.553
 2923WAT     H1 9011   2.425   1.694   0.465
 2923WAT     H2 9012   2.546   1.690   0.575
 2924WAT      O 9013   1.045   0.233   0.726
 2924WAT     H1 9014   0.948   0.229   0.702
 2924WAT     H2 9015   1.070   0.328   0.746
 2925WAT      O 9016   3.252   4.046   7.144
 2925WAT     H1 9017   3.224   4.081   7.234
 2925WAT     H2 9018   3.227   4.112   7.073
 2926WAT      O 9019   6.353   7.504   3.714
 2926WAT     H1 9020   6.399   7.441   3.776
 2926WAT     H2 9021   6.417   7.532   3.642
 2927WAT      O 9022   4.346   3.878   3.210
 2927WAT     H1 9023   4.291   3.868   3.127
 2927WAT     H2 9024   4.357   3.789   3.253
 2928WAT      O 9025   3.049   1.615   9.310
 2928WAT     H1 9026   3.136   1.588   9.350
 2928WAT     H2 9027   3.002   1.534   9.275
 2929WAT      O 9028   2.259   1.741   3.807
 2929WAT     H1 9029   2.265   1.714   3.711
 2929WAT     H2 9030   2.164   1.733   3.837
 2930WAT      O 9031   1.956   9.566   6.350
 2930WAT     H1 9032   1.913   9.656   6.340
 2930WAT     H2 9033   2.016   9.566   6.430
 2931WAT      O 9034   5.816   6.172   1.683
 2931WAT     H1 9035   5.783   6.145   1.592
 2931WAT     H2 9036   5.748   6.232   1.726
 2932WAT      O 9037   4.960   7.080   7.362
 2932WAT     H1 9038   4.932   7.014   7.293
 2932WAT     H2 9039   5.021   7.148   7.321
 2933WAT      O 9040   0.055   7.393   2.854
 2933WAT     H1 9041   0.028   7.435   2.768
 2933WAT     H2 9042  -0.017   7.331   2.885
 2934WAT      O 9043   6.548   1.365   9.259
 2934WAT     H1 9044   6.648   1.361   9.258
 2934WAT     H2 9045   6.514   1.375   9.165
 2935WAT      O 9046   0.004   9.324   3.713
 2935WAT     H1 9047  -0.038   9.398   3.660
 2935WAT     H2 9048   0.081   9.286   3.663
 2936WAT      O 9049   3.731   7.059   1.533
 2936WAT     H1 9050   3.794   6.992   1.574
 2936WAT     H2 9051   3.726   7.140   1.592
 2937WAT      O 9052   5.171   7.064   4.398
 2937WAT     H1 9053   5.139   6.975   4.430
 2937WAT     H2 9054   5.093   7.124   4.381
 2938WAT      O 9055   1.545   1.232   2.266
 2938WAT     H1 9056   1.612   1.166   2.301
 2938WAT     H2 9057   1.587   1.286   2.193
 2939WAT      O 9058   8.652   2.453   2.960
 2939WAT     H1 9059   8.673   2.531   2.902
 2939WAT     H2 9060   8.652   2.370   2.904
 2940WAT      O 9061   2.773   1.403   1.673
 2940WAT     H1 9062   2.689   1.439   1.714
 2940WAT     H2 9063   2.804   1.465   1.601
 2941WAT      O 9064   8.433   2.990   4.309
 2941WAT     H1 9065   8.497   3.054   4.266
 2941WAT     H2 9066   8.410   2.918   4.244
 2942WAT      O 9067   0.856   2.385   7.503
 2942WAT     H1 9068   0.911   2.370   7.585
 2942WAT     H2 9069   0.910   2.433   7.435
 2943WAT      O 9070   7.710   4.678   8.836
 2943WAT     H1 9071   7.809   4.682   8.846
 2943WAT     H2 9072   7.686   4.616   8.761
 2944WAT      O 9073   9.576   8.463   4.300
 2944WAT     H1 9074   9.553   8.373   4.336
 2944WAT     H2 9075   9.667   8.460   4.259
 2945WAT      O 9076   2.709   9.479   7.571
 2945WAT     H1 9077   2.687   9.382   7.555
 2945WAT     H2 9078   2.776   9.486   7.644
 2946WAT      O 9079   2.865   0.633   2.607
 2946WAT     H1 9080   2.935   0.562   2.609
 2946WAT     H2 9081   2.840   0.658   2.700
 2947WAT      O 9082   0.551   5.100   1.572
 2947WAT     H1 9083   0.496   5.159   1.513
 2947WAT     H2 9084   0.635   5.075   1.525
 2948WAT      O 9085   8.451   8.166   8.768
 2948WAT     H1 9086   8.480   8.147   8.861
 2948WAT     H2 9087   8.364   8.121   8.750
 2949WAT      O 9088   2.810   2.366   4.538
 2949WAT     H1 9089   2.810   2.293   4.470
 2949WAT     H2 9090   2.718   2.405   4.545
 2950WAT      O 9091   2.746   7.030   9.764
 2950WAT     H1 9092   2.804   7.083   9.703
 2950WAT     H2 9093   2.653   7.068   9.763
 2951WAT      O 9094   5.885   7.813   0.812
 2951WAT     H1 9095   5.961   7.772   0.762
 2951WAT     H2 9096   5.867   7.905   0.777
 2952WAT      O 9097   3.642   6.187   2.316
 2952WAT     H1 9098   3.627   6.286   2.313
 2952WAT     H2 9099   3.619   6.153   2.408
 2953WAT      O 9100   0.095   0.018   9.319
 2953WAT     H1 9101   0.089   0.062   9.229
 2953WAT     H2 9102   0.003   0.005   9.356
 2954WAT      O 9103   7.423   1.733   5.506
 2954WAT     H1 9104   7.422   1.823   5.550
 2954WAT     H2 9105   7.427   1.744   5.407
 2955WAT      O 9106   7.057   3.252   8.607
 2955WAT     H1 9107   7.085   3.216   8.697
 2955WAT     H2 9108   6.974   3.205   8.578
 2956WAT      O 9109   0.286   6.975   7.159
 2956WAT     H1 9110   0.324   7.043   7.222
 2956WAT     H2 9111   0.341   6.972   7.076
 2957WAT      O 9112   4.595   9.329   1.812
 2957WAT     H1 9113   4.515   9.387   1.828
 2957WAT     H2 9114   4.577   9.267   1.735
 2958WAT      O 9115   3.769   7.942   3.239
 2958WAT     H1 9116   3.761   8.038   3.265
 2958WAT     H2 9117   3.762   7.884   3.320
 2959WAT      O 9118   9.479   4.722   1.055
 2959WAT     H1 9119   9.450   4.816   1.073
 2959WAT     H2 9120   9.577   4.714   1.071
 2960WAT      O 9121   1.201   7.991   6.202
 2960WAT     H1 9122   1.128   7.984   6.270
 2960WAT     H2 9123   1.290   7.984   6.249
 2961WAT      O 9124   6.251   2.457   0.196
 2961WAT     H1 9125   6.198   2.473   0.112
 2961WAT     H2 9126   6.201   2.394   0.255
 2962WAT      O 9127   3.524   4.265   7.087
 2962WAT     H1 9128   3.600   4.327   7.069
 2962WAT     H2 9129   3.446   4.289   7.029
 2963WAT      O 9130   2.422   8.495   0.317
 2963WAT     H1 9131   2.409   8.546   0.402
 2963WAT     H2 9132   2.333   8.469   0.279
 2964WAT      O 9133   7.559   0.169   3.651
 2964WAT     H1 9134   7.476   0.190   3.702
 2964WAT     H2 9135   7.561   0.071   3.629
 2965WAT      O 9136   4.528   9.145   1.629
 2965WAT     H1 9137   4.502   9.158   1.533
 2965WAT     H2 9138   4.570   9.055   1.640
 2966WAT      O 9139   8.810   4.912   2.069
 2966WAT     H1 9140   8.825   4.910   2.167
 2966WAT     H2 9141   8.714   4.933   2.050
 2967WAT      O 9142   4.294   4.376   8.389
 2967WAT     H1 9143   4.236   4.317   8.444
 2967WAT     H2 9144   4.384   4.384   8.431
 2968WAT      O 9145   6.481   4.584   0.618
 2968WAT     H1 9146   6.495   4.659   0.682
 2968WAT     H2 9147   6.570   4.545   0.592
 2969WAT      O 9148   7.898   0.952   6.306
 2969WAT     H1 9149   7.836   0.976   6.231
 2969WAT     H2 9150   7.904   0.853   6.314
 2970WAT      O 9151   7.847   3.070   8.752
 2970WAT     H1 9152   7.765   3.029   8.712
 2970WAT     H2 9153   7.900   2.999   8.799
 2971WAT      O 9154   2.780   6.144   9.545
 2971WAT     H1 9155   2.701   6.171   9.600
 2971WAT     H2 9156   2.852   6.110   9.605
 2972WAT      O 9157   6.167   7.144   7.660
 2972WAT     H1 9158   6.206   7.212   7.598
 2972WAT     H2 9159   6.220   7.059   7.653
 2973WAT      O 9160   5.543   4.078   3.528
 2973WAT     H1 9161   5.541   3.998   3.468
 2973WAT     H2 9162   5.546   4.048   3.623
 2974WAT      O 9163   5.334   8.510   3.485
 2974WAT     H1 9164   5.377   8.463   3.562
 2974WAT     H2 9165   5.302   8.442   3.419
 2975WAT      O 9166   4.395   2.567   6.005
 2975WAT     H1 9167   4.398   2.665   6.024
 2975WAT     H2 9168   4.331   2.550   5.931
 2976WAT      O 9169   9.486   5.263   7.727
 2976WAT     H1 9170   9.481   5.164   7.710
 2976WAT     H2 9171   9.550   5.305   7.663
 2977WAT      O 9172   5.124   2.896   9.236
 2977WAT     H1 9173   5.087   2.968   9.177
 2977WAT     H2 9174   5.109   2.807   9.193
 2978WAT      O 9175   6.700   2.035   6.644
 2978WAT     H1 9176   6.610   2.021   6.685
 2978WAT     H2 9177   6.734   1.949   6.606
 2979WAT      O 9178   2.584   8.815   9.711
 2979WAT     H1 9179   2.648   8.803   9.787
 2979WAT     H2 9180   2.630   8.863   9.636
 2980WAT      O 9181   7.699   3.735   2.432
 2980WAT     H1 9182   7.674   3.640   2.413
 2980WAT     H2 9183   7.738   3.776   2.350
 2981WAT      O 9184   8.390   2.715   3.228
 2981WAT     H1 9185   8.472   2.681   3.275
 2981WAT     H2 9186   8.313   2.716   3.292
 2982WAT      O 9187   0.396   8.493   5.816
 2982WAT     H1 9188   0.491   8.518   5.797
 2982WAT     H2 9189   0.347   8.480   5.729
 2983WAT      O 9190   0.541   5.941   8.124
 2983WAT     H1 9191   0.571   5.917   8.032
 2983WAT     H2 9192   0.614   5.919   8.189
 2984WAT      O 9193   1.555   5.816   8.206
 2984WAT     H1 9194   1.590   5.722   8.205
 2984WAT     H2 9195   1.486   5.826   8.277
 2985WAT      O 9196   5.956   7.045   7.261
 2985WAT     H1 9197   5.879   7.032   7.199
 2985WAT     H2 9198   6.039   7.062   7.207
 2986WAT      O 9199   7.907   4.346   4.837
 2986WAT     H1 9200   7.988   4.389   4.798
 2986WAT     H2 9201   7.912   4.247   4.825
 2987WAT      O 9202   5.328   1.709   7.024
 2987WAT     H1 9203   5.323   1.644   6.948
 2987WAT     H2 9204   5.419   1.708   7.063
 2988WAT      O 9205   5.945   2.463   2.042
 2988WAT     H1 9206   5.866   2.413   2.077
 2988WAT     H2 9207   5.915   2.551   2.004
 2989WAT      O 9208   7.045   4.184   7.703
 2989WAT     H1 9209   7.115   4.228   7.647
 2989WAT     H2 9210   7.059   4.085   7.701
 2990WAT      O 9211   7.938   8.527   7.362
 2990WAT     H1 9212   7.890   8.614   7.354
 2990WAT     H2 9213   7.926   8.490   7.454
 2991WAT      O 9214   2.066   9.282   1.254
 2991WAT     H1 9215   2.068   9.239   1.163
 2991WAT     H2 9216   2.098   9.376   1.246
 2992WAT      O 9217   5.318   1.832   4.064
 2992WAT     H1 9218   5.324   1.883   3.978
 2992WAT     H2 9219   5.322   1.895   4.141
 2993WAT      O 9220   7.621   2.852   8.228
 2993WAT     H1 9221   7.672   2.814   8.305
 2993WAT     H2 9222   7.578   2.938   8.256
 2994WAT      O 9223   3.496   6.770   8.168
 2994WAT     H1 9224   3.412   6.789   8.219
 2994WAT     H2 9225   3.554   6.709   8.221
 2995WAT      O 9226   1.710   4.882   7.814
 2995WAT     H1 9227   1.766   4.814   7.861
 2995WAT     H2 9228   1.651   4.837   7.747
 2996WAT      O 9229   2.180   7.763   1.504
 2996WAT     H1 9230   2.271   7.788   1.471
 2996WAT     H2 9231   2.154   7.826   1.578
 2997WAT      O 9232   3.508   6.880   3.147
 2997WAT     H1 9233   3.471   6.832   3.227
 2997WAT     H2 9234   3.548   6.966   3.175
 2998WAT      O 9235   1.906   6.659   9.776
 2998WAT     H1 9236   1.824   6.619   9.734
 2998WAT     H2 9237   1.963   6.586   9.814
 2999WAT      O 9238   6.968   4.495   9.256
 2999WAT     H1 9239   7.043   4.434   9.231
 2999WAT     H2 9240   6.902   4.445   9.312
 3000WAT      O 9241   8.746   8.414   1.126
 3000WAT     H1 9242   8.830   8.413   1.073
 3000WAT     H2 9243   8.674   8.365   1.077
 3001WAT      O 9244   3.747   1.823   0.218
 3001WAT     H1 9245   3.744   1.840   0.120
 3001WAT     H2 9246   3.801   1.740   0.236
 3002WAT      O 9247   0.090   7.948   7.449
 3002WAT     H1 9248   0.031   7.991   7.380
 3002WAT     H2 9249   0.038   7.935   7.533
 3003WAT      O 9250   6.478   3.086   4.290
 3003WAT     H1 9251   6.405   3.024   4.262
 3003WAT     H2 9252   6.567   3.048   4.264
 3004WAT      O 9253   3.397   8.823   8.195
 3004WAT     H1 9254   3.490   8.788   8.207
 3004WAT     H2 9255   3.375   8.826   8.097
 3005WAT      O 9256   4.866   2.412   9.561
 3005WAT     H1 9257   4.788   2.469   9.585
 3005WAT     H2 9258   4.950   2.456   9.593
 3006WAT      O 9259   1.042   5.547   2.955
 3006WAT     H1 9260   1.098   5.630   2.946
 3006WAT     H2 9261   1.082   5.486   3.023
 3007WAT      O 9262   2.059   4.623   5.521
 3007WAT     H1 9263   1.968   4.641   5.559
 3007WAT     H2 9264   2.051   4.603   5.423
 3008WAT      O 9265   5.663   5.718   5.483
 3008WAT     H1 9266   5.735   5.704   5.414
 3008WAT     H2 9267   5.574   5.712   5.438
 3009WAT      O 9268   2.755   0.613   9.789
 3009WAT     H1 9269   2.710   0.608   9.879
 3009WAT     H2 9270   2.692   0.580   9.719
 3010WAT      O 9271   4.831   8.201   9.603
 3010WAT     H1 9272   4.791   8.288   9.577
 3010WAT     H2 9273   4.902   8.175   9.537
 3011WAT      O 9274   2.857   7.359   3.274
 3011WAT     H1 9275   2.906   7.277   3.306
 3011WAT     H2 9276   2.801   7.335   3.195
 3012WAT      O 9277   9.460   2.487   2.998
 3012WAT     H1 9278   9.463   2.559   2.928
 3012WAT     H2 9279   9.471   2.528   3.088
 3013WAT      O 9280   6.525   1.416   8.025
 3013WAT     H1 9281   6.467   1.397   8.105
 3013WAT     H2 9282   6.483   1.377   7.943
 3014WAT      O 9283   5.098   8.928   2.248
 3014WAT     H1 9284   5.189   8.928   2.207
 3014WAT     H2 9285   5.092   9.001   2.317
 3015WAT      O 9286   0.892   2.067   7.355
 3015WAT     H1 9287   0.959   2.007   7.312
 3015WAT     H2 9288   0.804   2.058   7.309
 3016WAT      O 9289   1.757   1.099   4.258
 3016WAT     H1 9290   1.699   1.036   4.207
 3016WAT     H2 9291   1.827   1.136   4.197
 3017WAT      O 9292   8.778   3.473   2.094
 3017WAT     H1 9293   8.760   3.528   2.175
 3017WAT     H2 9294   8.692   3.453   2.047
 3018WAT      O 9295   8.502   8.361   8.018
 3018WAT     H1 9296   8.532   8.268   7.996
 3018WAT     H2 9297   8.403   8.363   8.027
 3019WAT      O 9298   1.589   8.029   6.720
 3019WAT     H1 9299   1.502   8.010   6.675
 3019WAT     H2 9300   1.642   8.093   6.664
 3020WAT      O 9301   9.096   4.363   5.633
 3020WAT     H1 9302   9.134   4.375   5.541
 3020WAT     H2 9303   8.998   4.378   5.630
 3021WAT      O 9304   2.448   3.296   2.158
 3021WAT     H1 9305   2.524   3.289   2.223
 3021WAT     H2 9306   2.456   3.222   2.090
 3022WAT      O 9307   2.936   9.536   6.719
 3022WAT     H1 9308   2.915   9.559   6.814
 3022WAT     H2 9309   3.007   9.466   6.716
 3023WAT      O 9310   1.910   2.695   0.602
 3023WAT     H1 9311   1.949   2.758   0.535
 3023WAT     H2 9312   1.979   2.628   0.629
 3024WAT      O 9313   1.028   3.551   5.037
 3024WAT     H1 9314   0.971   3.589   5.110
 3024WAT     H2 9315   1.045   3.621   4.968
 3025WAT      O 9316   5.330   1.422   0.219
 3025WAT     H1 9317   5.304   1.343   0.164
 3025WAT     H2 9318   5.407   1.398   0.278
 3026WAT      O 9319   8.707   3.138   2.446
 3026WAT     H1 9320   8.715   3.060   2.384
 3026WAT     H2 9321   8.714   3.107   2.541
 3027WAT      O 9322   1.988   8.700   9.757
 3027WAT     H1 9323   2.061   8.764   9.731
 3027WAT     H2 9324   1.917   8.750   9.807
 3028WAT      O 9325   1.132   0.155   3.813
 3028WAT     H1 9326   1.043   0.149   3.768
 3028WAT     H2 9327   1.205   0.146   3.744
 3029WAT      O 9328   8.182   6.576   7.896
 3029WAT     H1 9329   8.249   6.507   7.925
 3029WAT     H2 9330   8.167   6.641   7.970
 3030WAT      O 9331   4.880   8.607   7.943
 3030WAT     H1 9332   4.952   8.601   7.875
 3030WAT     H2 9333   4.920   8.607   8.035
 3031WAT      O 9334   7.816   5.050   7.477
 3031WAT     H1 9335   7.729   5.008   7.504
 3031WAT     H2 9336   7.803   5.107   7.396
 3032WAT      O 9337   1.267   6.884   5.083
 3032WAT     H1 9338   1.284   6.855   5.178
 3032WAT     H2 9339   1.312   6.821   5.021
 3033WAT      O 9340   7.820   1.870   3.391
 3033WAT     H1 9341   7.829   1.791   3.330
 3033WAT     H2 9342   7.804   1.839   3.484
 3034WAT      O 9343   7.548   6.029   4.392
 3034WAT     H1 9344   7.609   6.082   4.450
 3034WAT     H2 9345   7.578   5.934   4.389
 3035WAT      O 9346   0.834   9.327   1.117
 3035WAT     H1 9347   0.734   9.321   1.107
 3035WAT     H2 9348   0.857   9.328   1.214
 3036WAT      O 9349   9.365   1.983   8.873
 3036WAT     H1 9350   9.386   2.071   8.830
 3036WAT     H2 9351   9.418   1.911   8.829
 3037WAT      O 9352   7.197   6.725   2.587
 3037WAT     H1 9353   7.232   6.801   2.531
 3037WAT     H2 9354   7.274   6.675   2.627
 3038WAT      O 9355   1.384   5.494   8.424
 3038WAT     H1 9356   1.349   5.459   8.511
 3038WAT     H2 9357   1.388   5.594   8.427
 3039WAT      O 9358   8.143   8.815   6.483
 3039WAT     H1 9359   8.239   8.793   6.468
 3039WAT     H2 9360   8.090   8.731   6.496
 3040WAT      O 9361   4.685   5.848   3.316
 3040WAT     H1 9362   4.780   5.822   3.305
 3040WAT     H2 9363   4.671   5.939   3.277
 3041WAT      O 9364   4.990   8.578   8.191
 3041WAT     H1 9365   5.065   8.585   8.257
 3041WAT     H2 9366   4.904   8.605   8.234
 3042WAT      O 9367   9.275   4.627   0.156
 3042WAT     H1 9368   9.308   4.714   0.192
 3042WAT     H2 9369   9.351   4.563   0.147
 3043WAT      O 9370   5.065   3.404   2.513
 3043WAT     H1 9371   4.976   3.449   2.507
 3043WAT     H2 9372   5.096   3.378   2.421
 3044WAT      O 9373   2.062   5.549   7.555
 3044WAT     H1 9374   2.072   5.578   7.460
 3044WAT     H2 9375   1.965   5.538   7.577
 3045WAT      O 9376   8.931   2.204   4.179
 3045WAT     H1 9377   8.965   2.112   4.194
 3045WAT     H2 9378   8.865   2.227   4.251
 3046WAT      O 9379   5.957   1.065   6.890
 3046WAT     H1 9380   5.939   0.990   6.826
 3046WAT     H2 9381   6.056   1.081   6.896
 3047WAT      O 9382   5.602   1.853   5.673
 3047WAT     H1 9383   5.541   1.805   5.737
 3047WAT     H2 9384   5.677   1.895   5.724
 3048WAT      O 9385   1.496   9.172   0.764
 3048WAT     H1 9386   1.489   9.104   0.691
 3048WAT     H2 9387   1.592   9.197   0.778
 3049WAT      O 9388   6.588   0.061   5.596
 3049WAT     H1 9389   6.557   0.156   5.588
 3049WAT     H2 9390   6.618   0.029   5.506
 3050WAT      O 9391   7.926   4.636   4.632
 3050WAT     H1 9392   7.990   4.586   4.690
 3050WAT     H2 9393   7.971   4.663   4.547
 3051WAT      O 9394   2.361   8.197   5.790
 3051WAT     H1 9395   2.392   8.266   5.724
 3051WAT     H2 9396   2.439   8.166   5.844
 3052WAT      O 9397   1.578   4.725   7.600
 3052WAT     H1 9398   1.647   4.653   7.613
 3052WAT     H2 9399   1.491   4.683   7.575
 3053WAT      O 9400   6.209   3.530   4.761
 3053WAT     H1 9401   6.130   3.474   4.787
 3053WAT     H2 9402   6.180   3.626   4.756
 3054WAT      O 9403   8.640   0.376   7.297
 3054WAT     H1 9404   8.594   0.291   7.323
 3054WAT     H2 9405   8.575   0.436   7.250
 3055WAT      O 9406   0.588   0.092   6.347
 3055WAT     H1 9407   0.509   0.154   6.346
 3055WAT     H2 9408   0.663   0.134   6.296
 3056WAT      O 9409   9.135   2.608   0.147
 3056WAT     H1 9410   9.149   2.595   0.245
 3056WAT     H2 9411   9.184   2.537   0.097
 3057WAT      O 9412   6.845   1.873   0.739
 3057WAT     H1 9413   6.750   1.845   0.731
 3057WAT     H2 9414   6.889   1.822   0.813
 3058WAT      O 9415   8.964   6.716   2.442
 3058WAT     H1 9416   8.973   6.633   2.497
 3058WAT     H2 9417   8.871   6.752   2.451
 3059WAT      O 9418   8.868   2.362   0.393
 3059WAT     H1 9419   8.785   2.372   0.339
 3059WAT     H2 9420   8.857   2.286   0.457
 3060WAT      O 9421   0.961   5.142   4.832
 3060WAT     H1 9422   0.922   5.174   4.918
 3060WAT     H2 9423   0.935   5.206   4.759
 3061WAT      O 9424   1.077   8.066   6.573
 3061WAT     H1 9425   1.078   8.165   6.560
 3061WAT     H2 9426   1.023   8.023   6.501
 3062WAT      O 9427   0.088   9.334   6.524
 3062WAT     H1 9428  -0.010   9.317   6.534
 3062WAT     H2 9429   0.107   9.432   6.534
 3063WAT      O 9430   0.988   6.951   2.868
 3063WAT     H1 9431   0.986   6.962   2.967
 3063WAT     H2 9432   0.967   7.038   2.824
 3064WAT      O 9433   1.476   3.125   0.645
 3064WAT     H1 9434   1.390   3.165   0.613
 3064WAT     H2 9435   1.522   3.081   0.568
 3065WAT      O 9436   3.536   0.244   1.016
 3065WAT     H1 9437   3.609   0.288   1.068
 3065WAT     H2 9438   3.562   0.242   0.919
 3066WAT      O 9439   7.875   5.589   5.801
 3066WAT     H1 9440   7.933   5.554   5.874
 3066WAT     H2 9441   7.782   5.552   5.812
 3067WAT      O 9442   8.547   9.418   0.687
 3067WAT     H1 9443   8.606   9.467   0.623
 3067WAT     H2 9444   8.498   9.346   0.638
 3068WAT      O 9445   3.359   8.993   1.356
 3068WAT     H1 9446   3.336   8.911   1.409
 3068WAT     H2 9447   3.454   9.018   1.373
 3069WAT      O 9448   2.436   0.707   6.805
 3069WAT     H1 9449   2.493   0.667   6.876
 3069WAT     H2 9450   2.483   0.787   6.766
 3070WAT      O 9451   1.952   3.923   3.993
 3070WAT     H1 9452   1.857   3.915   4.023
 3070WAT     H2 9453   1.986   4.015   4.013
 3071WAT      O 9454   9.855   6.021   7.517
 3071WAT     H1 9455   9.861   5.994   7.613
 3071WAT     H2 9456   9.788   6.095   7.506
 3072WAT      O 9457   1.795   6.981   9.289
 3072WAT     H1 9458   1.810   7.010   9.383
 3072WAT     H2 9459   1.844   6.896   9.272
 3073WAT      O 9460   0.671   0.676   4.937
 3073WAT     H1 9461   0.678   0.758   4.995
 3073WAT     H2 9462   0.683   0.594   4.994
 3074WAT      O 9463   7.258   4.029   2.351
 3074WAT     H1 9464   7.198   3.954   2.324
 3074WAT     H2 9465   7.205   4.114   2.359
 3075WAT      O 9466   6.380   8.317   4.409
 3075WAT     H1 9467   6.400   8.253   4.482
 3075WAT     H2 9468   6.373   8.410   4.446
 3076WAT      O 9469   6.243   1.810   1.046
 3076WAT     H1 9470   6.305   1.882   1.014
 3076WAT     H2 9471   6.290   1.722   1.041
 3077WAT      O 9472   9.125   5.565   1.507
 3077WAT     H1 9473   9.115   5.656   1.466
 3077WAT     H2 9474   9.035   5.523   1.516
 3078WAT      O 9475   7.083   6.159   1.631
 3078WAT     H1 9476   7.159   6.222   1.621
 3078WAT     H2 9477   7.002   6.209   1.661
 3079WAT      O 9478   5.604   8.841   8.855
 3079WAT     H1 9479   5.587   8.756   8.906
 3079WAT     H2 9480   5.523   8.863   8.801
 3080WAT      O 9481   1.391   4.148   8.238
 3080WAT     H1 9482   1.468   4.084   8.245
 3080WAT     H2 9483   1.306   4.097   8.226
 3081WAT      O 9484   2.265   2.559   7.077
 3081WAT     H1 9485   2.325   2.481   7.061
 3081WAT     H2 9486   2.286   2.600   7.166
 3082WAT      O 9487   0.277   1.176   0.596
 3082WAT     H1 9488   0.293   1.274   0.587
 3082WAT     H2 9489   0.364   1.127   0.591
 3083WAT      O 9490   0.518   0.325   5.209
 3083WAT     H1 9491   0.568   0.371   5.136
 3083WAT     H2 9492   0.420   0.331   5.191
 3084WAT      O 9493   8.473   7.754   3.007
 3084WAT     H1 9494   8.483   7.781   3.103
 3084WAT     H2 9495   8.541   7.801   2.952
 3085WAT      O 9496   7.640   2.947   2.217
 3085WAT     H1 9497   7.707   3.005   2.170
 3085WAT     H2 9498   7.623   2.984   2.308
 3086WAT      O 9499   9.287   7.898   6.063
 3086WAT     H1 9500   9.274   7.906   5.964
 3086WAT     H2 9501   9.327   7.809   6.084
 3087WAT      O 9502   5.934   4.471   5.690
 3087WAT     H1 9503   6.024   4.492   5.652
 3087WAT     H2 9504   5.927   4.508   5.783
 3088WAT      O 9505   8.778   4.541   4.136
 3088WAT     H1 9506   8.877   4.548   4.143
 3088WAT     H2 9507   8.753   4.507   4.045
 3089WAT      O 9508   4.867   0.694   2.316
 3089WAT     H1 9509   4.818   0.725   2.236
 3089WAT     H2 9510   4.909   0.605   2.297
 3090WAT      O 9511   6.755   3.930   1.314
 3090WAT     H1 9512   6.694   3.916   1.392
 3090WAT     H2 9513   6.850   3.927   1.345
 3091WAT      O 9514   1.160   2.078   5.374
 3091WAT     H1 9515   1.164   2.176   5.359
 3091WAT     H2 9516   1.153   2.059   5.472
 3092WAT      O 9517   9.803   0.686   4.721
 3092WAT     H1 9518   9.795   0.675   4.820
 3092WAT     H2 9519   9.888   0.734   4.699
 3093WAT      O 9520   2.985   0.909   2.731
 3093WAT     H1 9521   3.058   0.849   2.762
 3093WAT     H2 9522   2.926   0.860   2.668
 3094WAT      O 9523   9.592   6.566   5.500
 3094WAT     H1 9524   9.524   6.633   5.470
 3094WAT     H2 9525   9.662   6.557   5.430
 3095WAT      O 9526   9.634   7.233   5.792
 3095WAT     H1 9527   9.724   7.206   5.755
 3095WAT     H2 9528   9.601   7.314   5.743
 3096WAT      O 9529   1.613   3.935   5.313
 3096WAT     H1 9530   1.680   3.878   5.264
 3096WAT     H2 9531   1.654   3.970   5.397
 3097WAT      O 9532   1.339   3.220   8.443
 3097WAT     H1 9533   1.275   3.173   8.503
 3097WAT     H2 9534   1.292   3.246   8.358
 3098WAT      O 9535   3.534   7.655   4.122
 3098WAT     H1 9536   3.453   7.669   4.179
 3098WAT     H2 9537   3.596   7.733   4.132
 3099WAT      O 9538   3.510   1.772   9.093
 3099WAT     H1 9539   3.527   1.691   9.149
 3099WAT     H2 9540   3.466   1.843   9.148
 3100WAT      O 9541   9.194   9.210   6.082
 3100WAT     H1 9542   9.245   9.278   6.028
 3100WAT     H2 9543   9.210   9.119   6.044
 3101WAT      O 9544   1.838   8.243   7.593
 3101WAT     H1 9545   1.868   8.336   7.617
 3101WAT     H2 9546   1.913   8.179   7.607
 3102WAT      O 9547   7.578   0.939   2.591
 3102WAT     H1 9548   7.549   0.844   2.602
 3102WAT     H2 9549   7.650   0.961   2.657
 3103WAT      O 9550   7.304   7.003   3.305
 3103WAT     H1 9551   7.402   7.021   3.307
 3103WAT     H2 9552   7.254   7.086   3.332
 3104WAT      O 9553   2.741   6.659   3.394
 3104WAT     H1 9554   2.718   6.622   3.304
 3104WAT     H2 9555   2.657   6.675   3.446
 3105WAT      O 9556   9.030   0.180   8.864
 3105WAT     H1 9557   9.036   0.241   8.942
 3105WAT     H2 9558   9.002   0.089   8.894
 3106WAT      O 9559   9.747   5.052   9.648
 3106WAT     H1 9560   9.826   5.092   9.695
 3106WAT     H2 9561   9.696   5.123   9.601
 3107WAT      O 9562   0.087   1.854   3.900
 3107WAT     H1 9563   0.048   1.811   3.819
 3107WAT     H2 9564   0.094   1.787   3.974
 3108WAT      O 9565   5.471   4.853   4.099
 3108WAT     H1 9566   5.461   4.946   4.132
 3108WAT     H2 9567   5.568   4.831   4.091
 3109WAT      O 9568   9.081   7.062   4.483
 3109WAT     H1 9569   9.105   6.965   4.473
 3109WAT     H2 9570   9.163   7.118   4.476
 3110WAT      O 9571   0.290   4.244   2.668
 3110WAT     H1 9572   0.202   4.246   2.715
 3110WAT     H2 9573   0.280   4.197   2.581
 3111WAT      O 9574   7.990   8.278   3.422
 3111WAT     H1 9575   8.051   8.347   3.383
 3111WAT     H2 9576   7.906   8.321   3.453
 3112WAT      O 9577   4.879   3.123   3.651
 3112WAT     H1 9578   4.792   3.138   3.604
 3112WAT     H2 9579   4.872   3.151   3.746
 3113WAT      O 9580   6.910   2.519   4.811
 3113WAT     H1 9581   6.974   2.455   4.767
 3113WAT     H2 9582   6.819   2.478   4.812
 3114WAT      O 9583   8.970   2.246   2.821
 3114WAT     H1 9584   8.919   2.164   2.794
 3114WAT     H2 9585   8.970   2.254   2.921
 3115WAT      O 9586   1.128   0.636   9.160
 3115WAT     H1 9587   1.122   0.717   9.102
 3115WAT     H2 9588   1.083   0.558   9.115
 3116WAT      O 9589   8.352   0.128   8.287
 3116WAT     H1 9590   8.341   0.035   8.322
 3116WAT     H2 9591   8.274   0.184   8.316
 3117WAT      O 9592   7.527   4.114   8.892
 3117WAT     H1 9593   7.573   4.030   8.921
 3117WAT     H2 9594   7.451   4.133   8.953
 3118WAT      O 9595   1.965   9.504   0.323
 3118WAT     H1 9596   2.055   9.462   0.310
 3118WAT     H2 9597   1.951   9.575   0.253
 3119WAT      O 9598   2.286   6.219   2.532
 3119WAT     H1 9599   2.295   6.234   2.630
 3119WAT     H2 9600   2.376   6.202   2.492
 3120WAT      O 9601   8.554   4.706   2.169
 3120WAT     H1 9602   8.642   4.661   2.153
 3120WAT     H2 9603   8.561   4.802   2.143
 3121WAT      O 9604   9.407   8.825   3.482
 3121WAT     H1 9605   9.350   8.771   3.419
 3121WAT     H2 9606   9.429   8.913   3.439
 3122WAT      O 9607   3.995   7.612   1.791
 3122WAT     H1 9608   4.071   7.585   1.850
 3122WAT     H2 9609   3.924   7.656   1.845
 3123WAT      O 9610   8.243   4.396   0.007
 3123WAT     H1 9611   8.302   4.342   0.067
 3123WAT     H2 9612   8.296   4.471  -0.033
 3124WAT      O 9613   9.549   9.471   9.323
 3124WAT     H1 9614   9.469   9.529   9.342
 3124WAT     H2 9615   9.626   9.529   9.296
 3125WAT      O 9616   1.508   8.322   3.051
 3125WAT     H1 9617   1.592   8.303   3.000
 3125WAT     H2 9618   1.453   8.239   3.058
 3126WAT      O 9619   7.554   6.917   0.690
 3126WAT     H1 9620   7.581   6.867   0.608
 3126WAT     H2 9621   7.551   7.015   0.670
 3127WAT      O 9622   4.120   5.037   0.975
 3127WAT     H1 9623   4.150   5.112   1.033
 3127WAT     H2 9624   4.198   4.999   0.925
 3128WAT      O 9625   1.597   8.961   5.670
 3128WAT     H1 9626   1.665   9.027   5.700
 3128WAT     H2 9627   1.535   9.004   5.604
 3129WAT      O 9628   8.004   6.930   6.711
 3129WAT     H1 9629   7.976   6.967   6.622
 3129WAT     H2 9630   8.101   6.949   6.727
 3130WAT      O 9631   2.131   3.451   5.772
 3130WAT     H1 9632   2.154   3.457   5.869
 3130WAT     H2 9633   2.191   3.385   5.727
 3131WAT      O 9634   0.135   4.050   1.140
 3131WAT     H1 9635   0.146   3.996   1.224
 3131WAT     H2 9636   0.071   4.004   1.079
 3132WAT      O 9637   3.649   9.846   0.767
 3132WAT     H1 9638   3.731   9.853   0.825
 3132WAT     H2 9639   3.616   9.752   0.767
 3133WAT      O 9640   7.435   6.621   0.129
 3133WAT     H1 9641   7.388   6.545   0.173
 3133WAT     H2 9642   7.533   6.609   0.138
 3134WAT      O 9643   5.110   6.085   7.336
 3134WAT     H1 9644   5.022   6.116   7.370
 3134WAT     H2 9645   5.111   5.985   7.333
 3135WAT      O 9646   4.115   2.638   7.324
 3135WAT     H1 9647   4.135   2.548   7.286
 3135WAT     H2 9648   4.093   2.629   7.422
 3136WAT      O 9649   1.018   0.606   7.035
 3136WAT     H1 9650   0.959   0.585   7.113
 3136WAT     H2 9651   1.082   0.679   7.060
 3137WAT      O 9652   3.762   4.920   3.456
 3137WAT     H1 9653   3.680   4.865   3.474
 3137WAT     H2 9654   3.735   5.005   3.411
 3138WAT      O 9655   0.859   6.618   4.436
 3138WAT     H1 9656   0.884   6.528   4.471
 3138WAT     H2 9657   0.931   6.653   4.377
 3139WAT      O 9658   8.599   1.757   0.549
 3139WAT     H1 9659   8.598   1.781   0.646
 3139WAT     H2 9660   8.557   1.667   0.537
 3140WAT      O 9661   5.687   2.114   1.185
 3140WAT     H1 9662   5.783   2.144   1.182
 3140WAT     H2 9663   5.683   2.015   1.172
 3141WAT      O 9664   0.435   8.900   8.687
 3141WAT     H1 9665   0.363   8.837   8.716
 3141WAT     H2 9666   0.512   8.894   8.751
 3142WAT      O 9667   7.661   3.085   2.460
 3142WAT     H1 9668   7.727   3.158   2.475
 3142WAT     H2 9669   7.645   3.036   2.547
 3143WAT      O 9670   3.030   5.828   2.924
 3143WAT     H1 9671   3.084   5.774   2.989
 3143WAT     H2 9672   3.063   5.812   2.831
 3144WAT      O 9673   3.817   0.492   3.132
 3144WAT     H1 9674   3.877   0.480   3.210
 3144WAT     H2 9675   3.805   0.590   3.113
 3145WAT      O 9676   0.034   5.738   9.543
 3145WAT     H1 9677   0.015   5.653   9.494
 3145WAT     H2 9678   0.115   5.782   9.502
 3146WAT      O 9679   1.532   8.898   7.069
 3146WAT     H1 9680   1.547   8.954   7.150
 3146WAT     H2 9681   1.539   8.801   7.094
 3147WAT      O 9682   6.835   2.055   2.679
 3147WAT     H1 9683   6.881   2.022   2.596
 3147WAT     H2 9684   6.736   2.037   2.671
 3148WAT      O 9685   7.236   0.495   3.724
 3148WAT     H1 9686   7.243   0.491   3.624
 3148WAT     H2 9687   7.218   0.589   3.752
 3149WAT      O 9688   8.714   3.244   0.108
 3149WAT     H1 9689   8.814   3.253   0.111
 3149WAT     H2 9690   8.676   3.315   0.049
 3150WAT      O 9691   1.733   8.362   3.668
 3150WAT     H1 9692   1.726   8.461   3.657
 3150WAT     H2 9693   1.784   8.342   3.752
 3151WAT      O 9694   4.068   1.929   8.400
 3151WAT     H1 9695   3.989   1.990   8.396
 3151WAT     H2 9696   4.117   1.943   8.486
 3152WAT      O 9697   1.257   2.372   8.526
 3152WAT     H1 9698   1.308   2.336   8.448
 3152WAT     H2 9699   1.297   2.459   8.556
 3153WAT      O 9700   9.111   7.854   5.116
 3153WAT     H1 9701   9.074   7.845   5.023
 3153WAT     H2 9702   9.095   7.946   5.149
 3154WAT      O 9703   1.122   2.450   2.843
 3154WAT     H1 9704   1.185   2.386   2.887
 3154WAT     H2 9705   1.166   2.540   2.834
 3155WAT      O 9706   5.056   6.956   3.084
 3155WAT     H1 9707   5.031   7.050   3.060
 3155WAT     H2 9708   5.143   6.933   3.039
 3156WAT      O 9709   7.401   7.526   0.578
 3156WAT     H1 9710   7.311   7.532   0.622
 3156WAT     H2 9711   7.390   7.541   0.480
 3157WAT      O 9712   3.361   0.671   4.283
 3157WAT     H1 9713   3.435   0.714   4.231
 3157WAT     H2 9714   3.394   0.645   4.373
 3158WAT      O 9715   4.867   4.464   9.620
 3158WAT     H1 9716   4.928   4.407   9.565
 3158WAT     H2 9717   4.872   4.559   9.588
 3159WAT      O 9718   9.058   4.574   2.622
 3159WAT     H1 9719   8.986   4.553   2.557
 3159WAT     H2 9720   9.037   4.659   2.670
 3160WAT      O 9721   8.154   4.825   8.441
 3160WAT     H1 9722   8.228   4.767   8.407
 3160WAT     H2 9723   8.158   4.914   8.395
 3161WAT      O 9724   7.779   8.457   0.096
 3161WAT     H1 9725   7.874   8.478   0.118
 3161WAT     H2 9726   7.760   8.482   0.001
 3162WAT      O 9727   9.813   1.658   3.135
 3162WAT     H1 9728   9.814   1.573   3.187
 3162WAT     H2 9729   9.844   1.641   3.042
 3163WAT      O 9730   1.958   5.951   1.029
 3163WAT     H1 9731   2.050   5.911   1.033
 3163WAT     H2 9732   1.896   5.888   0.982
 3164WAT      O 9733   2.943   5.068   4.937
 3164WAT     H1 9734   2.871   5.042   5.002
 3164WAT     H2 9735   2.935   5.165   4.915
 3165WAT      O 9736   4.749   7.968   0.947
 3165WAT     H1 9737   4.778   7.934   0.858
 3165WAT     H2 9738   4.763   7.898   1.016
 3166WAT      O 9739   4.752   4.414   2.592
 3166WAT     H1 9740   4.693   4.443   2.517
 3166WAT     H2 9741   4.821   4.484   2.610
 3167WAT      O 9742   8.654   1.050   5.823
 3167WAT     H1 9743   8.663   0.999   5.737
 3167WAT     H2 9744   8.625   0.987   5.896
 3168WAT      O 9745   6.147   1.883   9.480
 3168WAT     H1 9746   6.058   1.837   9.472
 3168WAT     H2 9747   6.147   1.965   9.423
 3169WAT      O 9748   3.041   5.247   6.366
 3169WAT     H1 9749   3.081   5.156   6.357
 3169WAT     H2 9750   3.006   5.277   6.277
 3170WAT      O 9751   9.405   0.593   4.000
 3170WAT     H1 9752   9.408   0.574   4.098
 3170WAT     H2 9753   9.490   0.637   3.972
 3171WAT      O 9754   7.661   1.156   4.404
 3171WAT     H1 9755   7.616   1.210   4.333
 3171WAT     H2 9756   7.753   1.193   4.420
 3172WAT      O 9757   4.322   4.206   8.868
 3172WAT     H1 9758   4.287   4.296   8.895
 3172WAT     H2 9759   4.246   4.148   8.838
 3173WAT      O 9760   1.229   8.142   5.959
 3173WAT     H1 9761   1.304   8.088   5.923
 3173WAT     H2 9762   1.219   8.126   6.057
 3174WAT      O 9763   7.400   4.407   0.995
 3174WAT     H1 9764   7.394   4.326   1.053
 3174WAT     H2 9765   7.484   4.457   1.018
 3175WAT      O 9766   0.132   4.665   1.677
 3175WAT     H1 9767   0.095   4.582   1.718
 3175WAT     H2 9768   0.065   4.705   1.614
 3176WAT      O 9769   7.638   1.958   7.539
 3176WAT     H1 9770   7.688   2.043   7.521
 3176WAT     H2 9771   7.584   1.969   7.623
 3177WAT      O 9772   8.146   4.349   8.018
 3177WAT     H1 9773   8.202   4.273   8.052
 3177WAT     H2 9774   8.089   4.384   8.092
 3178WAT      O 9775   3.949   4.360   7.532
 3178WAT     H1 9776   3.892   4.369   7.450
 3178WAT     H2 9777   4.044   4.346   7.504
 3179WAT      O 9778   0.530   1.470   2.728
 3179WAT     H1 9779   0.460   1.438   2.664
 3179WAT     H2 9780   0.610   1.412   2.723
 3180WAT      O 9781   2.674   2.801   1.330
 3180WAT     H1 9782   2.605   2.733   1.304
 3180WAT     H2 9783   2.710   2.780   1.420
 3181WAT      O 9784   8.868   1.557   8.569
 3181WAT     H1 9785   8.803   1.617   8.615
 3181WAT     H2 9786   8.920   1.608   8.501
 3182WAT      O 9787   8.623   5.136   4.146
 3182WAT     H1 9788   8.550   5.163   4.083
 3182WAT     H2 9789   8.640   5.038   4.137
 3183WAT      O 9790   9.093   3.941   3.933
 3183WAT     H1 9791   9.054   3.896   3.853
 3183WAT     H2 9792   9.096   4.040   3.918
 3184WAT      O 9793   7.902   9.223   4.659
 3184WAT     H1 9794   7.873   9.226   4.563
 3184WAT     H2 9795   7.837   9.273   4.715
 3185WAT      O 9796   4.890   9.704   8.343
 3185WAT     H1 9797   4.795   9.717   8.316
 3185WAT     H2 9798   4.918   9.779   8.403
 3186WAT      O 9799   8.004   6.944   4.627
 3186WAT     H1 9800   7.990   6.984   4.717
 3186WAT     H2 9801   8.100   6.914   4.618
 3187WAT      O 9802   2.497   1.061   7.720
 3187WAT     H1 9803   2.567   1.096   7.782
 3187WAT     H2 9804   2.524   0.970   7.686
 3188WAT      O 9805   3.428   4.938   6.349
 3188WAT     H1 9806   3.331   4.955   6.365
 3188WAT     H2 9807   3.463   4.876   6.420
 3189WAT      O 9808   3.677   8.877   1.093
 3189WAT     H1 9809   3.707   8.782   1.098
 3189WAT     H2 9810   3.595   8.882   1.036
 3190WAT      O 9811   3.450   0.915   3.010
 3190WAT     H1 9812   3.433   0.817   2.999
 3190WAT     H2 9813   3.521   0.944   2.946
 3191WAT      O 9814   0.513   7.860   1.287
 3191WAT     H1 9815   0.484   7.955   1.285
 3191WAT     H2 9816   0.520   7.829   1.382
 3192WAT      O 9817   9.831   5.580   1.147
 3192WAT     H1 9818   9.928   5.599   1.129
 3192WAT     H2 9819   9.804   5.626   1.231
 3193WAT      O 9820   1.736   9.122   5.843
 3193WAT     H1 9821   1.640   9.132   5.870
 3193WAT     H2 9822   1.795   9.142   5.921
 3194WAT      O 9823   2.127   9.598   9.362
 3194WAT     H1 9824   2.083   9.522   9.409
 3194WAT     H2 9825   2.129   9.678   9.422
 3195WAT      O 9826   5.758   3.921   0.615
 3195WAT     H1 9827   5.709   3.840   0.647
 3195WAT     H2 9828   5.841   3.893   0.567
 3196WAT      O 9829   4.882   4.706   8.126
 3196WAT     H1 9830   4.800   4.760   8.144
 3196WAT     H2 9831   4.894   4.695   8.028
 3197WAT      O 9832   2.998   3.345   0.784
 3197WAT     H1 9833   3.017   3.278   0.856
 3197WAT     H2 9834   2.908   3.385   0.799
 3198WAT      O 9835   4.218   6.557   0.002
 3198WAT     H1 9836   4.230   6.480   0.065
 3198WAT     H2 9837   4.250   6.531  -0.089
 3199WAT      O 9838   6.279   9.694   8.986
 3199WAT     H1 9839   6.254   9.683   9.083
 3199WAT     H2 9840   6.301   9.605   8.947
 3200WAT      O 9841   4.550   5.972   7.760
 3200WAT     H1 9842   4.499   5.936   7.682
 3200WAT     H2 9843   4.634   6.016   7.728
 3201WAT      O 9844   7.037   1.249   2.799
 3201WAT     H1 9845   6.985   1.333   2.816
 3201WAT     H2 9846   7.096   1.263   2.720
 3202WAT      O 9847   8.232   0.686   8.565
 3202WAT     H1 9848   8.146   0.736   8.577
 3202WAT     H2 9849   8.255   0.638   8.650
 3203WAT      O 9850   2.445   8.701   4.632
 3203WAT     H1 9851   2.516   8.644   4.592
 3203WAT     H2 9852   2.408   8.762   4.561
 3204WAT      O 9853   2.569   0.872   3.103
 3204WAT     H1 9854   2.488   0.926   3.126
 3204WAT     H2 9855   2.613   0.840   3.187
 3205WAT      O 9856   8.967   4.449   0.349
 3205WAT     H1 9857   8.888   4.471   0.406
 3205WAT     H2 9858   9.047   4.501   0.382
 3206WAT      O 9859   4.657   7.768   8.111
 3206WAT     H1 9860   4.636   7.731   8.201
 3206WAT     H2 9861   4.622   7.862   8.105
 3207WAT      O 9862   7.414   1.403   2.841
 3207WAT     H1 9863   7.453   1.331   2.785
 3207WAT     H2 9864   7.332   1.369   2.887
 3208WAT      O 9865   5.357   8.740   1.075
 3208WAT     H1 9866   5.282   8.776   1.130
 3208WAT     H2 9867   5.403   8.666   1.125
 3209WAT      O 9868   8.797   7.128   2.578
 3209WAT     H1 9869   8.742   7.133   2.494
 3209WAT     H2 9870   8.787   7.038   2.620
 3210WAT      O 9871   6.543   5.279   2.694
 3210WAT     H1 9872   6.518   5.185   2.670
 3210WAT     H2 9873   6.459   5.334   2.702
 3211WAT      O 9874   0.309   6.191   7.249
 3211WAT     H1 9875   0.215   6.208   7.278
 3211WAT     H2 9876   0.350   6.122   7.310
 3212WAT      O 9877   3.577   4.915   1.787
 3212WAT     H1 9878   3.549   5.002   1.746
 3212WAT     H2 9879   3.643   4.870   1.728
 3213WAT      O 9880   1.582   1.084   3.299
 3213WAT     H1 9881   1.616   1.120   3.386
 3213WAT     H2 9882   1.659   1.060   3.240
 3214WAT      O 9883   9.545   5.922   9.064
 3214WAT     H1 9884   9.627   5.881   9.104
 3214WAT     H2 9885   9.486   5.958   9.136
 3215WAT      O 9886   3.381   3.097   5.999
 3215WAT     H1 9887   3.431   3.100   5.912
 3215WAT     H2 9888   3.303   3.159   5.995
 3216WAT      O 9889   5.975   8.851   6.600
 3216WAT     H1 9890   6.022   8.778   6.650
 3216WAT     H2 9891   5.880   8.825   6.584
 3217WAT      O 9892   9.633   6.962   4.901
 3217WAT     H1 9893   9.617   7.009   4.988
 3217WAT     H2 9894   9.730   6.940   4.893
 3218WAT      O 9895   3.486   6.413   2.429
 3218WAT     H1 9896   3.388   6.401   2.408
 3218WAT     H2 9897   3.499   6.412   2.528
 3219WAT      O 9898   0.739   7.018   0.360
 3219WAT     H1 9899   0.765   7.049   0.452
 3219WAT     H2 9900   0.815   7.033   0.297
 3220WAT      O 9901   6.046   9.404   6.800
 3220WAT     H1 9902   6.115   9.475   6.787
 3220WAT     H2 9903   6.049   9.342   6.721
 3221WAT      O 9904   0.879   1.028   6.375
 3221WAT     H1 9905   0.896   1.029   6.276
 3221WAT     H2 9906   0.892   0.935   6.410
 3222WAT      O 9907   1.113   9.043   5.246
 3222WAT     H1 9908   1.199   8.998   5.270
 3222WAT     H2 9909   1.116   9.071   5.150
 3223WAT      O 9910   6.740   0.475   9.227
 3223WAT     H1 9911   6.734   0.544   9.155
 3223WAT     H2 9912   6.771   0.388   9.188
 3224WAT      O 9913   3.901   0.992   1.506
 3224WAT     H1 9914   3.947   1.013   1.419
 3224WAT     H2 9915   3.825   0.929   1.488
 3225WAT      O 9916   9.810   5.300   1.766
 3225WAT     H1 9917   9.815   5.397   1.790
 3225WAT     H2 9918   9.725   5.262   1.803
 3226WAT      O 9919   2.884   5.032   3.987
 3226WAT     H1 9920   2.821   5.081   4.047
 3226WAT     H2 9921   2.847   4.941   3.966
 3227WAT      O 9922   0.669   4.774   2.600
 3227WAT     H1 9923   0.753   4.824   2.576
 3227WAT     H2 9924   0.636   4.807   2.689
 3228WAT      O 9925   6.267   8.792   9.161
 3228WAT     H1 9926   6.241   8.834   9.248
 3228WAT     H2 9927   6.325   8.856   9.109
 3229WAT      O 9928   2.846   6.688   4.378
 3229WAT     H1 9929   2.754   6.717   4.406
 3229WAT     H2 9930   2.881   6.622   4.444
 3230WAT      O 9931   2.971   1.443   3.491
 3230WAT     H1 9932   3.029   1.521   3.469
 3230WAT     H2 9933   2.949   1.444   3.588
 3231WAT      O 9934   5.156   0.579   1.947
 3231WAT     H1 9935   5.062   0.614   1.954
 3231WAT     H2 9936   5.197   0.609   1.861
 3232WAT      O 9937   0.999   7.024   4.339
 3232WAT     H1 9938   1.054   6.941   4.344
 3232WAT     H2 9939   0.903   7.001   4.351
 3233WAT      O 9940   2.406   0.966   8.513
 3233WAT     H1 9941   2.347   0.921   8.447
 3233WAT     H2 9942   2.483   1.009   8.465
 3234WAT      O 9943   1.276   0.879   2.571
 3234WAT     H1 9944   1.272   0.781   2.550
 3234WAT     H2 9945   1.354   0.897   2.631
 3235WAT      O 9946   2.215   5.860   1.058
 3235WAT     H1 9947   2.237   5.922   1.133
 3235WAT     H2 9948   2.299   5.820   1.022
 3236WAT      O 9949   1.474   6.291   3.448
 3236WAT     H1 9950   1.555   6.317   3.501
 3236WAT     H2 9951   1.428   6.373   3.414
 3237WAT      O 9952   2.455   3.020   9.074
 3237WAT     H1 9953   2.363   2.987   9.057
 3237WAT     H2 9954   2.454   3.120   9.081
 3238WAT      O 9955   3.137   2.189   6.442
 3238WAT     H1 9956   3.155   2.095   6.472
 3238WAT     H2 9957   3.168   2.199   6.347
 3239WAT      O 9958   9.410   6.371   7.682
 3239WAT     H1 9959   9.377   6.456   7.723
 3239WAT     H2 9960   9.465   6.322   7.750
 3240WAT      O 9961   4.574   3.343   4.050
 3240WAT     H1 9962   4.592   3.400   4.130
 3240WAT     H2 9963   4.524   3.396   3.981
 3241WAT      O 9964   0.878   2.152   6.235
 3241WAT     H1 9965   0.961   2.204   6.258
 3241WAT     H2 9966   0.904   2.073   6.179
 3242WAT      O 9967   5.264   0.067   7.256
 3242WAT     H1 9968   5.227   0.056   7.348
 3242WAT     H2 9969   5.204   0.022   7.190
 3243WAT      O 9970   8.864   0.447   4.373
 3243WAT     H1 9971   8.870   0.451   4.473
 3243WAT     H2 9972   8.805   0.371   4.346
 3244WAT      O 9973   7.824   8.242   3.909
 3244WAT     H1 9974   7.761   8.170   3.879
 3244WAT     H2 9975   7.810   8.324   3.854
 3245WAT      O 9976   3.954   7.691   6.140
 3245WAT     H1 9977   3.933   7.757   6.212
 3245WAT     H2 9978   4.012   7.734   6.071
 3246WAT      O 9979   2.427   4.379   8.203
 3246WAT     H1 9980   2.489   4.448   8.238
 3246WAT     H2 9981   2.458   4.288   8.230
 3247WAT      O 9982   0.449   8.733   9.545
 3247WAT     H1 9983   0.384   8.680   9.492
 3247WAT     H2 9984   0.403   8.771   9.626
 3248WAT      O 9985   1.321   0.383   1.029
 3248WAT     H1 9986   1.355   0.326   1.103
 3248WAT     H2 9987   1.305   0.326   0.948
 3249WAT      O 9988   0.271   8.647   7.611
 3249WAT     H1 9989   0.183   8.620   7.651
 3249WAT     H2 9990   0.332   8.680   7.683
 3250WAT      O 9991   0.223   2.365   4.094
 3250WAT     H1 9992   0.256   2.276   4.125
 3250WAT     H2 9993   0.125   2.372   4.110
 3251WAT      O 9994   5.488   0.813   9.332
 3251WAT     H1 9995   5.579   0.847   9.355
 3251WAT     H2 9996   5.424   0.837   9.405
 3252WAT      O 9997   6.747   9.642   0.492
 3252WAT     H1 9998   6.746   9.542   0.499
 3252WAT     H2 9999   6.653   9.677   0.491
 3253WAT      O10000   1.628   7.451   8.690
 3253WAT     H110001   1.664   7.431   8.598
 3253WAT     H210002   1.535   7.486   8.682
 3254WAT      O10003   6.632   2.875   2.901
 3254WAT     H110004   6.564   2.844   2.968
 3254WAT     H210005   6.705   2.925   2.948
 3255WAT      O10006   9.459   4.648   6.686
 3255WAT     H110007   9.466   4.581   6.612
 3255WAT     H210008   9.409   4.609   6.763
 3256WAT      O10009   5.171   3.995   5.330
 3256WAT     H110010   5.126   3.960   5.413
 3256WAT     H210011   5.165   4.094   5.328
 3257WAT      O10012   2.318   0.080   6.583
 3257WAT     H110013   2.288   0.114   6.672
 3257WAT     H210014   2.404   0.125   6.557
 3258WAT      O10015   9.590   6.272   4.138
 3258WAT     H110016   9.663   6.339   4.123
 3258WAT     H210017   9.606   6.225   4.225
 3259WAT      O10018   3.958   0.664   0.221
 3259WAT     H110019   4.031   0.615   0.268
 3259WAT     H210020   3.994   0.749   0.182
 3260WAT      O10021   1.612   3.520   6.909
 3260WAT     H110022   1.662   3.447   6.863
 3260WAT     H210023   1.547   3.561   6.845
 3261WAT      O10024   8.565   2.544   1.561
 3261WAT     H110025   8.577   2.471   1.628
 3261WAT     H210026   8.510   2.617   1.601
 3262WAT      O10027   3.027   1.437   0.746
 3262WAT     H110028   2.953   1.398   0.691
 3262WAT     H210029   3.091   1.365   0.772
 3263WAT      O10030   9.414   3.194   4.955
 3263WAT     H110031   9.501   3.232   4.987
 3263WAT     H210032   9.422   3.169   4.858
 3264WAT      O10033   7.083   4.748   1.744
 3264WAT     H110034   6.989   4.753   1.708
 3264WAT     H210035   7.135   4.827   1.710
 3265WAT      O10036   2.066   6.370   3.839
 3265WAT     H110037   1.999   6.342   3.907
 3265WAT     H210038   2.093   6.465   3.855
 3266WAT      O10039   6.735   6.450   8.646
 3266WAT     H110040   6.714   6.544   8.621
 3266WAT     H210041   6.793   6.409   8.576
 3267WAT      O10042   6.184  -0.001   1.309
 3267WAT     H110043   6.192   0.066   1.235
 3267WAT     H210044   6.124   0.034   1.380
 3268WAT      O10045   5.324   7.323   6.705
 3268WAT     H110046   5.316   7.224   6.700
 3268WAT     H210047   5.409   7.347   6.753
 3269WAT      O10048   0.585   4.258   5.770
 3269WAT     H110049   0.528   4.334   5.738
 3269WAT     H210050   0.534   4.172   5.761
 3270WAT      O10051   5.522   7.858   1.475
 3270WAT     H110052   5.579   7.822   1.401
 3270WAT     H210053   5.580   7.906   1.541
 3271WAT      O10054   9.615   9.652   3.332
 3271WAT     H110055   9.525   9.693   3.313
 3271WAT     H210056   9.676   9.669   3.255
 3272WAT      O10057   5.702   0.295   1.513
 3272WAT     H110058   5.755   0.332   1.437
 3272WAT     H210059   5.636   0.227   1.479
 3273WAT      O10060   7.590   6.560   5.487
 3273WAT     H110061   7.554   6.649   5.514
 3273WAT     H210062   7.679   6.573   5.443
 3274WAT      O10063   5.286   3.769   6.778
 3274WAT     H110064   5.317   3.675   6.787
 3274WAT     H210065   5.191   3.777   6.807
 3275WAT      O10066   2.148   8.186   6.983
 3275WAT     H110067   2.116   8.234   6.901
 3275WAT     H210068   2.227   8.130   6.959
 3276WAT      O10069   6.919   5.678   3.443
 3276WAT     H110070   6.936   5.634   3.355
 3276WAT     H210071   7.004   5.716   3.479
 3277WAT      O10072   0.707   8.768   7.977
 3277WAT     H110073   0.753   8.802   8.059
 3277WAT     H210074   0.609   8.787   7.984
 3278WAT      O10075   6.361   9.685   8.403
 3278WAT     H110076   6.451   9.647   8.380
 3278WAT     H210077   6.310   9.618   8.457
 3279WAT      O10078   9.018   7.253   3.313
 3279WAT     H110079   8.936   7.306   3.332
 3279WAT     H210080   9.029   7.242   3.215
 3280WAT      O10081   6.398   1.743   3.662
 3280WAT     H110082   6.300   1.766   3.663
 3280WAT     H210083   6.444   1.797   3.592
 3281WAT      O10084   4.587   7.277   0.254
 3281WAT     H110085   4.586   7.348   0.184
 3281WAT     H210086   4.613   7.318   0.342
 3282WAT      O10087   8.662   1.231   9.202
 3282WAT     H110088   8.563   1.223   9.210
 3282WAT     H210089   8.695   1.304   9.263
 3283WAT      O10090   7.557   4.681   9.284
 3283WAT     H110091   7.486   4.723   9.340
 3283WAT     H210092   7.626   4.749   9.259
 3284WAT      O10093   2.797   1.026   1.862
 3284WAT     H110094   2.780   1.044   1.765
 3284WAT     H210095   2.876   1.080   1.892
 3285WAT      O10096   5.533   0.259   7.907
 3285WAT     H110097   5.522   0.309   7.822
 3285WAT     H210098   5.593   0.310   7.969
 3286WAT      O10099   2.101   5.099   8.859
 3286WAT     H110100   2.129   5.024   8.800
 3286WAT     H210101   2.181   5.148   8.892
 3287WAT      O10102   5.877   9.666   1.026
 3287WAT     H110103   5.943   9.606   0.980
 3287WAT     H210104   5.792   9.668   0.973
 3288WAT      O10105   5.660   6.332   9.546
 3288WAT     H110106   5.659   6.427   9.514
 3288WAT     H210107   5.726   6.280   9.493
 3289WAT      O10108   1.179   1.822   2.793
 3289WAT     H110109   1.270   1.854   2.768
 3289WAT     H210110   1.112   1.859   2.729
 3290WAT      O10111   4.416   5.870   8.087
 3290WAT     H110112   4.412   5.957   8.038
 3290WAT     H210113   4.486   5.875   8.158
 3291WAT      O10114   9.249   4.610   5.654
 3291WAT     H110115   9.196   4.529   5.681
 3291WAT     H210116   9.204   4.654   5.576
 3292WAT      O10117   9.379   2.127   0.838
 3292WAT     H110118   9.472   2.121   0.802
 3292WAT     H210119   9.382   2.141   0.937
 3293WAT      O10120   8.006   7.702   9.656
 3293WAT     H110121   8.040   7.788   9.619
 3293WAT     H210122   8.081   7.651   9.698
 3294WAT      O10123   3.017   5.793   4.326
 3294WAT     H110124   3.098   5.806   4.383
 3294WAT     H210125   3.045   5.757   4.237
 3295WAT      O10126   5.560   7.801   9.850
 3295WAT     H110127   5.547   7.785   9.752
 3295WAT     H210128   5.657   7.790   9.873
 3296WAT      O10129   5.965   4.506   7.306
 3296WAT     H110130   5.938   4.436   7.240
 3296WAT     H210131   6.053   4.544   7.280
 3297WAT      O10132   1.005   9.820   2.019
 3297WAT     H110133   0.965   9.912   2.016
 3297WAT     H210134   1.079   9.814   1.952
 3298WAT      O10135   2.281   8.023   8.765
 3298WAT     H110136   2.380   8.029   8.774
 3298WAT     H210137   2.245   7.960   8.834
 3299WAT      O10138   7.898   5.938   2.951
 3299WAT     H110139   7.973   6.000   2.971
 3299WAT     H210140   7.812   5.990   2.946
 3300WAT      O10141   7.535   6.110   3.832
 3300WAT     H110142   7.499   6.203   3.830
 3300WAT     H210143   7.480   6.054   3.894
 3301WAT      O10144   8.713   1.026   5.011
 3301WAT     H110145   8.700   0.951   5.076
 3301WAT     H210146   8.624   1.054   4.974
 3302WAT      O10147   4.707   4.497   9.273
 3302WAT     H110148   4.706   4.548   9.359
 3302WAT     H210149   4.739   4.557   9.199
 3303WAT      O10150   9.555   0.428   7.114
 3303WAT     H110151   9.586   0.509   7.164
 3303WAT     H210152   9.468   0.448   7.068
 3304WAT      O10153   4.059   9.577   5.717
 3304WAT     H110154   4.079   9.479   5.710
 3304WAT     H210155   4.086   9.623   5.633
 3305WAT      O10156   2.057   0.079   7.050
 3305WAT     H110157   2.061  -0.018   7.027
 3305WAT     H210158   1.961   0.108   7.053
 3306WAT      O10159   6.358   2.420   4.068
 3306WAT     H110160   6.438   2.432   4.127
 3306WAT     H210161   6.386   2.376   3.982
 3307WAT      O10162   4.823   1.560   1.187
 3307WAT     H110163   4.736   1.539   1.142
 3307WAT     H210164   4.806   1.579   1.284
 3308WAT      O10165   0.112   4.370   0.793
 3308WAT     H110166   0.027   4.374   0.846
 3308WAT     H210167   0.091   4.378   0.696
 3309WAT      O10168   4.302   5.713   6.694
 3309WAT     H110169   4.214   5.693   6.651
 3309WAT     H210170   4.293   5.795   6.752
 3310WAT      O10171   8.454   4.432   2.065
 3310WAT     H110172   8.358   4.450   2.045
 3310WAT     H210173   8.476   4.467   2.156
 3311WAT      O10174   6.149   7.242   2.127
 3311WAT     H110175   6.149   7.146   2.101
 3311WAT     H210176   6.135   7.250   2.226
 3312WAT      O10177   7.197   4.423   3.688
 3312WAT     H110178   7.159   4.347   3.635
 3312WAT     H210179   7.210   4.394   3.783
 3313WAT      O10180   9.348   0.746   2.132
 3313WAT     H110181   9.251   0.719   2.133
 3313WAT     H210182   9.365   0.811   2.205
 3314WAT      O10183   9.375   5.992   1.983
 3314WAT     H110184   9.378   6.012   1.885
 3314WAT     H210185   9.281   5.981   2.013
 3315WAT      O10186   6.619   2.979   2.414
 3315WAT     H110187   6.681   2.999   2.337
 3315WAT     H210188   6.546   3.048   2.417
 3316WAT      O10189   2.742   5.536   8.672
 3316WAT     H110190   2.738   5.475   8.752
 3316WAT     H210191   2.700   5.490   8.594
 3317WAT      O10192   7.518   2.112   9.050
 3317WAT     H110193   7.532   2.109   9.149
 3317WAT     H210194   7.507   2.019   9.015
 3318WAT      O10195   6.043   9.279   6.539
 3318WAT     H110196   6.107   9.228   6.482
 3318WAT     H210197   6.003   9.354   6.486
 3319WAT      O10198   1.748   0.563   2.685
 3319WAT     H110199   1.669   0.592   2.631
 3319WAT     H210200   1.736   0.468   2.713
 3320WAT      O10201   3.976   8.413   6.966
 3320WAT     H110202   3.916   8.373   6.896
 3320WAT     H210203   4.065   8.366   6.965
 3321WAT      O10204   3.989   0.291   7.549
 3321WAT     H110205   3.957   0.352   7.476
 3321WAT     H210206   3.957   0.198   7.531
 3322WAT      O10207   8.787   4.278   8.220
 3322WAT     H110208   8.884   4.267   8.239
 3322WAT     H210209   8.762   4.374   8.229
 3323WAT      O10210   2.180   8.120   3.684
 3323WAT     H110211   2.140   8.034   3.715
 3323WAT     H210212   2.132   8.152   3.602
 3324WAT      O10213   6.278   6.203   6.265
 3324WAT     H110214   6.272   6.140   6.187
 3324WAT     H210215   6.293   6.151   6.349
 3325WAT      O10216   7.759   6.942   0.992
 3325WAT     H110217   7.838   6.914   1.046
 3325WAT     H210218   7.757   6.891   0.906
 3326WAT      O10219   3.479   7.219   3.962
 3326WAT     H110220   3.407   7.266   3.910
 3326WAT     H210221   3.535   7.287   4.010
 3327WAT      O10222   9.152   1.453   1.549
 3327WAT     H110223   9.201   1.504   1.620
 3327WAT     H210224   9.212   1.438   1.471
 3328WAT      O10225   5.313   0.383   6.382
 3328WAT     H110226   5.308   0.483   6.390
 3328WAT     H210227   5.299   0.342   6.472
 3329WAT      O10228   8.043   7.553   5.385
 3329WAT     H110229   7.966   7.616   5.395
 3329WAT     H210230   8.074   7.524   5.476
 3330WAT      O10231   6.613   0.633   1.015
 3330WAT     H110232   6.559   0.647   1.099
 3330WAT     H210233   6.582   0.550   0.970
 3331WAT      O10234   2.094   5.701   1.771
 3331WAT     H110235   2.045   5.715   1.685
 3331WAT     H210236   2.028   5.690   1.845
 3332WAT      O10237   9.376   0.984   0.702
 3332WAT     H110238   9.406   1.056   0.639
 3332WAT     H210239   9.279   0.963   0.686
 3333WAT      O10240   4.475   4.614   3.817
 3333WAT     H110241   4.549   4.565   3.770
 3333WAT     H210242   4.492   4.614   3.915
 3334WAT      O10243   2.956   5.217   9.141
 3334WAT     H110244   2.983   5.259   9.054
 3334WAT     H210245   2.893   5.142   9.123
 3335WAT      O10246   5.215   9.128   7.472
 3335WAT     H110247   5.241   9.190   7.398
 3335WAT     H210248   5.290   9.119   7.537
 3336WAT      O10249   6.830   8.324   3.700
 3336WAT     H110250   6.778   8.408   3.687
 3336WAT     H210251   6.772   8.255   3.742
 3337WAT      O10252   1.966   4.744   4.319
 3337WAT     H110253   2.001   4.835   4.294
 3337WAT     H210254   1.866   4.747   4.320
 3338WAT      O10255   2.430   3.966   2.319
 3338WAT     H110256   2.470   4.029   2.252
 3338WAT     H210257   2.460   3.873   2.300
 3339WAT      O10258   0.284   1.692   4.691
 3339WAT     H110259   0.315   1.665   4.599
 3339WAT     H210260   0.363   1.701   4.751
 3340WAT      O10261   0.457   0.894   0.785
 3340WAT     H110262   0.384   0.842   0.829
 3340WAT     H210263   0.509   0.834   0.725
 3341WAT      O10264   7.617   5.174   2.216
 3341WAT     H110265   7.619   5.234   2.136
 3341WAT     H210266   7.614   5.079   2.185
 3342WAT      O10267   5.660   9.781   0.406
 3342WAT     H110268   5.711   9.735   0.478
 3342WAT     H210269   5.706   9.767   0.318
 3343WAT      O10270   1.031   0.589   6.555
 3343WAT     H110271   1.105   0.657   6.555
 3343WAT     H210272   0.968   0.609   6.630
 3344WAT      O10273   6.611   9.510   2.466
 3344WAT     H110274   6.622   9.471   2.557
 3344WAT     H210275   6.543   9.457   2.415
 3345WAT      O10276   1.781   1.930   0.884
 3345WAT     H110277   1.756   2.014   0.835
 3345WAT     H210278   1.822   1.954   0.972
 3346WAT      O10279   4.976   2.933   5.163
 3346WAT     H110280   5.053   2.925   5.099
 3346WAT     H210281   4.920   3.012   5.137
 3347WAT      O10282   0.316   8.183   2.874
 3347WAT     H110283   0.254   8.229   2.810
 3347WAT     H210284   0.276   8.184   2.965
 3348WAT      O10285   8.541   1.846   8.868
 3348WAT     H110286   8.628   1.854   8.917
 3348WAT     H210287   8.521   1.932   8.822
 3349WAT      O10288   1.693   0.731   9.135
 3349WAT     H110289   1.677   0.830   9.141
 3349WAT     H210290   1.760   0.704   9.204
 3350WAT      O10291   4.843   2.065   7.625
 3350WAT     H110292   4.891   2.063   7.713
 3350WAT     H210293   4.856   2.155   7.583
 3351WAT      O10294   4.958   3.158   6.175
 3351WAT     H110295   5.024   3.150   6.101
 3351WAT     H210296   4.933   3.067   6.208
 3352WAT      O10297   2.175   9.443   2.285
 3352WAT     H110298   2.078   9.430   2.308
 3352WAT     H210299   2.186   9.440   2.185
 3353WAT      O10300   0.532   5.850   1.406
 3353WAT     H110301   0.473   5.771   1.388
 3353WAT     H210302   0.506   5.892   1.493
 3354WAT      O10303   3.189   0.599   3.148
 3354WAT     H110304   3.174   0.501   3.136
 3354WAT     H210305   3.211   0.618   3.244
 3355WAT      O10306   7.725   0.644   1.111
 3355WAT     H110307   7.806   0.658   1.167
 3355WAT     H210308   7.643   0.662   1.165
 3356WAT      O10309   7.790   5.115   9.627
 3356WAT     H110310   7.759   5.026   9.592
 3356WAT     H210311   7.799   5.110   9.727
 3357WAT      O10312   2.889   3.065   7.716
 3357WAT     H110313   2.813   3.010   7.751
 3357WAT     H210314   2.974   3.014   7.725
 3358WAT      O10315   3.790   2.189   5.997
 3358WAT     H110316   3.694   2.215   6.002
 3358WAT     H210317   3.843   2.243   6.062
 3359WAT      O10318   8.720   7.287   9.637
 3359WAT     H110319   8.723   7.214   9.569
 3359WAT     H210320   8.648   7.352   9.614
 3360WAT      O10321   9.753   9.611   3.789
 3360WAT     H110322   9.765   9.626   3.691
 3360WAT     H210323   9.666   9.651   3.819
 3361WAT      O10324   8.504   5.092   5.304
 3361WAT     H110325   8.508   4.993   5.288
 3361WAT     H210326   8.421   5.114   5.355
 3362WAT      O10327   7.889   2.949   8.164
 3362WAT     H110328   7.802   2.965   8.117
 3362WAT     H210329   7.917   3.033   8.210
 3363WAT      O10330   3.725   3.744   2.043
 3363WAT     H110331   3.704   3.657   2.087
 3363WAT     H210332   3.691   3.819   2.100
 3364WAT      O10333   3.033   5.959   6.696
 3364WAT     H110334   2.985   5.965   6.609
 3364WAT     H210335   2.968   5.936   6.768
 3365WAT      O10336   5.557   6.079   8.413
 3365WAT     H110337   5.634   6.033   8.457
 3365WAT     H210338   5.565   6.072   8.314
 3366WAT      O10339   1.317   4.873   9.501
 3366WAT     H110340   1.289   4.871   9.597
 3366WAT     H210341   1.353   4.964   9.479
 3367WAT      O10342   4.554   7.081   3.766
 3367WAT     H110343   4.609   7.102   3.686
 3367WAT     H210344   4.610   7.031   3.832
 3368WAT      O10345   3.283   7.726   5.395
 3368WAT     H110346   3.252   7.821   5.400
 3368WAT     H210347   3.239   7.672   5.467
 3369WAT      O10348   7.320   3.136   6.649
 3369WAT     H110349   7.373   3.113   6.731
 3369WAT     H210350   7.242   3.074   6.641
 3370WAT      O10351   9.210   4.342   2.837
 3370WAT     H110352   9.170   4.434   2.830
 3370WAT     H210353   9.262   4.335   2.922
 3371WAT      O10354   7.938   1.415   5.443
 3371WAT     H110355   7.966   1.490   5.383
 3371WAT     H210356   7.876   1.355   5.393
 3372WAT      O10357   5.554   1.890   0.747
 3372WAT     H110358   5.511   1.806   0.781
 3372WAT     H210359   5.549   1.893   0.648
 3373WAT      O10360   6.870   7.175   7.212
 3373WAT     H110361   6.894   7.160   7.308
 3373WAT     H210362   6.867   7.087   7.164
 3374WAT      O10363   6.708   7.132   6.825
 3374WAT     H110364   6.799   7.093   6.810
 3374WAT     H210365   6.668   7.158   6.737
 3375WAT      O10366   8.341   9.792   8.485
 3375WAT     H110367   8.409   9.856   8.521
 3375WAT     H210368   8.329   9.717   8.550
 3376WAT      O10369   1.913   0.188   9.754
 3376WAT     H110370   1.871   0.109   9.708
 3376WAT     H210371   1.841   0.254   9.778
 3377WAT      O10372   4.387   3.560   0.321
 3377WAT     H110373   4.378   3.481   0.382
 3377WAT     H210374   4.438   3.533   0.239
 3378WAT      O10375   8.643   8.432   2.370
 3378WAT     H110376   8.561   8.395   2.414
 3378WAT     H210377   8.667   8.375   2.291
 3379WAT      O10378   4.979   3.405   9.221
 3379WAT     H110379   4.907   3.383   9.155
 3379WAT     H210380   5.060   3.349   9.203
 3380WAT      O10381   5.683   7.624   0.842
 3380WAT     H110382   5.616   7.621   0.768
 3380WAT     H210383   5.743   7.702   0.829
 3381WAT      O10384   1.747   0.299   6.029
 3381WAT     H110385   1.695   0.316   5.946
 3381WAT     H210386   1.731   0.206   6.061
 3382WAT      O10387   7.686   4.010   7.467
 3382WAT     H110388   7.625   3.938   7.502
 3382WAT     H210389   7.777   3.999   7.507
 3383WAT      O10390   2.313   6.976   3.673
 3383WAT     H110391   2.286   6.882   3.651
 3383WAT     H210392   2.240   7.021   3.723
 3384WAT      O10393   7.350   1.418   9.301
 3384WAT     H110394   7.280   1.489   9.313
 3384WAT     H210395   7.417   1.448   9.233
 3385WAT      O10396   4.108   4.993   2.176
 3385WAT     H110397   4.028   5.032   2.129
 3385WAT     H210398   4.077   4.929   2.246
 3386WAT      O10399   1.723   7.778   3.305
 3386WAT     H110400   1.669   7.831   3.240
 3386WAT     H210401   1.679   7.781   3.395
 3387WAT      O10402   2.382   6.591   0.112
 3387WAT     H110403   2.478   6.582   0.141
 3387WAT     H210404   2.322   6.575   0.191
 3388WAT      O10405   4.222   3.940   8.340
 3388WAT     H110406   4.296   3.990   8.294
 3388WAT     H210407   4.224   3.844   8.311
 3389WAT      O10408   7.959   4.814   1.434
 3389WAT     H110409   7.945   4.787   1.530
 3389WAT     H210410   7.875   4.853   1.398
 3390WAT      O10411   8.808   1.102   0.410
 3390WAT     H110412   8.779   1.094   0.506
 3390WAT     H210413   8.756   1.175   0.366
 3391WAT      O10414   0.555   9.718   6.515
 3391WAT     H110415   0.492   9.656   6.468
 3391WAT     H210416   0.580   9.793   6.454
 3392WAT      O10417   9.260   4.788   9.063
 3392WAT     H110418   9.343   4.819   9.016
 3392WAT     H210419   9.211   4.867   9.100
 3393WAT      O10420   0.223   9.139   5.538
 3393WAT     H110421   0.191   9.103   5.626
 3393WAT     H210422   0.162   9.107   5.465
 3394WAT      O10423   5.346   0.634   6.241
 3394WAT     H110424   5.258   0.657   6.198
 3394WAT     H210425   5.413   0.611   6.170
 3395WAT      O10426   1.142   5.317   1.004
 3395WAT     H110427   1.110   5.403   1.045
 3395WAT     H210428   1.063   5.262   0.977
 3396WAT      O10429   3.192   2.439   4.510
 3396WAT     H110430   3.145   2.363   4.465
 3396WAT     H210431   3.230   2.499   4.440
 3397WAT      O10432   5.370   5.745   9.219
 3397WAT     H110433   5.455   5.794   9.242
 3397WAT     H210434   5.391   5.669   9.158
 3398WAT      O10435   0.174   8.105   0.495
 3398WAT     H110436   0.207   8.082   0.587
 3398WAT     H210437   0.085   8.150   0.502
 3399WAT      O10438   8.236   6.601   2.433
 3399WAT     H110439   8.193   6.611   2.343
 3399WAT     H210440   8.173   6.634   2.504
 3400WAT      O10441   8.105   8.711   9.149
 3400WAT     H110442   8.036   8.781   9.165
 3400WAT     H210443   8.170   8.742   9.080
 3401WAT      O10444   9.037   1.645   3.945
 3401WAT     H110445   8.988   1.608   4.024
 3401WAT     H210446   8.985   1.721   3.906
 3402WAT      O10447   2.240   9.601   4.649
 3402WAT     H110448   2.168   9.664   4.620
 3402WAT     H210449   2.213   9.557   4.734
 3403WAT      O10450   8.664   7.774   7.317
 3403WAT     H110451   8.669   7.867   7.354
 3403WAT     H210452   8.680   7.778   7.218
 3404WAT      O10453   6.283   6.644   8.550
 3404WAT     H110454   6.241   6.733   8.538
 3404WAT     H210455   6.352   6.629   8.479
 3405WAT      O10456   5.244   2.755   9.440
 3405WAT     H110457   5.192   2.817   9.381
 3405WAT     H210458   5.324   2.802   9.475
 3406WAT      O10459   2.021   2.934   9.626
 3406WAT     H110460   2.080   2.886   9.691
 3406WAT     H210461   2.077   2.973   9.553
 3407WAT      O10462   0.450   1.694   4.921
 3407WAT     H110463   0.538   1.741   4.919
 3407WAT     H210464   0.409   1.703   5.012
 3408WAT      O10465   9.865   0.060   1.091
 3408WAT     H110466   9.782   0.104   1.125
 3408WAT     H210467   9.854   0.036   0.995
 3409WAT      O10468   4.933   3.325   1.095
 3409WAT     H110469   4.954   3.387   1.171
 3409WAT     H210470   4.919   3.378   1.012
 3410WAT      O10471   0.020   8.475   5.763
 3410WAT     H110472   0.022   8.573   5.785
 3410WAT     H210473  -0.074   8.442   5.768
 3411WAT      O10474   9.673   8.616   0.368
 3411WAT     H110475   9.627   8.656   0.447
 3411WAT     H210476   9.606   8.579   0.304
 3412WAT      O10477   8.325   3.232   0.148
 3412WAT     H110478   8.371   3.149   0.179
 3412WAT     H210479   8.375   3.272   0.071
 3413WAT      O10480   6.000   4.150   2.000
 3413WAT     H110481   6.045   4.204   1.929
 3413WAT     H210482   5.979   4.059   1.963
 3414WAT      O10483   7.942   5.275   4.792
 3414WAT     H110484   7.863   5.244   4.845
 3414WAT     H210485   7.927   5.254   4.695
 3415WAT      O10486   4.281   3.516   3.666
 3415WAT     H110487   4.365   3.566   3.685
 3415WAT     H210488   4.203   3.566   3.703
 3416WAT      O10489   9.279   2.198   7.577
 3416WAT     H110490   9.239   2.111   7.604
 3416WAT     H210491   9.307   2.249   7.658
 3417WAT      O10492   3.849   6.469   6.427
 3417WAT     H110493   3.770   6.495   6.482
 3417WAT     H210494   3.825   6.476   6.330
 3418WAT      O10495   1.969   2.238   4.122
 3418WAT     H110496   1.974   2.241   4.222
 3418WAT     H210497   2.061   2.246   4.083
 3419WAT      O10498   4.680   7.057   2.995
 3419WAT     H110499   4.602   7.032   3.052
 3419WAT     H210500   4.734   6.975   2.976
 3420WAT      O10501   1.432   4.275   8.622
 3420WAT     H110502   1.364   4.319   8.681
 3420WAT     H210503   1.461   4.188   8.664
 3421WAT      O10504   3.676   8.441   0.466
 3421WAT     H110505   3.593   8.396   0.434
 3421WAT     H210506   3.705   8.401   0.553
 3422WAT      O10507   7.422   6.355   3.845
 3422WAT     H110508   7.432   6.371   3.943
 3422WAT     H210509   7.497   6.401   3.797
 3423WAT      O10510   0.546   4.898   3.330
 3423WAT     H110511   0.507   4.806   3.319
 3423WAT     H210512   0.641   4.898   3.300
 3424WAT      O10513   4.002   7.218   5.252
 3424WAT     H110514   3.917   7.168   5.233
 3424WAT     H210515   4.034   7.263   5.168
 3425WAT      O10516   5.009   7.902   1.488
 3425WAT     H110517   4.936   7.931   1.551
 3425WAT     H210518   4.999   7.952   1.402
 3426WAT      O10519   4.990   6.312   9.334
 3426WAT     H110520   4.898   6.321   9.294
 3426WAT     H210521   5.056   6.294   9.261
 3427WAT      O10522   8.467   7.880   3.241
 3427WAT     H110523   8.480   7.974   3.209
 3427WAT     H210524   8.538   7.857   3.307
 3428WAT      O10525   9.826   7.251   7.298
 3428WAT     H110526   9.881   7.333   7.288
 3428WAT     H210527   9.884   7.170   7.284
 3429WAT      O10528   5.780   1.877   5.260
 3429WAT     H110529   5.792   1.968   5.300
 3429WAT     H210530   5.770   1.810   5.334
 3430WAT      O10531   8.370   0.822   2.551
 3430WAT     H110532   8.288   0.830   2.494
 3430WAT     H210533   8.345   0.784   2.640
 3431WAT      O10534   4.854   2.296   1.469
 3431WAT     H110535   4.760   2.279   1.439
 3431WAT     H210536   4.877   2.234   1.544
 3432WAT      O10537   1.255   6.439   0.134
 3432WAT     H110538   1.295   6.469   0.048
 3432WAT     H210539   1.281   6.502   0.207
 3433WAT      O10540   9.788   0.594   0.376
 3433WAT     H110541   9.781   0.582   0.475
 3433WAT     H210542   9.870   0.546   0.343
 3434WAT      O10543   1.523   1.844   3.043
 3434WAT     H110544   1.563   1.933   3.065
 3434WAT     H210545   1.592   1.786   3.000
 3435WAT      O10546   8.364   1.140   9.205
 3435WAT     H110547   8.304   1.192   9.144
 3435WAT     H210548   8.381   1.050   9.166
 3436WAT      O10549   0.381   8.984   6.452
 3436WAT     H110550   0.288   9.008   6.479
 3436WAT     H210551   0.442   8.992   6.531
 3437WAT      O10552   8.067   8.022   4.685
 3437WAT     H110553   7.971   8.006   4.708
 3437WAT     H210554   8.125   7.990   4.760
 3438WAT      O10555   5.896   1.634   5.865
 3438WAT     H110556   5.868   1.727   5.841
 3438WAT     H210557   5.862   1.570   5.796
 3439WAT      O10558   5.573   3.639   0.527
 3439WAT     H110559   5.670   3.620   0.514
 3439WAT     H210560   5.540   3.699   0.454
 3440WAT      O10561   7.797   7.834   2.881
 3440WAT     H110562   7.815   7.771   2.806
 3440WAT     H210563   7.884   7.865   2.921
 3441WAT      O10564   9.578   5.053   6.742
 3441WAT     H110565   9.494   4.998   6.741
 3441WAT     H210566   9.629   5.034   6.826
 3442WAT      O10567   7.979   0.204   1.379
 3442WAT     H110568   7.935   0.242   1.461
 3442WAT     H210569   7.940   0.247   1.297
 3443WAT      O10570   4.245   7.509   0.604
 3443WAT     H110571   4.237   7.412   0.579
 3443WAT     H210572   4.171   7.561   0.561
 3444WAT      O10573   7.581   4.216   9.404
 3444WAT     H110574   7.508   4.231   9.469
 3444WAT     H210575   7.615   4.305   9.371
 3445WAT      O10576   9.834   7.047   8.667
 3445WAT     H110577   9.892   7.073   8.744
 3445WAT     H210578   9.888   7.046   8.583
 3446WAT      O10579   7.769   4.453   5.351
 3446WAT     H110580   7.761   4.420   5.445
 3446WAT     H210581   7.846   4.516   5.344
 3447WAT      O10582   9.160   8.285   6.132
 3447WAT     H110583   9.121   8.194   6.128
 3447WAT     H210584   9.254   8.280   6.167
 3448WAT      O10585   3.003   4.695   7.002
 3448WAT     H110586   2.978   4.714   7.097
 3448WAT     H210587   2.962   4.764   6.942
 3449WAT      O10588   9.710   9.018   7.580
 3449WAT     H110589   9.739   8.967   7.661
 3449WAT     H210590   9.719   8.960   7.499
 3450WAT      O10591   0.670   4.267   4.206
 3450WAT     H110592   0.588   4.293   4.155
 3450WAT     H210593   0.649   4.189   4.265
 3451WAT      O10594   5.517   8.491   8.443
 3451WAT     H110595   5.464   8.470   8.361
 3451WAT     H210596   5.577   8.414   8.465
 3452WAT      O10597   1.786   2.176   4.860
 3452WAT     H110598   1.852   2.236   4.815
 3452WAT     H210599   1.830   2.088   4.881
 3453WAT      O10600   6.836   4.681   2.648
 3453WAT     H110601   6.796   4.687   2.739
 3453WAT     H210602   6.927   4.638   2.654
 3454WAT      O10603   6.192   1.622   5.658
 3454WAT     H110604   6.192   1.674   5.743
 3454WAT     H210605   6.152   1.677   5.584
 3455WAT      O10606   3.563   2.868   9.357
 3455WAT     H110607   3.534   2.933   9.428
 3455WAT     H210608   3.484   2.845   9.300
 3456WAT      O10609   4.164   8.661   6.995
 3456WAT     H110610   4.144   8.719   7.073
 3456WAT     H210611   4.099   8.585   6.992
 3457WAT      O10612   5.813   6.761   4.702
 3457WAT     H110613   5.828   6.754   4.800
 3457WAT     H210614   5.728   6.811   4.685
 3458WAT      O10615   3.569   4.142   2.357
 3458WAT     H110616   3.508   4.220   2.365
 3458WAT     H210617   3.593   4.108   2.448
 3459WAT      O10618   0.003   9.345   1.557
 3459WAT     H110619   0.077   9.280   1.543
 3459WAT     H210620  -0.084   9.295   1.561
 3460WAT      O10621   3.131   9.649   0.083
 3460WAT     H110622   3.174   9.689   0.002
 3460WAT     H210623   3.135   9.549   0.077
 3461WAT      O10624   9.664   3.828   7.835
 3461WAT     H110625   9.616   3.915   7.828
 3461WAT     H210626   9.601   3.753   7.814
 3462WAT      O10627   6.916   0.535   8.314
 3462WAT     H110628   6.820   0.536   8.285
 3462WAT     H210629   6.930   0.600   8.388
 3463WAT      O10630   0.830   3.457   8.978
 3463WAT     H110631   0.803   3.402   8.899
 3463WAT     H210632   0.802   3.552   8.962
 3464WAT      O10633   9.313   4.438   0.955
 3464WAT     H110634   9.366   4.499   1.015
 3464WAT     H210635   9.217   4.442   0.980
 3465WAT      O10636   7.197   0.415   6.127
 3465WAT     H110637   7.292   0.420   6.098
 3465WAT     H210638   7.152   0.338   6.081
 3466WAT      O10639   0.932   8.999   3.369
 3466WAT     H110640   0.873   9.072   3.403
 3466WAT     H210641   0.959   9.019   3.275
 3467WAT      O10642   1.776   1.364   2.562
 3467WAT     H110643   1.781   1.268   2.591
 3467WAT     H210644   1.858   1.412   2.593
 3468WAT      O10645   1.067   7.224   4.517
 3468WAT     H110646   1.048   7.156   4.447
 3468WAT     H210647   1.096   7.309   4.474
 3469WAT      O10648   5.569   3.039   7.801
 3469WAT     H110649   5.503   2.964   7.799
 3469WAT     H210650   5.634   3.027   7.726
 3470WAT      O10651   8.880   4.789   0.210
 3470WAT     H110652   8.928   4.721   0.155
 3470WAT     H210653   8.895   4.880   0.171
 3471WAT      O10654   2.584   0.168   3.841
 3471WAT     H110655   2.492   0.196   3.869
 3471WAT     H210656   2.624   0.237   3.781
 3472WAT      O10657   4.790   2.009   8.714
 3472WAT     H110658   4.790   2.109   8.711
 3472WAT     H210659   4.854   1.974   8.646
 3473WAT      O10660   8.919   8.242   7.708
 3473WAT     H110661   8.827   8.244   7.667
 3473WAT     H210662   8.911   8.218   7.804
 3474WAT      O10663   4.179   0.529   0.291
 3474WAT     H110664   4.248   0.577   0.237
 3474WAT     H210665   4.165   0.438   0.253
 3475WAT      O10666   3.014   7.339   6.933
 3475WAT     H110667   2.945   7.348   7.005
 3475WAT     H210668   3.074   7.420   6.935
 3476WAT      O10669   4.795   4.338   6.707
 3476WAT     H110670   4.822   4.292   6.623
 3476WAT     H210671   4.703   4.309   6.734
 3477WAT      O10672   7.393   0.503   2.677
 3477WAT     H110673   7.491   0.503   2.662
 3477WAT     H210674   7.349   0.444   2.610
 3478WAT      O10675   9.185   2.735   6.309
 3478WAT     H110676   9.139   2.752   6.396
 3478WAT     H210677   9.117   2.715   6.239
 3479WAT      O10678   4.945   7.727   3.454
 3479WAT     H110679   5.011   7.802   3.455
 3479WAT     H210680   4.937   7.689   3.362
 3480WAT      O10681   4.071   6.209   1.206
 3480WAT     H110682   4.101   6.301   1.232
 3480WAT     H210683   3.972   6.202   1.219
 3481WAT      O10684   1.336   1.409   3.478
 3481WAT     H110685   1.386   1.467   3.541
 3481WAT     H210686   1.395   1.386   3.400
 3482WAT      O10687   8.378   3.380   2.610
 3482WAT     H110688   8.406   3.402   2.517
 3482WAT     H210689   8.427   3.299   2.642
 3483WAT      O10690   3.495   7.169   5.285
 3483WAT     H110691   3.417   7.227   5.311
 3483WAT     H210692   3.463   7.093   5.229
 3484WAT      O10693   4.686   8.406   7.647
 3484WAT     H110694   4.623   8.385   7.572
 3484WAT     H210695   4.666   8.497   7.683
 3485WAT      O10696   8.265   7.561   0.509
 3485WAT     H110697   8.267   7.484   0.573
 3485WAT     H210698   8.198   7.543   0.438
 3486WAT      O10699   3.655   1.427   1.296
 3486WAT     H110700   3.690   1.368   1.369
 3486WAT     H210701   3.565   1.463   1.323
 3487WAT      O10702   3.555   8.044   4.777
 3487WAT     H110703   3.545   8.090   4.689
 3487WAT     H210704   3.557   7.945   4.764
 3488WAT      O10705   1.381   9.605   7.458
 3488WAT     H110706   1.359   9.586   7.553
 3488WAT     H210707   1.398   9.520   7.409
 3489WAT      O10708   8.242   3.258   7.615
 3489WAT     H110709   8.274   3.351   7.597
 3489WAT     H210710   8.143   3.259   7.631
 3490WAT      O10711   8.303   2.655   9.072
 3490WAT     H110712   8.260   2.711   9.142
 3490WAT     H210713   8.266   2.562   9.076
 3491WAT      O10714   9.459   1.208   3.719
 3491WAT     H110715   9.414   1.255   3.794
 3491WAT     H210716   9.546   1.169   3.750
 3492WAT      O10717   2.347   1.971   3.366
 3492WAT     H110718   2.406   1.991   3.287
 3492WAT     H210719   2.363   1.877   3.396
 3493WAT      O10720   6.301   7.726   1.833
 3493WAT     H110721   6.389   7.774   1.829
 3493WAT     H210722   6.315   7.630   1.807
 3494WAT      O10723   0.491   2.306   8.872
 3494WAT     H110724   0.542   2.313   8.958
 3494WAT     H210725   0.523   2.225   8.822
 3495WAT      O10726   0.284   1.147   1.949
 3495WAT     H110727   0.356   1.154   1.880
 3495WAT     H210728   0.301   1.068   2.007
 3496WAT      O10729   2.281   4.510   3.683
 3496WAT     H110730   2.303   4.604   3.708
 3496WAT     H210731   2.246   4.461   3.763
 3497WAT      O10732   2.542   1.316   0.634
 3497WAT     H110733   2.506   1.229   0.667
 3497WAT     H210734   2.504   1.391   0.687
 3498WAT      O10735   2.853   4.405   4.503
 3498WAT     H110736   2.892   4.359   4.423
 3498WAT     H210737   2.803   4.339   4.559
 3499WAT      O10738   9.044   4.089   2.989
 3499WAT     H110739   8.965   4.104   3.048
 3499WAT     H210740   9.060   4.170   2.932
 3500WAT      O10741   6.563   8.081   4.195
 3500WAT     H110742   6.591   8.051   4.286
 3500WAT     H210743   6.534   8.002   4.141
 3501WAT      O10744   4.646   0.329   7.070
 3501WAT     H110745   4.575   0.366   7.130
 3501WAT     H210746   4.684   0.246   7.111
 3502WAT      O10747   3.588   6.959   3.610
 3502WAT     H110748   3.590   6.913   3.698
 3502WAT     H210749   3.624   6.898   3.540
 3503WAT      O10750   2.500   7.346   8.872
 3503WAT     H110751   2.428   7.306   8.928
 3503WAT     H210752   2.486   7.321   8.776
 3504WAT      O10753   7.371   5.710   9.586
 3504WAT     H110754   7.292   5.727   9.527
 3504WAT     H210755   7.344   5.718   9.682
 3505WAT      O10756   2.969   3.141   6.255
 3505WAT     H110757   2.938   3.160   6.349
 3505WAT     H210758   3.000   3.046   6.249
 3506WAT      O10759   5.133   2.836   2.385
 3506WAT     H110760   5.218   2.871   2.423
 3506WAT     H210761   5.149   2.800   2.294
 3507WAT      O10762   7.677   6.077   7.565
 3507WAT     H110763   7.586   6.069   7.605
 3507WAT     H210764   7.731   5.997   7.591
 3508WAT      O10765   5.845   7.535   0.389
 3508WAT     H110766   5.840   7.436   0.404
 3508WAT     H210767   5.754   7.570   0.370
 3509WAT      O10768   7.758   5.589   4.717
 3509WAT     H110769   7.737   5.600   4.814
 3509WAT     H210770   7.784   5.494   4.700
 3510WAT      O10771   9.687   5.750   6.284
 3510WAT     H110772   9.778   5.723   6.253
 3510WAT     H210773   9.695   5.812   6.361
 3511WAT      O10774   0.543   1.143   2.205
 3511WAT     H110775   0.510   1.055   2.171
 3511WAT     H210776   0.581   1.132   2.297
 3512WAT      O10777   9.416   3.385   2.820
 3512WAT     H110778   9.448   3.426   2.905
 3512WAT     H210779   9.409   3.456   2.749
 3513WAT      O10780   7.405   8.476   8.111
 3513WAT     H110781   7.370   8.390   8.149
 3513WAT     H210782   7.475   8.456   8.043
 3514WAT      O10783   0.072   1.145   4.656
 3514WAT     H110784   0.159   1.195   4.657
 3514WAT     H210785   0.050   1.114   4.748
 3515WAT      O10786   5.204   8.337   3.272
 3515WAT     H110787   5.180   8.334   3.175
 3515WAT     H210788   5.122   8.350   3.327
 3516WAT      O10789   1.716   7.836   0.792
 3516WAT     H110790   1.668   7.806   0.709
 3516WAT     H210791   1.674   7.793   0.872
 3517WAT      O10792   9.254   0.358   3.450
 3517WAT     H110793   9.257   0.449   3.408
 3517WAT     H210794   9.166   0.344   3.493
 3518WAT      O10795   8.716   3.964   8.782
 3518WAT     H110796   8.670   3.889   8.734
 3518WAT     H210797   8.708   4.048   8.728
 3519WAT      O10798   0.147   5.844   7.066
 3519WAT     H110799   0.073   5.803   7.011
 3519WAT     H210800   0.115   5.857   7.159
 3520WAT      O10801   6.957   7.384   4.670
 3520WAT     H110802   6.889   7.409   4.601
 3520WAT     H210803   7.048   7.380   4.628
 3521WAT      O10804   8.775   3.237   1.459
 3521WAT     H110805   8.731   3.147   1.453
 3521WAT     H210806   8.772   3.282   1.370
 3522WAT      O10807   4.034   3.611   0.599
 3522WAT     H110808   4.057   3.550   0.524
 3522WAT     H210809   4.019   3.558   0.683
 3523WAT      O10810   9.793   7.366   6.165
 3523WAT     H110811   9.855   7.412   6.229
 3523WAT     H210812   9.791   7.415   6.078
 3524WAT      O10813   2.579   7.952   2.127
 3524WAT     H110814   2.503   7.892   2.101
 3524WAT     H210815   2.622   7.916   2.210
 3525WAT      O10816   3.687   8.158   6.014
 3525WAT     H110817   3.724   8.228   6.075
 3525WAT     H210818   3.621   8.199   5.952
 3526WAT      O10819   9.570   2.930   7.105
 3526WAT     H110820   9.489   2.986   7.089
 3526WAT     H210821   9.557   2.840   7.062
 3527WAT      O10822   8.877   8.227   4.385
 3527WAT     H110823   8.900   8.151   4.446
 3527WAT     H210824   8.780   8.223   4.363
 3528WAT      O10825   0.091   2.262   9.800
 3528WAT     H110826   0.084   2.340   9.862
 3528WAT     H210827   0.030   2.189   9.831
 3529WAT      O10828   1.185   0.737   4.193
 3529WAT     H110829   1.142   0.699   4.275
 3529WAT     H210830   1.139   0.700   4.112
 3530WAT      O10831   8.603   6.985   4.782
 3530WAT     H110832   8.593   6.887   4.762
 3530WAT     H210833   8.686   7.019   4.738
 3531WAT      O10834   3.060   6.779   5.003
 3531WAT     H110835   3.138   6.724   4.974
 3531WAT     H210836   2.983   6.718   5.025
 3532WAT      O10837   3.785   4.303   0.132
 3532WAT     H110838   3.758   4.309   0.227
 3532WAT     H210839   3.802   4.208   0.107
 3533WAT      O10840   8.561   2.804   9.374
 3533WAT     H110841   8.488   2.822   9.440
 3533WAT     H210842   8.535   2.729   9.314
 3534WAT      O10843   6.139   0.284   5.123
 3534WAT     H110844   6.042   0.264   5.132
 3534WAT     H210845   6.152   0.362   5.062
 3535WAT      O10846   7.427   7.527   7.953
 3535WAT     H110847   7.375   7.595   8.004
 3535WAT     H210848   7.364   7.458   7.916
 3536WAT      O10849   5.521   4.265   1.086
 3536WAT     H110850   5.471   4.312   1.159
 3536WAT     H210851   5.503   4.310   0.999
 3537WAT      O10852   6.555   7.117   7.480
 3537WAT     H110853   6.595   7.029   7.453
 3537WAT     H210854   6.623   7.190   7.466
 3538WAT      O10855   6.347   4.762   9.356
 3538WAT     H110856   6.366   4.831   9.426
 3538WAT     H210857   6.423   4.697   9.351
 3539WAT      O10858   5.684   6.421   0.563
 3539WAT     H110859   5.688   6.321   0.555
 3539WAT     H210860   5.597   6.453   0.524
 3540WAT      O10861   7.243   6.062   6.103
 3540WAT     H110862   7.226   6.139   6.042
 3540WAT     H210863   7.327   6.077   6.155
 3541WAT      O10864   6.862   4.605   0.267
 3541WAT     H110865   6.843   4.554   0.183
 3541WAT     H210866   6.802   4.685   0.272
 3542WAT      O10867   8.948   3.610   8.279
 3542WAT     H110868   8.919   3.684   8.218
 3542WAT     H210869   8.894   3.528   8.259
 3543WAT      O10870   7.509   2.285   0.029
 3543WAT     H110871   7.443   2.344  -0.017
 3543WAT     H210872   7.460   2.216   0.083
 3544WAT      O10873   9.590   3.541   5.086
 3544WAT     H110874   9.569   3.522   5.181
 3544WAT     H210875   9.625   3.459   5.042
 3545WAT      O10876   4.058   8.980   7.774
 3545WAT     H110877   4.075   8.888   7.808
 3545WAT     H210878   3.989   9.025   7.831
 3546WAT      O10879   2.500   3.479   8.427
 3546WAT     H110880   2.464   3.573   8.429
 3546WAT     H210881   2.436   3.418   8.473
 3547WAT      O10882   4.943   0.182   0.070
 3547WAT     H110883   4.882   0.244   0.021
 3547WAT     H210884   4.895   0.144   0.149
 3548WAT      O10885   4.166   1.018   0.704
 3548WAT     H110886   4.116   1.071   0.772
 3548WAT     H210887   4.238   0.965   0.749
 3549WAT      O10888   0.461   7.672   7.293
 3549WAT     H110889   0.469   7.656   7.195
 3549WAT     H210890   0.400   7.605   7.334
 3550WAT      O10891   0.776   8.206   4.543
 3550WAT     H110892   0.680   8.187   4.566
 3550WAT     H210893   0.810   8.135   4.483
 3551WAT      O10894   8.870   7.417   7.607
 3551WAT     H110895   8.926   7.393   7.527
 3551WAT     H210896   8.801   7.484   7.581
 3552WAT      O10897   1.058   5.141   9.466
 3552WAT     H110898   1.044   5.239   9.474
 3552WAT     H210899   1.093   5.119   9.375
 3553WAT      O10900   8.033   6.031   5.315
 3553WAT     H110901   8.109   5.974   5.284
 3553WAT     H210902   8.068   6.122   5.340
 3554WAT      O10903   6.591   1.359   8.729
 3554WAT     H110904   6.690   1.369   8.732
 3554WAT     H210905   6.555   1.410   8.651
 3555WAT      O10906   6.333   7.343   0.716
 3555WAT     H110907   6.275   7.263   0.731
 3555WAT     H210908   6.367   7.342   0.622
 3556WAT      O10909   0.163   1.459   4.206
 3556WAT     H110910   0.088   1.458   4.272
 3556WAT     H210911   0.222   1.379   4.220
 3557WAT      O10912   0.769   5.853   6.114
 3557WAT     H110913   0.868   5.852   6.101
 3557WAT     H210914   0.724   5.869   6.025
 3558WAT      O10915   6.835   4.183   4.160
 3558WAT     H110916   6.735   4.187   4.163
 3558WAT     H210917   6.864   4.163   4.066
 3559WAT      O10918   9.733   4.705   3.315
 3559WAT     H110919   9.683   4.766   3.376
 3559WAT     H210920   9.735   4.743   3.223
 3560WAT      O10921   6.434   8.019   2.102
 3560WAT     H110922   6.345   7.985   2.072
 3560WAT     H210923   6.461   8.098   2.046
 3561WAT      O10924   5.077   2.150   1.078
 3561WAT     H110925   4.999   2.181   1.132
 3561WAT     H210926   5.053   2.064   1.031
 3562WAT      O10927   2.377   8.853   0.384
 3562WAT     H110928   2.428   8.930   0.347
 3562WAT     H210929   2.440   8.788   0.426
 3563WAT      O10930   3.341   3.097   0.194
 3563WAT     H110931   3.304   3.190   0.201
 3563WAT     H210932   3.266   3.033   0.180
 3564WAT      O10933   2.403   6.846   5.626
 3564WAT     H110934   2.467   6.780   5.667
 3564WAT     H210935   2.312   6.833   5.666
 3565WAT      O10936   9.205   8.216   8.930
 3565WAT     H110937   9.172   8.307   8.904
 3565WAT     H210938   9.127   8.159   8.955
 3566WAT      O10939   5.274   4.430   7.084
 3566WAT     H110940   5.290   4.337   7.050
 3566WAT     H210941   5.348   4.490   7.055
 3567WAT      O10942   3.261   9.228   5.960
 3567WAT     H110943   3.293   9.291   5.889
 3567WAT     H210944   3.323   9.232   6.038
 3568WAT      O10945   1.386   1.968   2.697
 3568WAT     H110946   1.468   1.912   2.683
 3568WAT     H210947   1.407   2.044   2.758
 3569WAT      O10948   1.679   6.160   8.534
 3569WAT     H110949   1.591   6.206   8.542
 3569WAT     H210950   1.719   6.180   8.444
 3570WAT      O10951   3.819   8.677   9.123
 3570WAT     H110952   3.871   8.748   9.170
 3570WAT     H210953   3.861   8.588   9.141
 3571WAT      O10954   7.626   6.118   0.195
 3571WAT     H110955   7.701   6.144   0.256
 3571WAT     H210956   7.621   6.019   0.189
 3572WAT      O10957   3.266   9.014   4.424
 3572WAT     H110958   3.191   8.973   4.372
 3572WAT     H210959   3.311   8.943   4.478
 3573WAT      O10960   7.922   9.490   4.911
 3573WAT     H110961   7.973   9.504   4.996
 3573WAT     H210962   7.943   9.565   4.847
 3574WAT      O10963   5.275   5.880   8.838
 3574WAT     H110964   5.186   5.903   8.799
 3574WAT     H210965   5.326   5.823   8.773
 3575WAT      O10966   1.102   5.851   4.663
 3575WAT     H110967   1.173   5.898   4.717
 3575WAT     H210968   1.127   5.754   4.654
 3576WAT      O10969   9.527   7.914   7.424
 3576WAT     H110970   9.526   7.982   7.351
 3576WAT     H210971   9.559   7.826   7.387
 3577WAT      O10972   6.702   6.482   2.820
 3577WAT     H110973   6.629   6.510   2.758
 3577WAT     H210974   6.790   6.517   2.786
 3578WAT      O10975   5.723   9.283   8.785
 3578WAT     H110976   5.701   9.373   8.824
 3578WAT     H210977   5.702   9.212   8.851
 3579WAT      O10978   3.777   9.108   1.858
 3579WAT     H110979   3.762   9.161   1.774
 3579WAT     H210980   3.780   9.170   1.936
 3580WAT      O10981   7.136   7.222   2.777
 3580WAT     H110982   7.108   7.241   2.683
 3580WAT     H210983   7.137   7.123   2.792
 3581WAT      O10984   3.967   3.537   3.983
 3581WAT     H110985   4.034   3.476   4.024
 3581WAT     H210986   3.925   3.594   4.054
 3582WAT      O10987   0.653   1.273   7.027
 3582WAT     H110988   0.703   1.321   6.955
 3582WAT     H210989   0.699   1.188   7.050
 3583WAT      O10990   9.699   5.379   9.809
 3583WAT     H110991   9.685   5.356   9.905
 3583WAT     H210992   9.794   5.404   9.794
 3584WAT      O10993   9.197   3.842   9.323
 3584WAT     H110994   9.168   3.934   9.299
 3584WAT     H210995   9.137   3.806   9.394
 3585WAT      O10996   1.031   8.244   6.889
 3585WAT     H110997   1.078   8.157   6.898
 3585WAT     H210998   1.097   8.319   6.894
 3586WAT      O10999   3.397   3.165   4.292
 3586WAT     H111000   3.415   3.127   4.201
 3586WAT     H211001   3.359   3.257   4.282
 3587WAT      O11002   2.932   6.520   8.904
 3587WAT     H111003   2.845   6.561   8.932
 3587WAT     H211004   2.979   6.483   8.984
 3588WAT      O11005   4.361   2.892   5.121
 3588WAT     H111006   4.278   2.837   5.127
 3588WAT     H211007   4.424   2.865   5.193
 3589WAT      O11008   7.837   5.330   3.083
 3589WAT     H111009   7.895   5.252   3.109
 3589WAT     H211010   7.786   5.308   3.001
 3590WAT      O11011   4.623   5.753   8.533
 3590WAT     H111012   4.623   5.801   8.445
 3590WAT     H211013   4.556   5.679   8.531
 3591WAT      O11014   6.026   9.480   0.896
 3591WAT     H111015   6.040   9.409   0.965
 3591WAT     H211016   5.952   9.452   0.835
 3592WAT      O11017   8.356   3.868   9.705
 3592WAT     H111018   8.449   3.891   9.674
 3592WAT     H211019   8.350   3.770   9.723
 3593WAT      O11020   9.370   6.281   4.831
 3593WAT     H111021   9.272   6.273   4.846
 3593WAT     H211022   9.399   6.375   4.852
 3594WAT      O11023   5.359   7.475   7.294
 3594WAT     H111024   5.306   7.500   7.213
 3594WAT     H211025   5.408   7.555   7.328
 3595WAT      O11026   9.617   3.010   0.538
 3595WAT     H111027   9.632   2.938   0.470
 3595WAT     H211028   9.574   2.970   0.620
 3596WAT      O11029   0.763   7.730   4.949
 3596WAT     H111030   0.667   7.715   4.927
 3596WAT     H211031   0.801   7.799   4.887
 3597WAT      O11032   2.097   9.472   5.280
 3597WAT     H111033   2.119   9.382   5.242
 3597WAT     H211034   2.016   9.465   5.337
 3598WAT      O11035   6.910   8.528   5.621
 3598WAT     H111036   6.918   8.626   5.606
 3598WAT     H211037   6.860   8.512   5.706
 3599WAT      O11038   4.135   2.272   2.242
 3599WAT     H111039   4.093   2.314   2.322
 3599WAT     H211040   4.137   2.173   2.253
 3600WAT      O11041   1.491   7.524   0.624
 3600WAT     H111042   1.404   7.514   0.576
 3600WAT     H211043   1.513   7.621   0.633
 3601WAT      O11044   5.526   1.406   7.671
 3601WAT     H111045   5.517   1.487   7.728
 3601WAT     H211046   5.621   1.374   7.673
 3602WAT      O11047   5.341   2.284   3.559
 3602WAT     H111048   5.297   2.372   3.579
 3602WAT     H211049   5.395   2.255   3.637
 3603WAT      O11050   0.434   7.925   0.098
 3603WAT     H111051   0.387   7.977   0.169
 3603WAT     H211052   0.392   7.946   0.009
 3604WAT      O11053   0.488   8.007   7.350
 3604WAT     H111054   0.587   7.999   7.356
 3604WAT     H211055   0.458   7.979   7.259
 3605WAT      O11056   4.144   3.384   4.123
 3605WAT     H111057   4.133   3.288   4.149
 3605WAT     H211058   4.195   3.432   4.195
 3606WAT      O11059   2.574   3.619   9.393
 3606WAT     H111060   2.490   3.670   9.412
 3606WAT     H211061   2.652   3.682   9.395
 3607WAT      O11062   0.878   3.294   7.852
 3607WAT     H111063   0.891   3.197   7.833
 3607WAT     H211064   0.803   3.304   7.918
 3608WAT      O11065   9.333   2.886   3.469
 3608WAT     H111066   9.243   2.845   3.477
 3608WAT     H211067   9.385   2.840   3.396
 3609WAT      O11068   6.368   6.579   0.136
 3609WAT     H111069   6.290   6.523   0.108
 3609WAT     H211070   6.349   6.676   0.115
 3610WAT      O11071   0.607   4.550   0.078
 3610WAT     H111072   0.546   4.486   0.031
 3610WAT     H211073   0.700   4.512   0.078
 3611WAT      O11074   6.449   4.003   7.094
 3611WAT     H111075   6.448   3.921   7.038
 3611WAT     H211076   6.394   3.989   7.176
 3612WAT      O11077   7.377   3.322   0.271
 3612WAT     H111078   7.312   3.331   0.346
 3612WAT     H211079   7.437   3.245   0.288
 3613WAT      O11080   4.338   6.573   6.133
 3613WAT     H111081   4.305   6.667   6.133
 3613WAT     H211082   4.343   6.539   6.039
 3614WAT      O11083   8.510   3.687   0.926
 3614WAT     H111084   8.585   3.748   0.951
 3614WAT     H211085   8.503   3.682   0.826
 3615WAT      O11086   1.480   1.144   6.238
 3615WAT     H111087   1.543   1.089   6.183
 3615WAT     H211088   1.528   1.224   6.273
 3616WAT      O11089   0.606   5.460   7.125
 3616WAT     H111090   0.661   5.514   7.188
 3616WAT     H211091   0.510   5.486   7.134
 3617WAT      O11092   7.790   2.968   7.251
 3617WAT     H111093   7.800   2.951   7.349
 3617WAT     H211094   7.879   2.988   7.211
 3618WAT      O11095   4.727   3.909   6.685
 3618WAT     H111096   4.741   3.812   6.664
 3618WAT     H211097   4.813   3.958   6.673
 3619WAT      O11098   3.897   0.028   4.016
 3619WAT     H111099   3.892  -0.006   3.921
 3619WAT     H211100   3.849   0.115   4.023
 3620WAT      O11101   2.034   8.573   3.396
 3620WAT     H111102   2.090   8.499   3.434
 3620WAT     H211103   1.942   8.568   3.434
 3621WAT      O11104   5.676   7.846   2.525
 3621WAT     H111105   5.723   7.911   2.585
 3621WAT     H211106   5.670   7.884   2.433
 3622WAT      O11107   5.206   7.085   2.792
 3622WAT     H111108   5.216   6.997   2.837
 3622WAT     H211109   5.283   7.144   2.815
 3623WAT      O11110   9.018   2.643   0.765
 3623WAT     H111111   8.998   2.599   0.677
 3623WAT     H211112   9.055   2.735   0.749
 3624WAT      O11113   2.861   8.522   5.684
 3624WAT     H111114   2.833   8.472   5.766
 3624WAT     H211115   2.850   8.621   5.700
 3625WAT      O11116   5.800   5.574   6.043
 3625WAT     H111117   5.736   5.554   5.969
 3625WAT     H211118   5.753   5.621   6.117
 3626WAT      O11119   8.666   1.322   3.865
 3626WAT     H111120   8.575   1.286   3.848
 3626WAT     H211121   8.659   1.406   3.920
 3627WAT      O11122   1.851   1.669   8.807
 3627WAT     H111123   1.829   1.574   8.828
 3627WAT     H211124   1.948   1.685   8.827
 3628WAT      O11125   7.349   2.169   7.650
 3628WAT     H111126   7.269   2.152   7.593
 3628WAT     H211127   7.391   2.082   7.677
 3629WAT      O11128   8.477   0.892   8.516
 3629WAT     H111129   8.422   0.833   8.574
 3629WAT     H211130   8.533   0.837   8.454
 3630WAT      O11131   0.300   6.053   6.988
 3630WAT     H111132   0.250   5.968   7.002
 3630WAT     H211133   0.298   6.107   7.072
 3631WAT      O11134   8.171   7.502   2.034
 3631WAT     H111135   8.160   7.456   1.946
 3631WAT     H211136   8.081   7.525   2.071
 3632WAT      O11137   8.860   9.190   2.748
 3632WAT     H111138   8.953   9.160   2.769
 3632WAT     H211139   8.841   9.275   2.798
 3633WAT      O11140   1.617   1.664   8.390
 3633WAT     H111141   1.684   1.710   8.449
 3633WAT     H211142   1.591   1.725   8.316
 3634WAT      O11143   3.756   8.232   4.881
 3634WAT     H111144   3.790   8.202   4.970
 3634WAT     H211145   3.690   8.164   4.847
 3635WAT      O11146   7.863   0.160   0.931
 3635WAT     H111147   7.922   0.125   1.003
 3635WAT     H211148   7.789   0.095   0.914
 3636WAT      O11149   5.736   0.464   7.345
 3636WAT     H111150   5.829   0.477   7.311
 3636WAT     H211151   5.737   0.472   7.445
 3637WAT      O11152   4.390   9.196   4.440
 3637WAT     H111153   4.424   9.198   4.346
 3637WAT     H211154   4.464   9.221   4.503
 3638WAT      O11155   3.320   1.867   1.390
 3638WAT     H111156   3.265   1.901   1.314
 3638WAT     H211157   3.391   1.934   1.413
 3639WAT      O11158   5.705   2.476   0.247
 3639WAT     H111159   5.766   2.457   0.325
 3639WAT     H211160   5.613   2.494   0.280
 3640WAT      O11161   0.014   8.786   5.107
 3640WAT     H111162  -0.037   8.760   5.189
 3640WAT     H211163   0.105   8.819   5.133
 3641WAT      O11164   5.438   9.361   9.412
 3641WAT     H111165   5.464   9.442   9.465
 3641WAT     H211166   5.339   9.347   9.419
 3642WAT      O11167   0.265   7.876   8.132
 3642WAT     H111168   0.252   7.893   8.230
 3642WAT     H211169   0.333   7.804   8.120
 3643WAT      O11170   4.959   9.459   3.616
 3643WAT     H111171   4.950   9.500   3.525
 3643WAT     H211172   4.884   9.489   3.674
 3644WAT      O11173   6.408   0.797   3.657
 3644WAT     H111174   6.403   0.746   3.571
 3644WAT     H211175   6.488   0.857   3.655
 3645WAT      O11176   2.320   1.409   3.744
 3645WAT     H111177   2.261   1.331   3.725
 3645WAT     H211178   2.383   1.422   3.667
 3646WAT      O11179   6.925   6.085   8.966
 3646WAT     H111180   7.006   6.114   9.017
 3646WAT     H211181   6.883   6.165   8.923
 3647WAT      O11182   0.737   0.858   3.492
 3647WAT     H111183   0.700   0.951   3.501
 3647WAT     H211184   0.812   0.859   3.426
 3648WAT      O11185   2.910   6.455   5.125
 3648WAT     H111186   2.865   6.375   5.165
 3648WAT     H211187   2.939   6.517   5.198
 3649WAT      O11188   8.975   8.469   6.259
 3649WAT     H111189   9.013   8.402   6.195
 3649WAT     H211190   8.997   8.440   6.353
 3650WAT      O11191   6.459   1.721   6.729
 3650WAT     H111192   6.462   1.820   6.720
 3650WAT     H211193   6.407   1.696   6.810
 3651WAT      O11194   2.857   4.001   1.502
 3651WAT     H111195   2.938   3.965   1.547
 3651WAT     H211196   2.825   4.083   1.550
 3652WAT      O11197   9.416   7.683   6.168
 3652WAT     H111198   9.462   7.677   6.257
 3652WAT     H211199   9.410   7.592   6.127
 3653WAT      O11200   0.980   7.011   9.262
 3653WAT     H111201   1.036   6.993   9.342
 3653WAT     H211202   0.898   6.954   9.265
 3654WAT      O11203   8.685   8.495   3.400
 3654WAT     H111204   8.655   8.528   3.310
 3654WAT     H211205   8.605   8.467   3.453
 3655WAT      O11206   5.755   3.407   9.109
 3655WAT     H111207   5.740   3.309   9.124
 3655WAT     H211208   5.670   3.449   9.076
 3656WAT      O11209   1.480   2.616   7.700
 3656WAT     H111210   1.499   2.628   7.798
 3656WAT     H211211   1.535   2.539   7.666
 3657WAT      O11212   6.094   2.209   9.831
 3657WAT     H111213   5.997   2.193   9.814
 3657WAT     H211214   6.147   2.138   9.784
 3658WAT      O11215   7.925   6.473   3.855
 3658WAT     H111216   7.858   6.546   3.846
 3658WAT     H211217   8.016   6.508   3.832
 3659WAT      O11218   7.335   9.109   3.435
 3659WAT     H111219   7.381   9.125   3.347
 3659WAT     H211220   7.285   9.022   3.430
 3660WAT      O11221   7.154   7.212   5.548
 3660WAT     H111222   7.239   7.215   5.600
 3660WAT     H211223   7.130   7.304   5.518
 3661WAT      O11224   5.486   7.605   5.387
 3661WAT     H111225   5.447   7.656   5.464
 3661WAT     H211226   5.473   7.656   5.303
 3662WAT      O11227   3.757   1.907   8.750
 3662WAT     H111228   3.789   1.825   8.798
 3662WAT     H211229   3.797   1.988   8.793
 3663WAT      O11230   5.609   1.995   4.348
 3663WAT     H111231   5.522   2.042   4.360
 3663WAT     H211232   5.684   2.053   4.380
 3664WAT      O11233   2.305   7.113   9.329
 3664WAT     H111234   2.307   7.122   9.429
 3664WAT     H211235   2.242   7.039   9.304
 3665WAT      O11236   0.303   4.961   9.756
 3665WAT     H111237   0.240   4.887   9.780
 3665WAT     H211238   0.356   4.986   9.837
 3666WAT      O11239   1.519   7.301   4.062
 3666WAT     H111240   1.466   7.236   4.117
 3666WAT     H211241   1.525   7.268   3.968
 3667WAT      O11242   1.072   4.160   4.116
 3667WAT     H111243   0.998   4.121   4.062
 3667WAT     H211244   1.035   4.225   4.182
 3668WAT      O11245   2.974   4.736   7.260
 3668WAT     H111246   2.886   4.689   7.259
 3668WAT     H211247   3.043   4.679   7.305
 3669WAT      O11248   3.657   2.256   0.026
 3669WAT     H111249   3.574   2.201   0.024
 3669WAT     H211250   3.642   2.341  -0.024
 3670WAT      O11251   6.355   3.099   3.058
 3670WAT     H111252   6.324   3.016   3.104
 3670WAT     H211253   6.329   3.095   2.961
 3671WAT      O11254   0.446   9.639   8.919
 3671WAT     H111255   0.537   9.674   8.941
 3671WAT     H211256   0.450   9.540   8.911
 3672WAT      O11257   8.913   7.493   8.511
 3672WAT     H111258   8.887   7.579   8.467
 3672WAT     H211259   9.004   7.502   8.551
 3673WAT      O11260   0.483   1.164   1.778
 3673WAT     H111261   0.530   1.077   1.773
 3673WAT     H211262   0.495   1.214   1.692
 3674WAT      O11263   8.423   1.795   1.752
 3674WAT     H111264   8.506   1.837   1.788
 3674WAT     H211265   8.404   1.833   1.661
 3675WAT      O11266   5.962   7.455   2.054
 3675WAT     H111267   6.042   7.396   2.062
 3675WAT     H211268   5.934   7.486   2.145
 3676WAT      O11269   7.618   1.552   6.599
 3676WAT     H111270   7.670   1.635   6.576
 3676WAT     H211271   7.656   1.475   6.548
 3677WAT      O11272   6.435   0.289   6.529
 3677WAT     H111273   6.449   0.205   6.476
 3677WAT     H211274   6.510   0.299   6.595
 3678WAT      O11275   4.612   7.014   1.196
 3678WAT     H111276   4.642   7.109   1.202
 3678WAT     H211277   4.586   6.981   1.287
 3679WAT      O11278   4.103   0.547   7.281
 3679WAT     H111279   4.020   0.597   7.306
 3679WAT     H211280   4.082   0.482   7.208
 3680WAT      O11281   4.445   1.756   1.130
 3680WAT     H111282   4.346   1.758   1.118
 3680WAT     H211283   4.468   1.772   1.226
 3681WAT      O11284   5.639   0.757   7.324
 3681WAT     H111285   5.712   0.794   7.267
 3681WAT     H211286   5.664   0.767   7.420
 3682WAT      O11287   3.592   9.287   1.175
 3682WAT     H111288   3.576   9.340   1.258
 3682WAT     H211289   3.632   9.198   1.200
 3683WAT      O11290   7.404   2.760   7.497
 3683WAT     H111291   7.346   2.685   7.528
 3683WAT     H211292   7.356   2.847   7.509
 3684WAT      O11293   7.548   2.431   6.953
 3684WAT     H111294   7.614   2.420   7.027
 3684WAT     H211295   7.582   2.385   6.871
 3685WAT      O11296   2.109   4.959   2.805
 3685WAT     H111297   2.202   4.930   2.828
 3685WAT     H211298   2.045   4.929   2.875
 3686WAT      O11299   7.629   0.316   4.565
 3686WAT     H111300   7.567   0.379   4.611
 3686WAT     H211301   7.633   0.230   4.617
 3687WAT      O11302   4.421   0.244   0.551
 3687WAT     H111303   4.488   0.227   0.623
 3687WAT     H211304   4.423   0.341   0.526
 3688WAT      O11305   6.992   4.177   1.993
 3688WAT     H111306   6.933   4.198   1.915
 3688WAT     H211307   7.057   4.105   1.966
 3689WAT      O11308   1.638   6.950   3.844
 3689WAT     H111309   1.552   6.998   3.861
 3689WAT     H211310   1.697   6.957   3.925
 3690WAT      O11311   7.605   4.342   3.432
 3690WAT     H111312   7.601   4.441   3.446
 3690WAT     H211313   7.623   4.297   3.519
 3691WAT      O11314   1.141   1.513   2.088
 3691WAT     H111315   1.051   1.492   2.049
 3691WAT     H211316   1.212   1.495   2.020
 3692WAT      O11317   5.995   6.818   1.767
 3692WAT     H111318   5.917   6.874   1.736
 3692WAT     H211319   6.064   6.878   1.808
 3693WAT      O11320   8.796   8.249   3.330
 3693WAT     H111321   8.894   8.260   3.349
 3693WAT     H211322   8.748   8.335   3.348
 3694WAT      O11323   4.445   9.498   5.527
 3694WAT     H111324   4.435   9.446   5.613
 3694WAT     H211325   4.375   9.467   5.462
 3695WAT      O11326   2.211   5.495   5.099
 3695WAT     H111327   2.287   5.468   5.039
 3695WAT     H211328   2.246   5.551   5.174
 3696WAT      O11329   7.968   9.834   1.113
 3696WAT     H111330   8.019   9.825   1.198
 3696WAT     H211331   7.968   9.747   1.064
 3697WAT      O11332   7.044   4.877   8.431
 3697WAT     H111333   7.003   4.899   8.520
 3697WAT     H211334   7.124   4.936   8.416
 3698WAT      O11335   7.839   2.576   4.298
 3698WAT     H111336   7.743   2.590   4.276
 3698WAT     H211337   7.878   2.507   4.238
 3699WAT      O11338   9.197   0.073   3.675
 3699WAT     H111339   9.178   0.168   3.700
 3699WAT     H211340   9.203   0.018   3.758
 3700WAT      O11341   6.573   5.169   2.117
 3700WAT     H111342   6.573   5.269   2.119
 3700WAT     H211343   6.498   5.135   2.173
 3701WAT      O11344   6.597   6.081   2.371
 3701WAT     H111345   6.586   6.154   2.439
 3701WAT     H211346   6.514   6.073   2.317
 3702WAT      O11347   9.639   5.968   2.134
 3702WAT     H111348   9.686   5.930   2.215
 3702WAT     H211349   9.540   5.962   2.148
 3703WAT      O11350   0.849   4.156   2.061
 3703WAT     H111351   0.808   4.247   2.049
 3703WAT     H211352   0.826   4.098   1.983
 3704WAT      O11353   6.780   2.112   1.278
 3704WAT     H111354   6.752   2.207   1.264
 3704WAT     H211355   6.876   2.109   1.307
 3705WAT      O11356   3.359   1.479   0.152
 3705WAT     H111357   3.332   1.400   0.206
 3705WAT     H211358   3.425   1.451   0.082
 3706WAT      O11359   9.422   3.237   0.535
 3706WAT     H111360   9.482   3.158   0.536
 3706WAT     H211361   9.471   3.317   0.569
 3707WAT      O11362   8.129   7.793   3.860
 3707WAT     H111363   8.155   7.745   3.944
 3707WAT     H211364   8.089   7.881   3.884
 3708WAT      O11365   4.500   4.061   1.997
 3708WAT     H111366   4.426   3.999   1.971
 3708WAT     H211367   4.585   4.009   2.005
 3709WAT      O11368   7.065   8.917   9.506
 3709WAT     H111369   7.050   8.836   9.563
 3709WAT     H211370   7.161   8.920   9.477
 3710WAT      O11371   2.328   1.884   2.424
 3710WAT     H111372   2.307   1.919   2.333
 3710WAT     H211373   2.358   1.788   2.417
 3711WAT      O11374   6.013   7.405   8.224
 3711WAT     H111375   6.044   7.322   8.270
 3711WAT     H211376   6.088   7.472   8.221
 3712WAT      O11377   4.901   9.215   0.110
 3712WAT     H111378   4.873   9.298   0.157
 3712WAT     H211379   4.824   9.179   0.058
 3713WAT      O11380   8.033   9.044   8.224
 3713WAT     H111381   8.072   9.133   8.197
 3713WAT     H211382   8.021   8.987   8.143
 3714WAT      O11383   1.980   3.095   1.971
 3714WAT     H111384   1.954   3.146   2.053
 3714WAT     H211385   1.983   3.157   1.893
 3715WAT      O11386   3.654   4.512   5.221
 3715WAT     H111387   3.711   4.437   5.255
 3715WAT     H211388   3.701   4.557   5.145
 3716WAT      O11389   8.694   8.327   5.276
 3716WAT     H111390   8.776   8.378   5.303
 3716WAT     H211391   8.718   8.261   5.205
 3717WAT      O11392   0.666   9.332   9.779
 3717WAT     H111393   0.685   9.287   9.692
 3717WAT     H211394   0.603   9.408   9.765
 3718WAT      O11395   2.374   7.587   3.601
 3718WAT     H111396   2.389   7.577   3.502
 3718WAT     H211397   2.420   7.513   3.649
 3719WAT      O11398   5.093   1.655   0.430
 3719WAT     H111399   5.129   1.579   0.484
 3719WAT     H211400   5.013   1.694   0.476
 3720WAT      O11401   3.854   9.468   5.067
 3720WAT     H111402   3.781   9.460   5.135
 3720WAT     H211403   3.818   9.450   4.976
 3721WAT      O11404   6.444   9.087   3.501
 3721WAT     H111405   6.446   9.000   3.451
 3721WAT     H211406   6.511   9.084   3.576
 3722WAT      O11407   3.934   6.449   9.252
 3722WAT     H111408   3.995   6.392   9.197
 3722WAT     H211409   3.865   6.490   9.194
 3723WAT      O11410   7.505   8.039   0.277
 3723WAT     H111411   7.522   8.138   0.270
 3723WAT     H211412   7.407   8.023   0.279
 3724WAT      O11413   8.152   2.139   4.877
 3724WAT     H111414   8.187   2.155   4.969
 3724WAT     H211415   8.226   2.101   4.820
 3725WAT      O11416   3.486   9.557   2.736
 3725WAT     H111417   3.389   9.537   2.727
 3725WAT     H211418   3.521   9.597   2.651
 3726WAT      O11419   1.737   9.222   9.008
 3726WAT     H111420   1.699   9.307   8.973
 3726WAT     H211421   1.662   9.158   9.027
 3727WAT      O11422   3.600   6.587   8.344
 3727WAT     H111423   3.639   6.508   8.297
 3727WAT     H211424   3.523   6.558   8.401
 3728WAT      O11425   7.925   3.458   5.151
 3728WAT     H111426   8.001   3.431   5.209
 3728WAT     H211427   7.846   3.481   5.207
 3729WAT      O11428   5.169   5.560   9.366
 3729WAT     H111429   5.154   5.466   9.396
 3729WAT     H211430   5.232   5.560   9.288
 3730WAT      O11431   1.080   8.518   9.112
 3730WAT     H111432   1.035   8.487   9.196
 3730WAT     H211433   1.168   8.560   9.135
 3731WAT      O11434   8.676   9.739   6.170
 3731WAT     H111435   8.679   9.733   6.070
 3731WAT     H211436   8.758   9.695   6.208
 3732WAT      O11437   4.319   1.428   6.265
 3732WAT     H111438   4.371   1.368   6.204
 3732WAT     H211439   4.280   1.504   6.211
 3733WAT      O11440   6.040   5.292   4.596
 3733WAT     H111441   6.069   5.358   4.665
 3733WAT     H211442   6.115   5.277   4.531
 3734WAT      O11443   3.884   0.082   6.085
 3734WAT     H111444   3.860   0.176   6.111
 3734WAT     H211445   3.874   0.071   5.986
 3735WAT      O11446   3.917   1.407   5.547
 3735WAT     H111447   3.948   1.501   5.557
 3735WAT     H211448   3.968   1.362   5.473
 3736WAT      O11449   3.673   0.663   8.542
 3736WAT     H111450   3.772   0.655   8.551
 3736WAT     H211451   3.650   0.688   8.448
 3737WAT      O11452   2.324   5.457   7.926
 3737WAT     H111453   2.385   5.395   7.977
 3737WAT     H211454   2.324   5.429   7.829
 3738WAT      O11455   0.930   6.674   5.142
 3738WAT     H111456   0.864   6.659   5.216
 3738WAT     H211457   0.913   6.764   5.101
 3739WAT      O11458   3.213   7.312   6.427
 3739WAT     H111459   3.188   7.217   6.445
 3739WAT     H211460   3.154   7.373   6.480
 3740WAT      O11461   5.985   1.233   3.314
 3740WAT     H111462   6.048   1.241   3.392
 3740WAT     H211463   5.904   1.289   3.331
 3741WAT      O11464   1.326   7.180   9.429
 3741WAT     H111465   1.257   7.241   9.468
 3741WAT     H211466   1.313   7.087   9.465
 3742WAT      O11467   3.330   1.146   4.461
 3742WAT     H111468   3.320   1.067   4.521
 3742WAT     H211469   3.254   1.209   4.475
 3743WAT      O11470   8.581   2.099   0.957
 3743WAT     H111471   8.640   2.159   1.012
 3743WAT     H211472   8.515   2.154   0.907
 3744WAT      O11473   6.775   5.332   4.555
 3744WAT     H111474   6.843   5.401   4.578
 3744WAT     H211475   6.755   5.335   4.457
 3745WAT      O11476   2.290   8.231   5.077
 3745WAT     H111477   2.324   8.238   5.171
 3745WAT     H211478   2.209   8.172   5.076
 3746WAT      O11479   5.462   6.789   4.504
 3746WAT     H111480   5.391   6.770   4.571
 3746WAT     H211481   5.420   6.801   4.414
 3747WAT      O11482   7.362   9.184   5.520
 3747WAT     H111483   7.362   9.269   5.572
 3747WAT     H211484   7.444   9.130   5.543
 3748WAT      O11485   1.595   3.636   6.278
 3748WAT     H111486   1.637   3.709   6.225
 3748WAT     H211487   1.515   3.671   6.326
 3749WAT      O11488   2.231   7.474   4.576
 3749WAT     H111489   2.226   7.379   4.545
 3749WAT     H211490   2.148   7.497   4.627
 3750WAT      O11491   0.814   5.479   8.465
 3750WAT     H111492   0.797   5.504   8.560
 3750WAT     H211493   0.805   5.380   8.454
 3751WAT      O11494   0.735   9.421   0.611
 3751WAT     H111495   0.793   9.492   0.653
 3751WAT     H211496   0.652   9.463   0.575
 3752WAT      O11497   0.086   8.056   3.446
 3752WAT     H111498   0.059   7.983   3.509
 3752WAT     H211499   0.171   8.029   3.399
 3753WAT      O11500   8.102   6.366   0.767
 3753WAT     H111501   8.123   6.296   0.835
 3753WAT     H211502   8.086   6.454   0.813
 3754WAT      O11503   9.093   9.213   9.155
 3754WAT     H111504   9.192   9.213   9.170
 3754WAT     H211505   9.055   9.124   9.181
 3755WAT      O11506   3.283   3.068   2.219
 3755WAT     H111507   3.250   3.081   2.312
 3755WAT     H211508   3.318   2.974   2.209
 3756WAT      O11509   1.754   3.338   6.717
 3756WAT     H111510   1.708   3.382   6.640
 3756WAT     H211511   1.705   3.254   6.742
 3757WAT      O11512   7.370   5.877   4.960
 3757WAT     H111513   7.367   5.860   4.861
 3757WAT     H211514   7.379   5.789   5.008
 3758WAT      O11515   9.021   1.026   2.984
 3758WAT     H111516   9.028   1.122   3.013
 3758WAT     H211517   9.055   1.017   2.890
 3759WAT      O11518   5.093   4.950   5.617
 3759WAT     H111519   5.072   4.960   5.520
 3759WAT     H211520   5.154   4.871   5.630
 3760WAT      O11521   4.085   0.172   3.805
 3760WAT     H111522   4.045   0.219   3.883
 3760WAT     H211523   4.053   0.077   3.803
 3761WAT      O11524   0.890   8.727   4.347
 3761WAT     H111525   0.891   8.797   4.419
 3761WAT     H211526   0.797   8.714   4.314
 3762WAT      O11527   5.676   9.636   6.362
 3762WAT     H111528   5.648   9.669   6.453
 3762WAT     H211529   5.683   9.714   6.299
 3763WAT      O11530   9.340   3.117   0.306
 3763WAT     H111531   9.371   3.172   0.384
 3763WAT     H211532   9.377   3.024   0.314
 3764WAT      O11533   2.682   4.973   8.319
 3764WAT     H111534   2.747   4.960   8.244
 3764WAT     H211535   2.627   4.890   8.329
 3765WAT      O11536   0.519   4.075   3.752
 3765WAT     H111537   0.472   3.991   3.725
 3765WAT     H211538   0.579   4.106   3.678
 3766WAT      O11539   0.941   7.426   9.853
 3766WAT     H111540   0.885   7.497   9.811
 3766WAT     H211541   0.883   7.360   9.900
 3767WAT      O11542   5.747   5.297   9.437
 3767WAT     H111543   5.830   5.258   9.475
 3767WAT     H211544   5.681   5.225   9.419
 3768WAT      O11545   2.731   6.081   4.836
 3768WAT     H111546   2.724   5.987   4.802
 3768WAT     H211547   2.669   6.140   4.783
 3769WAT      O11548   9.340   5.552   0.358
 3769WAT     H111549   9.242   5.572   0.355
 3769WAT     H211550   9.391   5.637   0.342
 3770WAT      O11551   0.649   2.695   3.610
 3770WAT     H111552   0.677   2.626   3.677
 3770WAT     H211553   0.585   2.655   3.545
 3771WAT      O11554   4.067   5.620   6.605
 3771WAT     H111555   4.011   5.576   6.535
 3771WAT     H211556   4.030   5.710   6.626
 3772WAT      O11557   1.073   7.860   9.026
 3772WAT     H111558   0.988   7.913   9.025
 3772WAT     H211559   1.063   7.782   9.088
 3773WAT      O11560   7.105   5.440   5.104
 3773WAT     H111561   7.185   5.457   5.047
 3773WAT     H211562   7.023   5.470   5.056
 3774WAT      O11563   1.438   1.357   3.240
 3774WAT     H111564   1.408   1.372   3.145
 3774WAT     H211565   1.486   1.269   3.246
 3775WAT      O11566   7.585   4.352   8.957
 3775WAT     H111567   7.566   4.256   8.935
 3775WAT     H211568   7.581   4.406   8.873
 3776WAT      O11569   7.762   7.731   7.320
 3776WAT     H111570   7.674   7.685   7.337
 3776WAT     H211571   7.822   7.669   7.268
 3777WAT      O11572   4.536   5.043   1.613
 3777WAT     H111573   4.494   5.134   1.605
 3777WAT     H211574   4.615   5.038   1.551
 3778WAT      O11575   5.882   7.067   5.682
 3778WAT     H111576   5.902   7.133   5.610
 3778WAT     H211577   5.960   7.004   5.693
 3779WAT      O11578   7.160   3.619   8.941
 3779WAT     H111579   7.150   3.615   8.841
 3779WAT     H211580   7.164   3.526   8.978
 3780WAT      O11581   1.674   4.190   2.350
 3780WAT     H111582   1.719   4.157   2.267
 3780WAT     H211583   1.743   4.226   2.413
 3781WAT      O11584   7.649   6.790   6.173
 3781WAT     H111585   7.626   6.757   6.265
 3781WAT     H211586   7.581   6.757   6.108
 3782WAT      O11587   0.734   3.292   5.760
 3782WAT     H111588   0.830   3.264   5.770
 3782WAT     H211589   0.706   3.278   5.666
 3783WAT      O11590   9.305   2.828   4.143
 3783WAT     H111591   9.240   2.752   4.147
 3783WAT     H211592   9.381   2.810   4.205
 3784WAT      O11593   9.825   6.426   6.720
 3784WAT     H111594   9.757   6.362   6.755
 3784WAT     H211595   9.903   6.376   6.682
 3785WAT      O11596   1.532   1.722   1.924
 3785WAT     H111597   1.475   1.790   1.969
 3785WAT     H211598   1.540   1.641   1.984
 3786WAT      O11599   4.152   5.746   9.476
 3786WAT     H111600   4.074   5.807   9.458
 3786WAT     H211601   4.223   5.797   9.524
 3787WAT      O11602   9.534   1.150   8.518
 3787WAT     H111603   9.614   1.093   8.504
 3787WAT     H211604   9.560   1.247   8.511
 3788WAT      O11605   4.650   4.830   7.153
 3788WAT     H111606   4.680   4.922   7.128
 3788WAT     H211607   4.553   4.820   7.131
 3789WAT      O11608   5.418   3.898   9.807
 3789WAT     H111609   5.452   3.925   9.896
 3789WAT     H211610   5.494   3.877   9.746
 3790WAT      O11611   6.172   0.391   5.979
 3790WAT     H111612   6.077   0.381   5.949
 3790WAT     H211613   6.184   0.481   6.021
 3791WAT      O11614   8.131   6.112   2.978
 3791WAT     H111615   8.153   6.050   2.903
 3791WAT     H211616   8.115   6.204   2.942
 3792WAT      O11617   8.377   5.654   8.897
 3792WAT     H111618   8.336   5.713   8.827
 3792WAT     H211619   8.453   5.603   8.856
 3793WAT      O11620   4.589   4.138   8.105
 3793WAT     H111621   4.667   4.179   8.058
 3793WAT     H211622   4.621   4.062   8.162
 3794WAT      O11623   0.624   5.553   3.230
 3794WAT     H111624   0.645   5.555   3.132
 3794WAT     H211625   0.598   5.461   3.257
 3795WAT      O11626   2.810   5.922   4.424
 3795WAT     H111627   2.892   5.878   4.387
 3795WAT     H211628   2.806   5.907   4.523
 3796WAT      O11629   2.456   7.262   2.982
 3796WAT     H111630   2.465   7.292   2.887
 3796WAT     H211631   2.431   7.165   2.984
 3797WAT      O11632   7.560   9.618   0.807
 3797WAT     H111633   7.467   9.609   0.770
 3797WAT     H211634   7.560   9.591   0.903
 3798WAT      O11635   3.700   0.920   6.959
 3798WAT     H111636   3.755   0.920   6.876
 3798WAT     H211637   3.611   0.962   6.940
 3799WAT      O11638   0.895   3.656   8.381
 3799WAT     H111639   0.826   3.589   8.411
 3799WAT     H211640   0.949   3.618   8.306
 3800WAT      O11641   3.559   0.356   8.487
 3800WAT     H111642   3.552   0.411   8.571
 3800WAT     H211643   3.626   0.398   8.426
 3801WAT      O11644   1.900   0.593   0.413
 3801WAT     H111645   1.970   0.536   0.456
 3801WAT     H211646   1.875   0.554   0.324
 3802WAT      O11647   4.177   2.873   5.795
 3802WAT     H111648   4.116   2.950   5.778
 3802WAT     H211649   4.263   2.887   5.745
 3803WAT      O11650   6.203   7.520   0.859
 3803WAT     H111651   6.242   7.457   0.792
 3803WAT     H211652   6.268   7.593   0.879
 3804WAT      O11653   7.203   2.497   9.432
 3804WAT     H111654   7.259   2.453   9.362
 3804WAT     H211655   7.121   2.442   9.448
 3805WAT      O11656   7.032   9.455   2.941
 3805WAT     H111657   6.991   9.439   3.031
 3805WAT     H211658   7.058   9.368   2.900
 3806WAT      O11659   1.807   9.295   7.952
 3806WAT     H111660   1.714   9.331   7.961
 3806WAT     H211661   1.855   9.345   7.880
 3807WAT      O11662   2.977   1.870   7.840
 3807WAT     H111663   3.067   1.846   7.876
 3807WAT     H211664   2.985   1.890   7.742
 3808WAT      O11665   1.396   0.594   3.542
 3808WAT     H111666   1.410   0.576   3.445
 3808WAT     H211667   1.484   0.611   3.586
 3809WAT      O11668   6.084   0.853   6.438
 3809WAT     H111669   6.004   0.801   6.465
 3809WAT     H211670   6.155   0.790   6.405
 3810WAT      O11671   5.451   2.942   3.436
 3810WAT     H111672   5.412   3.031   3.410
 3810WAT     H211673   5.546   2.937   3.406
 3811WAT      O11674   2.474   2.941   0.685
 3811WAT     H111675   2.478   3.003   0.607
 3811WAT     H211676   2.538   2.866   0.671
 3812WAT      O11677   0.601   2.136   1.372
 3812WAT     H111678   0.615   2.139   1.471
 3812WAT     H211679   0.552   2.053   1.349
 3813WAT      O11680   6.354   9.730   5.945
 3813WAT     H111681   6.420   9.700   5.876
 3813WAT     H211682   6.365   9.828   5.960
 3814WAT      O11683   2.177   6.547   0.331
 3814WAT     H111684   2.139   6.454   0.329
 3814WAT     H211685   2.103   6.612   0.348
 3815WAT      O11686   3.617   3.978   7.730
 3815WAT     H111687   3.645   4.057   7.676
 3815WAT     H211688   3.642   3.993   7.826
 3816WAT      O11689   1.956   1.012   0.146
 3816WAT     H111690   1.940   1.054   0.236
 3816WAT     H211691   2.054   1.003   0.130
 3817WAT      O11692   3.142   5.052   9.201
 3817WAT     H111693   3.100   4.977   9.253
 3817WAT     H211694   3.075   5.123   9.183
 3818WAT      O11695   4.277   4.303   2.640
 3818WAT     H111696   4.282   4.210   2.677
 3818WAT     H211697   4.303   4.368   2.711
 3819WAT      O11698   7.239   7.363   7.146
 3819WAT     H111699   7.306   7.293   7.168
 3819WAT     H211700   7.286   7.451   7.135
 3820WAT      O11701   6.221   3.527   8.419
 3820WAT     H111702   6.168   3.551   8.337
 3820WAT     H211703   6.235   3.609   8.474
 3821WAT      O11704   8.155   1.859   9.713
 3821WAT     H111705   8.108   1.831   9.797
 3821WAT     H211706   8.152   1.958   9.705
 3822WAT      O11707   5.562   1.173   2.548
 3822WAT     H111708   5.619   1.092   2.535
 3822WAT     H211709   5.615   1.244   2.595
 3823WAT      O11710   5.427   9.211   6.658
 3823WAT     H111711   5.521   9.232   6.632
 3823WAT     H211712   5.380   9.168   6.581
 3824WAT      O11713   5.257   9.512   4.615
 3824WAT     H111714   5.307   9.578   4.671
 3824WAT     H211715   5.319   9.437   4.590
 3825WAT      O11716   6.512   9.410   5.085
 3825WAT     H111717   6.518   9.452   4.995
 3825WAT     H211718   6.418   9.380   5.102
 3826WAT      O11719   8.698   7.573   2.149
 3826WAT     H111720   8.618   7.611   2.197
 3826WAT     H211721   8.735   7.643   2.087
 3827WAT      O11722   0.591   0.474   9.701
 3827WAT     H111723   0.576   0.383   9.739
 3827WAT     H211724   0.574   0.472   9.602
 3828WAT      O11725   7.650   6.899   0.413
 3828WAT     H111726   7.557   6.910   0.379
 3828WAT     H211727   7.702   6.982   0.396
 3829WAT      O11728   4.225   6.328   0.162
 3829WAT     H111729   4.126   6.315   0.166
 3829WAT     H211730   4.263   6.324   0.254
 3830WAT      O11731   0.265   4.833   8.357
 3830WAT     H111732   0.178   4.792   8.384
 3830WAT     H211733   0.337   4.805   8.421
 3831WAT      O11734   4.025   1.038   8.951
 3831WAT     H111735   4.018   1.137   8.949
 3831WAT     H211736   4.111   1.011   8.996
 3832WAT      O11737   6.916   0.824   0.681
 3832WAT     H111738   6.937   0.754   0.612
 3832WAT     H211739   6.874   0.780   0.761
 3833WAT      O11740   2.983   5.024   8.759
 3833WAT     H111741   3.035   4.972   8.828
 3833WAT     H211742   3.045   5.055   8.687
 3834WAT      O11743   1.752   8.149   9.726
 3834WAT     H111744   1.737   8.055   9.755
 3834WAT     H211745   1.689   8.171   9.651
 3835WAT      O11746   6.894   1.792   1.486
 3835WAT     H111747   6.856   1.880   1.514
 3835WAT     H211748   6.856   1.719   1.543
 3836WAT      O11749   6.981   3.858   2.573
 3836WAT     H111750   7.018   3.910   2.651
 3836WAT     H211751   7.028   3.770   2.567
 3837WAT      O11752   9.849   1.254   3.507
 3837WAT     H111753   9.881   1.160   3.523
 3837WAT     H211754   9.814   1.261   3.413
 3838WAT      O11755   8.656   7.711   5.813
 3838WAT     H111756   8.717   7.760   5.751
 3838WAT     H211757   8.566   7.699   5.770
 3839WAT      O11758   4.031   4.611   0.452
 3839WAT     H111759   4.097   4.619   0.377
 3839WAT     H211760   4.074   4.563   0.528
 3840WAT      O11761   3.132   9.428   6.536
 3840WAT     H111762   3.208   9.462   6.590
 3840WAT     H211763   3.130   9.476   6.448
 3841WAT      O11764   6.912   6.089   1.297
 3841WAT     H111765   6.987   6.033   1.332
 3841WAT     H211766   6.845   6.104   1.369
 3842WAT      O11767   1.617   8.760   1.490
 3842WAT     H111768   1.575   8.775   1.580
 3842WAT     H211769   1.684   8.832   1.472
 3843WAT      O11770   2.621   5.445   3.822
 3843WAT     H111771   2.710   5.402   3.807
 3843WAT     H211772   2.614   5.527   3.766
 3844WAT      O11773   2.481   7.400   3.757
 3844WAT     H111774   2.577   7.417   3.779
 3844WAT     H211775   2.461   7.303   3.765
 3845WAT      O11776   0.250   6.025   7.507
 3845WAT     H111777   0.236   6.113   7.553
 3845WAT     H211778   0.163   5.994   7.468
 3846WAT      O11779   8.560   3.705   8.245
 3846WAT     H111780   8.634   3.770   8.227
 3846WAT     H211781   8.489   3.714   8.175
 3847WAT      O11782   6.355   9.545   2.645
 3847WAT     H111783   6.307   9.469   2.690
 3847WAT     H211784   6.446   9.555   2.686
 3848WAT      O11785   8.253   5.705   4.209
 3848WAT     H111786   8.343   5.738   4.181
 3848WAT     H211787   8.231   5.741   4.300
 3849WAT      O11788   5.947   2.178   4.993
 3849WAT     H111789   6.025   2.166   5.055
 3849WAT     H211790   5.889   2.097   4.995
 3850WAT      O11791   4.525   2.637   3.027
 3850WAT     H111792   4.495   2.733   3.031
 3850WAT     H211793   4.451   2.578   3.058
 3851WAT      O11794   2.919   0.805   9.751
 3851WAT     H111795   2.883   0.891   9.786
 3851WAT     H211796   2.845   0.738   9.745
 3852WAT      O11797   9.049   4.456   4.279
 3852WAT     H111798   9.108   4.515   4.224
 3852WAT     H211799   8.997   4.512   4.344
 3853WAT      O11800   8.557   3.315   3.655
 3853WAT     H111801   8.644   3.334   3.699
 3853WAT     H211802   8.485   3.307   3.724
 3854WAT      O11803   7.799   5.512   0.472
 3854WAT     H111804   7.884   5.511   0.420
 3854WAT     H211805   7.819   5.532   0.568
 3855WAT      O11806   6.230   4.079   3.611
 3855WAT     H111807   6.213   4.122   3.523
 3855WAT     H211808   6.197   3.985   3.609
 3856WAT      O11809   3.850   6.475   5.069
 3856WAT     H111810   3.891   6.385   5.084
 3856WAT     H211811   3.862   6.501   4.973
 3857WAT      O11812   5.816   1.288   7.038
 3857WAT     H111813   5.904   1.336   7.031
 3857WAT     H211814   5.825   1.196   7.000
 3858WAT      O11815   5.840   0.126   2.217
 3858WAT     H111816   5.773   0.191   2.252
 3858WAT     H211817   5.835   0.041   2.270
 3859WAT      O11818   5.819   0.138   2.552
 3859WAT     H111819   5.759   0.195   2.496
 3859WAT     H211820   5.803   0.042   2.530
 3860WAT      O11821   8.785   8.609   4.268
 3860WAT     H111822   8.733   8.588   4.350
 3860WAT     H211823   8.822   8.701   4.275
 3861WAT      O11824   9.039   7.934   3.278
 3861WAT     H111825   9.129   7.943   3.236
 3861WAT     H211826   9.017   7.837   3.288
 3862WAT      O11827   1.887   1.629   6.685
 3862WAT     H111828   1.921   1.595   6.597
 3862WAT     H211829   1.788   1.642   6.678
 3863WAT      O11830   5.082   7.908   6.642
 3863WAT     H111831   4.987   7.936   6.647
 3863WAT     H211832   5.107   7.892   6.546
 3864WAT      O11833   9.219   6.633   3.969
 3864WAT     H111834   9.161   6.552   3.959
 3864WAT     H211835   9.312   6.611   3.940
 3865WAT      O11836   1.740   4.261   8.562
 3865WAT     H111837   1.768   4.190   8.628
 3865WAT     H211838   1.642   4.280   8.574
 3866WAT      O11839   9.372   9.630   9.236
 3866WAT     H111840   9.289   9.577   9.257
 3866WAT     H211841   9.366   9.719   9.280
 3867WAT      O11842   2.501   7.822   3.694
 3867WAT     H111843   2.437   7.756   3.654
 3867WAT     H211844   2.571   7.774   3.746
 3868WAT      O11845   9.289   1.478   2.764
 3868WAT     H111846   9.318   1.561   2.717
 3868WAT     H211847   9.222   1.430   2.708
 3869WAT      O11848   2.061   2.660   1.679
 3869WAT     H111849   2.059   2.577   1.735
 3869WAT     H211850   2.022   2.736   1.731
 3870WAT      O11851   4.868   8.375   5.466
 3870WAT     H111852   4.964   8.349   5.480
 3870WAT     H211853   4.830   8.408   5.552
 3871WAT      O11854   3.037   0.954   7.296
 3871WAT     H111855   3.056   0.862   7.263
 3871WAT     H211856   2.963   0.951   7.363
 3872WAT      O11857   7.002   1.250   0.993
 3872WAT     H111858   6.965   1.179   0.934
 3872WAT     H211859   7.072   1.211   1.053
 3873WAT      O11860   8.982   7.734   5.949
 3873WAT     H111861   9.070   7.689   5.934
 3873WAT     H211862   8.932   7.687   6.022
 3874WAT      O11863   7.803   1.125   3.587
 3874WAT     H111864   7.870   1.192   3.618
 3874WAT     H211865   7.788   1.057   3.659
 3875WAT      O11866   0.259   5.741   4.440
 3875WAT     H111867   0.263   5.641   4.446
 3875WAT     H211868   0.178   5.768   4.387
 3876WAT      O11869   0.256   3.206   9.601
 3876WAT     H111870   0.301   3.120   9.628
 3876WAT     H211871   0.172   3.186   9.552
 3877WAT      O11872   9.750   0.197   4.052
 3877WAT     H111873   9.669   0.255   4.062
 3877WAT     H211874   9.787   0.207   3.959
 3878WAT      O11875   9.138   9.475   9.285
 3878WAT     H111876   9.142   9.462   9.384
 3878WAT     H211877   9.124   9.386   9.240
 3879WAT      O11878   3.665   2.362   0.887
 3879WAT     H111879   3.581   2.394   0.844
 3879WAT     H211880   3.657   2.265   0.911
 3880WAT      O11881   4.751   5.750   1.448
 3880WAT     H111882   4.684   5.751   1.522
 3880WAT     H211883   4.796   5.661   1.446
 3881WAT      O11884   2.821   7.355   7.518
 3881WAT     H111885   2.829   7.329   7.614
 3881WAT     H211886   2.903   7.405   7.490
 3882WAT      O11887   0.408   7.380   5.385
 3882WAT     H111888   0.443   7.458   5.333
 3882WAT     H211889   0.389   7.409   5.479
 3883WAT      O11890   0.353   4.836   1.255
 3883WAT     H111891   0.369   4.862   1.350
 3883WAT     H211892   0.261   4.798   1.245
 3884WAT      O11893   7.707   7.433   6.872
 3884WAT     H111894   7.730   7.346   6.916
 3884WAT     H211895   7.687   7.501   6.942
 3885WAT      O11896   9.078   2.268   1.743
 3885WAT     H111897   9.108   2.179   1.712
 3885WAT     H211898   9.047   2.262   1.839
 3886WAT      O11899   3.595   8.091   7.673
 3886WAT     H111900   3.606   8.145   7.589
 3886WAT     H211901   3.658   8.124   7.743
 3887WAT      O11902   6.881   0.863   1.204
 3887WAT     H111903   6.805   0.913   1.162
 3887WAT     H211904   6.959   0.862   1.142
 3888WAT      O11905   6.978   9.611   6.330
 3888WAT     H111906   7.047   9.546   6.363
 3888WAT     H211907   6.997   9.633   6.234
 3889WAT      O11908   6.546   6.828   2.397
 3889WAT     H111909   6.516   6.824   2.492
 3889WAT     H211910   6.505   6.753   2.346
 3890WAT      O11911   9.227   4.865   1.590
 3890WAT     H111912   9.292   4.901   1.523
 3890WAT     H211913   9.134   4.893   1.565
 3891WAT      O11914   0.676   4.274   9.738
 3891WAT     H111915   0.702   4.223   9.820
 3891WAT     H211916   0.601   4.336   9.760
 3892WAT      O11917   7.357   3.069   4.209
 3892WAT     H111918   7.438   3.105   4.165
 3892WAT     H211919   7.368   3.074   4.308
 3893WAT      O11920   7.502   3.874   8.357
 3893WAT     H111921   7.477   3.809   8.285
 3893WAT     H211922   7.444   3.860   8.437
 3894WAT      O11923   1.120   2.066   6.390
 3894WAT     H111924   1.045   2.010   6.357
 3894WAT     H211925   1.204   2.011   6.395
 3895WAT      O11926   1.528   1.163   3.724
 3895WAT     H111927   1.460   1.219   3.770
 3895WAT     H211928   1.491   1.072   3.706
 3896WAT      O11929   2.371   9.146   8.876
 3896WAT     H111930   2.378   9.137   8.777
 3896WAT     H211931   2.278   9.172   8.901
 3897WAT      O11932   2.954   6.533   4.571
 3897WAT     H111933   2.934   6.519   4.668
 3897WAT     H211934   3.044   6.575   4.561
 3898WAT      O11935   2.298   5.713   7.168
 3898WAT     H111936   2.339   5.782   7.227
 3898WAT     H211937   2.203   5.739   7.147
 3899WAT      O11938   5.616   6.261   1.215
 3899WAT     H111939   5.710   6.227   1.214
 3899WAT     H211940   5.601   6.322   1.137
 3900WAT      O11941   2.842   4.250   4.946
 3900WAT     H111942   2.842   4.306   5.029
 3900WAT     H211943   2.933   4.211   4.932
 3901WAT      O11944   7.111   8.891   8.442
 3901WAT     H111945   7.127   8.839   8.525
 3901WAT     H211946   7.095   8.829   8.366
 3902WAT      O11947   9.415   0.276   5.662
 3902WAT     H111948   9.394   0.372   5.677
 3902WAT     H211949   9.458   0.238   5.743
 3903WAT      O11950   5.950   6.240   1.260
 3903WAT     H111951   5.911   6.156   1.296
 3903WAT     H211952   5.956   6.234   1.160
 3904WAT      O11953   8.597   0.728   9.029
 3904WAT     H111954   8.590   0.736   9.129
 3904WAT     H211955   8.688   0.758   9.000
 3905WAT      O11956   3.071   1.493   0.454
 3905WAT     H111957   3.111   1.470   0.542
 3905WAT     H211958   3.009   1.571   0.465
 3906WAT      O11959   2.908   3.398   3.784
 3906WAT     H111960   2.826   3.349   3.813
 3906WAT     H211961   2.961   3.341   3.722
 3907WAT      O11962   0.032   1.736   3.666
 3907WAT     H111963  -0.008   1.653   3.628
 3907WAT     H211964   0.012   1.813   3.606
 3908WAT      O11965   4.422   7.421   8.749
 3908WAT     H111966   4.449   7.343   8.693
 3908WAT     H211967   4.423   7.394   8.845
 3909WAT      O11968   2.644   9.580   1.145
 3909WAT     H111969   2.729   9.633   1.145
 3909WAT     H211970   2.664   9.483   1.131
 3910WAT      O11971   9.791   7.514   0.270
 3910WAT     H111972   9.861   7.445   0.249
 3910WAT     H211973   9.718   7.471   0.323
 3911WAT      O11974   0.943   1.672   4.031
 3911WAT     H111975   1.008   1.638   3.963
 3911WAT     H211976   0.993   1.719   4.104
 3912WAT      O11977   7.971   5.735   5.363
 3912WAT     H111978   8.005   5.829   5.368
 3912WAT     H211979   7.877   5.732   5.395
 3913WAT      O11980   6.983   2.179   5.466
 3913WAT     H111981   7.057   2.112   5.460
 3913WAT     H211982   6.895   2.132   5.464
 3914WAT      O11983   7.759   9.230   5.706
 3914WAT     H111984   7.856   9.252   5.711
 3914WAT     H211985   7.739   9.182   5.621
 3915WAT      O11986   4.413   7.199   7.465
 3915WAT     H111987   4.467   7.125   7.506
 3915WAT     H211988   4.384   7.171   7.373
 3916WAT      O11989   1.256   1.005   1.386
 3916WAT     H111990   1.267   1.032   1.482
 3916WAT     H211991   1.341   0.964   1.353
 3917WAT      O11992   1.287   2.080   7.778
 3917WAT     H111993   1.307   2.088   7.681
 3917WAT     H211994   1.366   2.110   7.831
 3918WAT      O11995   8.679   7.279   4.471
 3918WAT     H111996   8.770   7.286   4.431
 3918WAT     H211997   8.625   7.212   4.419
 3919WAT      O11998   6.992   6.255   6.134
 3919WAT     H111999   6.896   6.278   6.126
 3919WAT     H212000   7.041   6.286   6.052
 3920WAT      O12001   0.338   9.523   9.875
 3920WAT     H112002   0.308   9.602   9.929
 3920WAT     H212003   0.418   9.549   9.820
 3921WAT      O12004   0.628   1.099   3.506
 3921WAT     H112005   0.583   1.187   3.523
 3921WAT     H212006   0.685   1.074   3.583
 3922WAT      O12007   1.962   1.926   5.980
 3922WAT     H112008   1.896   1.906   6.052
 3922WAT     H212009   1.940   1.871   5.899
 3923WAT      O12010   6.469   8.317   9.261
 3923WAT     H112011   6.451   8.415   9.255
 3923WAT     H212012   6.397   8.273   9.314
 3924WAT      O12013   7.201   4.741   5.064
 3924WAT     H112014   7.289   4.713   5.026
 3924WAT     H212015   7.215   4.819   5.126
 3925WAT      O12016   3.009   6.778   8.818
 3925WAT     H112017   2.977   6.781   8.723
 3925WAT     H212018   2.999   6.686   8.854
 3926WAT      O12019   4.554   8.629   0.225
 3926WAT     H112020   4.492   8.594   0.155
 3926WAT     H212021   4.639   8.577   0.223
 3927WAT      O12022   4.892   9.769   2.937
 3927WAT     H112023   4.873   9.858   2.896
 3927WAT     H212024   4.826   9.752   3.010
 3928WAT      O12025   8.638   7.378   2.918
 3928WAT     H112026   8.737   7.377   2.904
 3928WAT     H212027   8.603   7.284   2.914
 3929WAT      O12028   5.848   8.442   7.479
 3929WAT     H112029   5.869   8.538   7.495
 3929WAT     H212030   5.794   8.432   7.396
 3930WAT      O12031   4.379   2.972   2.393
 3930WAT     H112032   4.434   2.942   2.314
 3930WAT     H212033   4.390   2.907   2.468
 3931WAT      O12034   1.097   7.877   8.740
 3931WAT     H112035   1.076   7.967   8.702
 3931WAT     H212036   1.090   7.880   8.839
 3932WAT      O12037   5.913   0.184   9.616
 3932WAT     H112038   5.998   0.184   9.668
 3932WAT     H212039   5.858   0.264   9.642
 3933WAT      O12040   4.411   6.738   7.632
 3933WAT     H112041   4.401   6.660   7.569
 3933WAT     H212042   4.325   6.751   7.682
 3934WAT      O12043   0.744   3.522   2.309
 3934WAT     H112044   0.654   3.553   2.278
 3934WAT     H212045   0.814   3.584   2.273
 3935WAT      O12046   4.649   5.469   1.509
 3935WAT     H112047   4.740   5.434   1.486
 3935WAT     H212048   4.654   5.517   1.597
 3936WAT      O12049   1.964   2.827   1.991
 3936WAT     H112050   2.053   2.786   1.970
 3936WAT     H212051   1.974   2.926   1.997
 3937WAT      O12052   7.244   7.821   7.609
 3937WAT     H112053   7.188   7.863   7.538
 3937WAT     H212054   7.253   7.723   7.591
 3938WAT      O12055   6.672   0.978   4.996
 3938WAT     H112056   6.574   0.997   4.998
 3938WAT     H212057   6.709   0.980   5.090
 3939WAT      O12058   6.104   3.307   5.869
 3939WAT     H112059   6.071   3.314   5.963
 3939WAT     H212060   6.119   3.399   5.832
 3940WAT      O12061   6.206   4.630   0.597
 3940WAT     H112062   6.299   4.597   0.611
 3940WAT     H212063   6.148   4.600   0.673
 3941WAT      O12064   4.287   7.493   4.262
 3941WAT     H112065   4.192   7.465   4.276
 3941WAT     H212066   4.294   7.543   4.175
 3942WAT      O12067   1.553   5.075   3.610
 3942WAT     H112068   1.519   5.009   3.543
 3942WAT     H212069   1.619   5.029   3.670
 3943WAT      O12070   0.396   7.227   8.900
 3943WAT     H112071   0.434   7.288   8.830
 3943WAT     H212072   0.457   7.227   8.980
 3944WAT      O12073   0.787   1.154   8.111
 3944WAT     H112074   0.754   1.206   8.190
 3944WAT     H212075   0.885   1.140   8.119
 3945WAT      O12076   1.559   2.852   5.864
 3945WAT     H112077   1.516   2.935   5.829
 3945WAT     H212078   1.551   2.779   5.795
 3946WAT      O12079   0.484   4.468   9.147
 3946WAT     H112080   0.504   4.539   9.215
 3946WAT     H212081   0.446   4.511   9.065
 3947WAT      O12082   3.589   7.046   9.691
 3947WAT     H112083   3.525   6.998   9.752
 3947WAT     H212084   3.655   7.097   9.746
 3948WAT      O12085   1.224   0.808   0.749
 3948WAT     H112086   1.234   0.791   0.848
 3948WAT     H212087   1.128   0.805   0.724
 3949WAT      O12088   0.791   5.579   8.744
 3949WAT     H112089   0.774   5.665   8.695
 3949WAT     H212090   0.784   5.596   8.843
 3950WAT      O12091   3.962   2.706   2.596
 3950WAT     H112092   3.900   2.784   2.603
 3950WAT     H212093   3.971   2.679   2.500
 3951WAT      O12094   9.334   8.492   0.514
 3951WAT     H112095   9.254   8.537   0.556
 3951WAT     H212096   9.401   8.561   0.489
 3952WAT      O12097   9.584   9.598   5.613
 3952WAT     H112098   9.669   9.566   5.571
 3952WAT     H212099   9.600   9.618   5.710
 3953WAT      O12100   0.684   1.021   4.080
 3953WAT     H112101   0.696   1.112   4.040
 3953WAT     H212102   0.695   0.952   4.009
 3954WAT      O12103   2.816   7.278   7.806
 3954WAT     H112104   2.758   7.197   7.811
 3954WAT     H212105   2.903   7.260   7.853
 3955WAT      O12106   5.925   9.119   0.633
 3955WAT     H112107   5.883   9.041   0.681
 3955WAT     H212108   5.884   9.129   0.543
 3956WAT      O12109   3.425   2.118   4.836
 3956WAT     H112110   3.492   2.164   4.777
 3956WAT     H212111   3.445   2.140   4.932
 3957WAT      O12112   8.747   1.756   9.119
 3957WAT     H112113   8.752   1.814   9.201
 3957WAT     H212114   8.783   1.665   9.141
 3958WAT      O12115   7.844   7.679   3.159
 3958WAT     H112116   7.869   7.753   3.096
 3958WAT     H212117   7.865   7.706   3.252
 3959WAT      O12118   3.956   9.638   2.936
 3959WAT     H112119   3.902   9.670   3.014
 3959WAT     H212120   3.921   9.549   2.906
 3960WAT      O12121   0.963   3.811   4.161
 3960WAT     H112122   1.013   3.724   4.171
 3960WAT     H212123   0.921   3.815   4.071
 3961WAT      O12124   7.198   3.314   3.689
 3961WAT     H112125   7.133   3.385   3.661
 3961WAT     H212126   7.282   3.357   3.722
 3962WAT      O12127   9.532   9.447   7.489
 3962WAT     H112128   9.503   9.379   7.556
 3962WAT     H212129   9.631   9.462   7.498
 3963WAT      O12130   5.344   9.000   6.800
 3963WAT     H112131   5.398   9.046   6.729
 3963WAT     H212132   5.273   9.063   6.833
 3964WAT      O12133   9.608   4.454   2.740
 3964WAT     H112134   9.578   4.547   2.758
 3964WAT     H212135   9.707   4.447   2.753
 3965WAT      O12136   5.822   6.220   0.337
 3965WAT     H112137   5.745   6.185   0.391
 3965WAT     H212138   5.822   6.174   0.247
 3966WAT      O12139   3.388   9.844   3.438
 3966WAT     H112140   3.329   9.808   3.366
 3966WAT     H212141   3.455   9.775   3.464
 3967WAT      O12142   0.643   1.504   9.025
 3967WAT     H112143   0.581   1.566   8.977
 3967WAT     H212144   0.626   1.510   9.123
 3968WAT      O12145   3.086   5.477   0.896
 3968WAT     H112146   3.071   5.379   0.884
 3968WAT     H212147   2.999   5.526   0.883
 3969WAT      O12148   8.782   3.819   4.358
 3969WAT     H112149   8.718   3.756   4.313
 3969WAT     H212150   8.853   3.847   4.293
 3970WAT      O12151   6.353   2.612   3.340
 3970WAT     H112152   6.315   2.531   3.297
 3970WAT     H212153   6.308   2.629   3.428
 3971WAT      O12154   5.392   3.585   0.747
 3971WAT     H112155   5.300   3.553   0.723
 3971WAT     H212156   5.445   3.601   0.664
 3972WAT      O12157   5.479   3.870   2.874
 3972WAT     H112158   5.420   3.938   2.918
 3972WAT     H212159   5.527   3.912   2.797
 3973WAT      O12160   5.187   2.091   3.051
 3973WAT     H112161   5.243   2.117   2.972
 3973WAT     H212162   5.196   2.160   3.123
 3974WAT      O12163   8.032   9.476   5.902
 3974WAT     H112164   8.034   9.573   5.878
 3974WAT     H212165   8.094   9.459   5.979
 3975WAT      O12166   5.720   8.559   5.672
 3975WAT     H112167   5.815   8.588   5.665
 3975WAT     H212168   5.695   8.551   5.768
 3976WAT      O12169   5.649   5.621   9.659
 3976WAT     H112170   5.577   5.641   9.593
 3976WAT     H212171   5.738   5.636   9.616
 3977WAT      O12172   8.833   4.201   4.486
 3977WAT     H112173   8.763   4.177   4.553
 3977WAT     H212174   8.872   4.290   4.509
 3978WAT      O12175   9.389   6.735   1.937
 3978WAT     H112176   9.390   6.635   1.945
 3978WAT     H212177   9.436   6.762   1.854
 3979WAT      O12178   1.559   3.749   1.525
 3979WAT     H112179   1.519   3.813   1.459
 3979WAT     H212180   1.656   3.736   1.505
 3980WAT      O12181   8.246   4.675   5.133
 3980WAT     H112182   8.340   4.650   5.112
 3980WAT     H212183   8.188   4.593   5.129
 3981WAT      O12184   3.077   1.709   1.501
 3981WAT     H112185   3.101   1.798   1.540
 3981WAT     H212186   3.126   1.696   1.414
 3982WAT      O12187   5.516   6.214   9.736
 3982WAT     H112188   5.575   6.261   9.670
 3982WAT     H212189   5.498   6.275   9.813
 3983WAT      O12190   0.069   5.146   9.790
 3983WAT     H112191   0.152   5.090   9.783
 3983WAT     H212192   0.071   5.217   9.719
 3984WAT      O12193   8.936   8.306   4.689
 3984WAT     H112194   9.013   8.362   4.657
 3984WAT     H212195   8.955   8.210   4.668
 3985WAT      O12196   9.017   7.785   7.645
 3985WAT     H112197   9.076   7.726   7.700
 3985WAT     H212198   8.922   7.776   7.677
 3986WAT      O12199   8.567   9.132   6.270
 3986WAT     H112200   8.643   9.139   6.334
 3986WAT     H212201   8.593   9.072   6.194
 3987WAT      O12202   3.987   9.391   5.446
 3987WAT     H112203   4.033   9.446   5.376
 3987WAT     H212204   4.055   9.352   5.508
 3988WAT      O12205   4.271   0.693   7.109
 3988WAT     H112206   4.238   0.642   7.188
 3988WAT     H212207   4.197   0.700   7.041
 3989WAT      O12208   5.343   8.882   1.654
 3989WAT     H112209   5.317   8.799   1.703
 3989WAT     H212210   5.347   8.959   1.718
 3990WAT      O12211   5.576   7.697   7.834
 3990WAT     H112212   5.639   7.627   7.868
 3990WAT     H212213   5.511   7.656   7.771
 3991WAT      O12214   3.299   5.844   7.060
 3991WAT     H112215   3.252   5.898   7.130
 3991WAT     H212216   3.346   5.767   7.103
 3992WAT      O12217   6.897   8.910   8.817
 3992WAT     H112218   6.869   8.894   8.912
 3992WAT     H212219   6.884   9.007   8.795
 3993WAT      O12220   9.484   0.512   1.931
 3993WAT     H112221   9.407   0.573   1.912
 3993WAT     H212222   9.509   0.462   1.848
 3994WAT      O12223   9.779   6.412   4.778
 3994WAT     H112224   9.756   6.316   4.762
 3994WAT     H212225   9.695   6.465   4.788
 3995WAT      O12226   4.307   8.859   9.022
 3995WAT     H112227   4.261   8.948   9.028
 3995WAT     H212228   4.337   8.843   8.928
 3996WAT      O12229   7.216   2.709   0.722
 3996WAT     H112230   7.221   2.792   0.666
 3996WAT     H212231   7.308   2.672   0.734
 3997WAT      O12232   9.740   4.746   7.761
 3997WAT     H112233   9.770   4.702   7.677
 3997WAT     H212234   9.652   4.707   7.789
 3998WAT      O12235   8.091   2.708   4.030
 3998WAT     H112236   8.052   2.648   3.961
 3998WAT     H212237   8.022   2.775   4.058
 3999WAT      O12238   2.659   7.957   7.057
 3999WAT     H112239   2.649   8.043   7.106
 3999WAT     H212240   2.636   7.971   6.960
 4000WAT      O12241   1.464   1.130   0.219
 4000WAT     H112242   1.517   1.087   0.147
 4000WAT     H212243   1.415   1.209   0.182
 4001WAT      O12244   7.590   4.831   0.630
 4001WAT     H112245   7.685   4.812   0.654
 4001WAT     H212246   7.587   4.890   0.549
 4002WAT      O12247   4.112   2.322   2.708
 4002WAT     H112248   4.049   2.383   2.756
 4002WAT     H212249   4.161   2.374   2.638
 4003WAT      O12250   3.897   3.248   9.624
 4003WAT     H112251   3.854   3.178   9.682
 4003WAT     H212252   3.846   3.257   9.539
 4004WAT      O12253   2.911   7.002   1.046
 4004WAT     H112254   2.903   6.952   1.133
 4004WAT     H212255   2.928   6.938   0.972
 4005WAT      O12256   7.802   1.660   4.517
 4005WAT     H112257   7.869   1.592   4.548
 4005WAT     H212258   7.716   1.647   4.565
 4006WAT      O12259   8.141   5.837   6.326
 4006WAT     H112260   8.055   5.850   6.376
 4006WAT     H212261   8.124   5.781   6.245
 4007WAT      O12262   7.378   7.425   5.368
 4007WAT     H112263   7.473   7.402   5.388
 4007WAT     H212264   7.362   7.420   5.270
 4008WAT      O12265   9.582   6.890   8.583
 4008WAT     H112266   9.663   6.895   8.525
 4008WAT     H212267   9.530   6.974   8.575
 4009WAT      O12268   6.752   6.648   5.745
 4009WAT     H112269   6.756   6.600   5.833
 4009WAT     H212270   6.832   6.707   5.736
 4010WAT      O12271   0.872   3.098   5.565
 4010WAT     H112272   0.794   3.057   5.518
 4010WAT     H212273   0.924   3.026   5.611
 4011WAT      O12274   0.819   7.684   0.450
 4011WAT     H112275   0.742   7.747   0.465
 4011WAT     H212276   0.846   7.687   0.354
 4012WAT      O12277   4.124   9.542   0.858
 4012WAT     H112278   4.035   9.552   0.902
 4012WAT     H212279   4.151   9.446   0.861
 4013WAT      O12280   6.780   8.862   9.056
 4013WAT     H112281   6.820   8.891   9.144
 4013WAT     H212282   6.704   8.922   9.032
 4014WAT      O12283   7.549   2.830   6.781
 4014WAT     H112284   7.604   2.862   6.858
 4014WAT     H212285   7.608   2.784   6.715
 4015WAT      O12286   6.951   2.290   7.092
 4015WAT     H112287   6.993   2.248   7.012
 4015WAT     H212288   6.960   2.390   7.086
 4016WAT      O12289   0.040   6.031   7.789
 4016WAT     H112290  -0.030   6.036   7.861
 4016WAT     H212291   0.127   6.003   7.829
 4017WAT      O12292   6.302   3.595   3.797
 4017WAT     H112293   6.347   3.563   3.714
 4017WAT     H212294   6.347   3.554   3.877
 4018WAT      O12295   3.774   7.536   2.929
 4018WAT     H112296   3.753   7.619   2.878
 4018WAT     H212297   3.733   7.457   2.884
 4019WAT      O12298   8.418   9.212   0.578
 4019WAT     H112299   8.465   9.182   0.495
 4019WAT     H212300   8.322   9.186   0.573
 4020WAT      O12301   9.268   1.194   0.103
 4020WAT     H112302   9.316   1.266   0.152
 4020WAT     H212303   9.320   1.169   0.021
 4021WAT      O12304   1.477   9.394   1.670
 4021WAT     H112305   1.472   9.488   1.703
 4021WAT     H212306   1.566   9.380   1.626
 4022WAT      O12307   7.658   1.626   9.432
 4022WAT     H112308   7.640   1.532   9.403
 4022WAT     H212309   7.749   1.654   9.401
 4023WAT      O12310   4.821   6.971   5.410
 4023WAT     H112311   4.744   6.908   5.402
 4023WAT     H212312   4.809   7.047   5.347
 4024WAT      O12313   6.917   2.665   5.396
 4024WAT     H112314   6.919   2.755   5.351
 4024WAT     H212315   6.843   2.611   5.356
 4025WAT      O12316   6.757   2.385   3.295
 4025WAT     H112317   6.817   2.398   3.216
 4025WAT     H212318   6.732   2.474   3.333
 4026WAT      O12319   9.645   0.897   4.560
 4026WAT     H112320   9.606   0.911   4.651
 4026WAT     H212321   9.694   0.810   4.558
 4027WAT      O12322   3.439   5.289   4.651
 4027WAT     H112323   3.416   5.249   4.740
 4027WAT     H212324   3.360   5.336   4.613
 4028WAT      O12325   6.349   7.402   7.785
 4028WAT     H112326   6.272   7.418   7.847
 4028WAT     H212327   6.431   7.446   7.822
 4029WAT      O12328   9.592   3.705   0.306
 4029WAT     H112329   9.564   3.609   0.310
 4029WAT     H212330   9.691   3.710   0.293
 4030WAT      O12331   5.362   6.277   9.291
 4030WAT     H112332   5.442   6.287   9.232
 4030WAT     H212333   5.282   6.258   9.235
 4031WAT      O12334   1.786   0.340   8.821
 4031WAT     H112335   1.738   0.417   8.780
 4031WAT     H212336   1.866   0.373   8.872
 4032WAT      O12337   2.600   7.936   6.744
 4032WAT     H112338   2.653   8.019   6.761
 4032WAT     H212339   2.663   7.859   6.730
 4033WAT      O12340   0.008   5.080   7.023
 4033WAT     H112341  -0.046   4.999   7.002
 4033WAT     H212342   0.103   5.054   7.040
 4034WAT      O12343   7.128   3.314   7.646
 4034WAT     H112344   7.167   3.278   7.562
 4034WAT     H212345   7.137   3.247   7.719
 4035WAT      O12346   6.545   2.822   6.258
 4035WAT     H112347   6.493   2.755   6.310
 4035WAT     H212348   6.497   2.909   6.257
 4036WAT      O12349   7.022   4.293   5.709
 4036WAT     H112350   7.061   4.349   5.782
 4036WAT     H212351   7.001   4.202   5.744
 4037WAT      O12352   3.986   7.234   1.323
 4037WAT     H112353   4.057   7.165   1.311
 4037WAT     H212354   4.027   7.317   1.363
 4038WAT      O12355   5.661   2.394   4.393
 4038WAT     H112356   5.681   2.480   4.345
 4038WAT     H212357   5.581   2.407   4.451
 4039WAT      O12358   4.208   7.484   1.133
 4039WAT     H112359   4.155   7.500   1.216
 4039WAT     H212360   4.281   7.418   1.152
 4040WAT      O12361   5.394   8.835   7.821
 4040WAT     H112362   5.461   8.761   7.812
 4040WAT     H212363   5.391   8.866   7.916
 4041WAT      O12364   3.180   8.830   1.150
 4041WAT     H112365   3.182   8.807   1.053
 4041WAT     H212366   3.243   8.771   1.200
 4042WAT      O12367   8.161   1.190   2.066
 4042WAT     H112368   8.171   1.148   2.156
 4042WAT     H212369   8.251   1.211   2.028
 4043WAT      O12370   4.700   3.826   5.746
 4043WAT     H112371   4.622   3.829   5.683
 4043WAT     H212372   4.783   3.855   5.698
 4044WAT      O12373   1.581   4.041   9.876
 4044WAT     H112374   1.617   4.126   9.914
 4044WAT     H212375   1.595   3.966   9.940
 4045WAT      O12376   8.900   3.439   5.516
 4045WAT     H112377   8.991   3.413   5.548
 4045WAT     H212378   8.831   3.385   5.564
 4046WAT      O12379   5.073   8.682   8.683
 4046WAT     H112380   5.105   8.616   8.751
 4046WAT     H212381   5.026   8.756   8.730
 4047WAT      O12382   4.279   6.650   5.050
 4047WAT     H112383   4.243   6.602   5.130
 4047WAT     H212384   4.237   6.740   5.043
 4048WAT      O12385   8.728   7.072   0.944
 4048WAT     H112386   8.662   7.017   0.996
 4048WAT     H212387   8.732   7.164   0.983
 4049WAT      O12388   2.722   0.972   3.763
 4049WAT     H112389   2.739   1.032   3.841
 4049WAT     H212390   2.808   0.935   3.729
 4050WAT      O12391   8.969   3.483   4.352
 4050WAT     H112392   8.979   3.505   4.255
 4050WAT     H212393   9.000   3.390   4.369
 4051WAT      O12394   3.596   7.817   2.106
 4051WAT     H112395   3.501   7.842   2.086
 4051WAT     H212396   3.603   7.785   2.201
 4052WAT      O12397   7.509   4.956   7.839
 4052WAT     H112398   7.544   4.875   7.793
 4052WAT     H212399   7.454   4.929   7.918
 4053WAT      O12400   7.308   2.505   3.619
 4053WAT     H112401   7.369   2.545   3.688
 4053WAT     H212402   7.225   2.561   3.612
 4054WAT      O12403   8.499   5.009   8.875
 4054WAT     H112404   8.590   4.973   8.897
 4054WAT     H212405   8.493   5.026   8.776
 4055WAT      O12406   3.159   2.087   4.848
 4055WAT     H112407   3.151   2.021   4.923
 4055WAT     H212408   3.256   2.101   4.827
 4056WAT      O12409   5.366   5.167   7.629
 4056WAT     H112410   5.326   5.157   7.538
 4056WAT     H212411   5.465   5.160   7.623
 4057WAT      O12412   0.141   9.820   3.793
 4057WAT     H112413   0.052   9.782   3.817
 4057WAT     H212414   0.130   9.887   3.719
 4058WAT      O12415   2.119   4.129   7.863
 4058WAT     H112416   2.168   4.041   7.864
 4058WAT     H212417   2.108   4.163   7.956
 4059WAT      O12418   6.896   7.466   6.036
 4059WAT     H112419   6.839   7.522   5.977
 4059WAT     H212420   6.894   7.371   6.005
 4060WAT      O12421   3.000   4.473   6.636
 4060WAT     H112422   3.062   4.520   6.699
 4060WAT     H212423   2.997   4.522   6.549
 4061WAT      O12424   2.563   5.261   6.395
 4061WAT     H112425   2.562   5.348   6.345
 4061WAT     H212426   2.575   5.186   6.331
 4062WAT      O12427   8.462   7.701   8.130
 4062WAT     H112428   8.467   7.744   8.220
 4062WAT     H212429   8.409   7.759   8.068
 4063WAT      O12430   8.272   9.244   7.541
 4063WAT     H112431   8.252   9.147   7.524
 4063WAT     H212432   8.363   9.252   7.581
 4064WAT      O12433   1.441   6.082   4.206
 4064WAT     H112434   1.434   6.133   4.291
 4064WAT     H212435   1.375   6.119   4.140
 4065WAT      O12436   1.472   5.495   7.416
 4065WAT     H112437   1.401   5.463   7.479
 4065WAT     H212438   1.470   5.439   7.333
 4066WAT      O12439   0.095   5.056   7.381
 4066WAT     H112440   0.025   5.108   7.331
 4066WAT     H212441   0.074   4.958   7.374
 4067WAT      O12442   7.114   4.178   8.002
 4067WAT     H112443   7.073   4.207   8.088
 4067WAT     H212444   7.058   4.211   7.926
 4068WAT      O12445   4.207   0.015   9.296
 4068WAT     H112446   4.286   0.077   9.297
 4068WAT     H212447   4.239  -0.078   9.282
 4069WAT      O12448   0.306   2.645   7.909
 4069WAT     H112449   0.206   2.639   7.917
 4069WAT     H212450   0.341   2.559   7.871
 4070WAT      O12451   6.836   0.491   3.697
 4070WAT     H112452   6.822   0.518   3.792
 4070WAT     H212453   6.885   0.563   3.648
 4071WAT      O12454   2.170   8.880   9.672
 4071WAT     H112455   2.157   8.958   9.612
 4071WAT     H212456   2.249   8.826   9.642
 4072WAT      O12457   6.011   6.622   9.860
 4072WAT     H112458   5.919   6.596   9.890
 4072WAT     H212459   6.077   6.554   9.892
 4073WAT      O12460   4.625   2.688   1.456
 4073WAT     H112461   4.650   2.594   1.435
 4073WAT     H212462   4.541   2.712   1.407
 4074WAT      O12463   2.535   8.741   2.572
 4074WAT     H112464   2.603   8.668   2.565
 4074WAT     H212465   2.454   8.707   2.619
 4075WAT      O12466   3.342   4.638   3.202
 4075WAT     H112467   3.335   4.648   3.103
 4075WAT     H212468   3.258   4.673   3.244
 4076WAT      O12469   0.632   7.543   3.646
 4076WAT     H112470   0.586   7.546   3.557
 4076WAT     H212471   0.726   7.513   3.634
 4077WAT      O12472   3.632   4.855   5.972
 4077WAT     H112473   3.658   4.838   5.877
 4077WAT     H212474   3.668   4.781   6.029
 4078WAT      O12475   1.362   0.133   7.582
 4078WAT     H112476   1.395   0.102   7.672
 4078WAT     H212477   1.262   0.133   7.581
 4079WAT      O12478   4.303   2.229   0.484
 4079WAT     H112479   4.364   2.265   0.414
 4079WAT     H212480   4.356   2.207   0.566
 4080WAT      O12481   7.994   7.033   2.094
 4080WAT     H112482   7.985   6.934   2.103
 4080WAT     H212483   7.906   7.072   2.066
 4081WAT      O12484   3.040   1.212   9.721
 4081WAT     H112485   2.953   1.182   9.760
 4081WAT     H212486   3.054   1.167   9.633
 4082WAT      O12487   3.998   3.733   2.988
 4082WAT     H112488   4.080   3.790   2.991
 4082WAT     H212489   4.012   3.657   2.924
 4083WAT      O12490   2.336   0.632   4.332
 4083WAT     H112491   2.302   0.725   4.343
 4083WAT     H212492   2.261   0.567   4.347
 4084WAT      O12493   0.057   0.249   9.781
 4084WAT     H112494   0.084   0.198   9.699
 4084WAT     H212495   0.123   0.323   9.797
 4085WAT      O12496   4.242   0.452   8.366
 4085WAT     H112497   4.261   0.438   8.463
 4085WAT     H212498   4.236   0.363   8.320
 4086WAT      O12499   3.730   8.219   3.282
 4086WAT     H112500   3.729   8.303   3.228
 4086WAT     H212501   3.637   8.191   3.302
 4087WAT      O12502   9.861   8.358   8.342
 4087WAT     H112503   9.904   8.347   8.252
 4087WAT     H212504   9.762   8.349   8.332
 4088WAT      O12505   3.610   2.830   0.347
 4088WAT     H112506   3.543   2.759   0.328
 4088WAT     H212507   3.689   2.820   0.285
 4089WAT      O12508   6.787   5.992   0.451
 4089WAT     H112509   6.703   5.961   0.495
 4089WAT     H212510   6.770   6.080   0.406
 4090WAT      O12511   0.874   2.540   3.427
 4090WAT     H112512   0.795   2.539   3.365
 4090WAT     H212513   0.938   2.468   3.400
 4091WAT      O12514   3.338   3.311   5.191
 4091WAT     H112515   3.282   3.282   5.113
 4091WAT     H212516   3.295   3.283   5.276
 4092WAT      O12517   7.151   7.677   4.961
 4092WAT     H112518   7.193   7.652   4.873
 4092WAT     H212519   7.053   7.688   4.949
 4093WAT      O12520   4.063   7.915   9.158
 4093WAT     H112521   4.061   7.836   9.096
 4093WAT     H212522   4.100   7.887   9.247
 4094WAT      O12523   2.618   8.337   6.947
 4094WAT     H112524   2.538   8.323   6.888
 4094WAT     H212525   2.695   8.368   6.892
 4095WAT      O12526   8.782   4.792   3.813
 4095WAT     H112527   8.847   4.796   3.738
 4095WAT     H212528   8.762   4.885   3.845
 4096WAT      O12529   3.745   4.467   4.667
 4096WAT     H112530   3.827   4.522   4.652
 4096WAT     H212531   3.762   4.399   4.738
 4097WAT      O12532   1.982   5.982   6.995
 4097WAT     H112533   2.054   6.029   6.946
 4097WAT     H212534   1.900   6.039   6.999
 4098WAT      O12535   7.446   1.717   6.765
 4098WAT     H112536   7.454   1.696   6.862
 4098WAT     H212537   7.512   1.661   6.713
 4099WAT      O12538   7.500   6.304   9.561
 4099WAT     H112539   7.443   6.243   9.616
 4099WAT     H212540   7.444   6.379   9.527
 4100WAT      O12541   6.563   5.366   6.879
 4100WAT     H112542   6.475   5.325   6.900
 4100WAT     H212543   6.567   5.459   6.915
 4101WAT      O12544   7.600   8.143   5.699
 4101WAT     H112545   7.665   8.109   5.767
 4101WAT     H212546   7.566   8.233   5.727
 4102WAT      O12547   9.376   9.621   6.142
 4102WAT     H112548   9.382   9.720   6.152
 4102WAT     H212549   9.380   9.578   6.232
 4103WAT      O12550   4.011   9.076   9.831
 4103WAT     H112551   3.922   9.088   9.788
 4103WAT     H212552   4.083   9.107   9.769
 4104WAT      O12553   3.407   6.757   8.897
 4104WAT     H112554   3.379   6.664   8.918
 4104WAT     H212555   3.445   6.800   8.980
 4105WAT      O12556   3.134   4.171   4.956
 4105WAT     H112557   3.193   4.177   5.037
 4105WAT     H212558   3.089   4.082   4.954
 4106WAT      O12559   7.957   8.548   6.630
 4106WAT     H112560   7.932   8.630   6.579
 4106WAT     H212561   7.919   8.468   6.583
 4107WAT      O12562   6.698   3.199   9.291
 4107WAT     H112563   6.724   3.191   9.195
 4107WAT     H212564   6.720   3.290   9.324
 4108WAT      O12565   9.522   7.884   5.218
 4108WAT     H112566   9.485   7.937   5.295
 4108WAT     H212567   9.466   7.803   5.203
 4109WAT      O12568   4.755   5.891   0.326
 4109WAT     H112569   4.694   5.831   0.378
 4109WAT     H212570   4.818   5.835   0.271
 4110WAT      O12571   7.885   3.634   6.846
 4110WAT     H112572   7.818   3.566   6.878
 4110WAT     H212573   7.977   3.598   6.857
 4111WAT      O12574   4.038   6.035   4.461
 4111WAT     H112575   4.047   6.010   4.557
 4111WAT     H212576   4.049   5.954   4.404
 4112WAT      O12577   0.789   5.349   5.384
 4112WAT     H112578   0.853   5.401   5.328
 4112WAT     H212579   0.809   5.365   5.481
 4113WAT      O12580   6.028   9.279   3.232
 4113WAT     H112581   6.012   9.180   3.231
 4113WAT     H212582   6.007   9.315   3.323
 4114WAT      O12583   3.979   5.217   1.343
 4114WAT     H112584   3.888   5.255   1.360
 4114WAT     H212585   4.047   5.290   1.349
 4115WAT      O12586   3.098   6.096   3.967
 4115WAT     H112587   3.161   6.046   4.026
 4115WAT     H212588   3.008   6.102   4.011
 4116WAT      O12589   5.001   1.406   7.190
 4116WAT     H112590   4.952   1.470   7.130
 4116WAT     H212591   5.011   1.318   7.144
 4117WAT      O12592   9.486   7.386   4.337
 4117WAT     H112593   9.445   7.301   4.306
 4117WAT     H212594   9.438   7.419   4.418
 4118WAT      O12595   3.972   6.404   3.901
 4118WAT     H112596   3.933   6.394   3.810
 4118WAT     H212597   3.970   6.316   3.949
 4119WAT      O12598   0.064   1.698   1.314
 4119WAT     H112599   0.064   1.623   1.247
 4119WAT     H212600   0.112   1.668   1.397
 4120WAT      O12601   1.451   1.253   5.370
 4120WAT     H112602   1.383   1.312   5.327
 4120WAT     H212603   1.489   1.299   5.450
 4121WAT      O12604   8.722   9.376   6.344
 4121WAT     H112605   8.755   9.309   6.411
 4121WAT     H212606   8.623   9.387   6.354
 4122WAT      O12607   1.386   0.257   8.913
 4122WAT     H112608   1.307   0.197   8.901
 4122WAT     H212609   1.373   0.341   8.861
 4123WAT      O12610   7.797   3.876   2.219
 4123WAT     H112611   7.897   3.874   2.207
 4123WAT     H212612   7.762   3.964   2.189
 4124WAT      O12613   0.426   8.602   8.914
 4124WAT     H112614   0.466   8.511   8.907
 4124WAT     H212615   0.498   8.671   8.903
 4125WAT      O12616   7.559   5.293   4.669
 4125WAT     H112617   7.513   5.355   4.733
 4125WAT     H212618   7.540   5.198   4.694
 4126WAT      O12619   9.843   8.910   7.802
 4126WAT     H112620   9.901   8.931   7.881
 4126WAT     H212621   9.854   8.814   7.777
 4127WAT      O12622   2.527   9.482   2.571
 4127WAT     H112623   2.529   9.521   2.663
 4127WAT     H212624   2.435   9.448   2.551
 4128WAT      O12625   6.082   3.531   4.253
 4128WAT     H112626   6.161   3.478   4.283
 4128WAT     H212627   6.097   3.562   4.159
 4129WAT      O12628   3.304   7.470   6.218
 4129WAT     H112629   3.298   7.411   6.299
 4129WAT     H212630   3.243   7.437   6.147
 4130WAT      O12631   6.639   1.547   1.587
 4130WAT     H112632   6.667   1.464   1.538
 4130WAT     H212633   6.698   1.561   1.666
 4131WAT      O12634   0.767   6.410   9.860
 4131WAT     H112635   0.843   6.373   9.913
 4131WAT     H212636   0.698   6.339   9.846
 4132WAT      O12637   4.125   2.328   9.515
 4132WAT     H112638   4.198   2.323   9.447
 4132WAT     H212639   4.159   2.379   9.595
 4133WAT      O12640   2.433   1.097   0.257
 4133WAT     H112641   2.438   1.185   0.304
 4133WAT     H212642   2.518   1.082   0.205
 4134WAT      O12643   4.735   0.116   3.307
 4134WAT     H112644   4.691   0.184   3.248
 4134WAT     H212645   4.751   0.032   3.255
 4135WAT      O12646   3.797   7.245   9.203
 4135WAT     H112647   3.780   7.152   9.171
 4135WAT     H212648   3.892   7.269   9.185
 4136WAT      O12649   4.156   1.688   3.617
 4136WAT     H112650   4.122   1.605   3.572
 4136WAT     H212651   4.240   1.665   3.668
 4137WAT      O12652   2.679   1.051   0.114
 4137WAT     H112653   2.689   0.987   0.190
 4137WAT     H212654   2.637   1.003   0.036
 4138WAT      O12655   9.438   8.067   0.513
 4138WAT     H112656   9.366   8.137   0.507
 4138WAT     H212657   9.396   7.976   0.509
 4139WAT      O12658   4.026   7.747   8.695
 4139WAT     H112659   4.071   7.661   8.670
 4139WAT     H212660   4.090   7.823   8.683
 4140WAT      O12661   8.888   6.509   1.372
 4140WAT     H112662   8.825   6.454   1.427
 4140WAT     H212663   8.926   6.583   1.427
 4141WAT      O12664   7.472   1.550   9.093
 4141WAT     H112665   7.404   1.611   9.134
 4141WAT     H212666   7.564   1.587   9.109
 4142WAT      O12667   1.466   9.375   8.905
 4142WAT     H112668   1.385   9.433   8.890
 4142WAT     H212669   1.447   9.283   8.873
 4143WAT      O12670   4.639   1.960   7.789
 4143WAT     H112671   4.656   2.002   7.878
 4143WAT     H212672   4.712   1.985   7.726
 4144WAT      O12673   7.702   1.438   6.916
 4144WAT     H112674   7.667   1.445   6.823
 4144WAT     H212675   7.674   1.351   6.956
 4145WAT      O12676   2.884   6.867   7.280
 4145WAT     H112677   2.880   6.961   7.316
 4145WAT     H212678   2.938   6.866   7.197
 4146WAT      O12679   5.587   0.579   3.340
 4146WAT     H112680   5.670   0.527   3.361
 4146WAT     H212681   5.607   0.677   3.341
 4147WAT      O12682   1.814   7.088   1.471
 4147WAT     H112683   1.817   7.123   1.565
 4147WAT     H212684   1.745   7.138   1.419
 4148WAT      O12685   7.653   4.527   2.394
 4148WAT     H112686   7.713   4.474   2.454
 4148WAT     H212687   7.702   4.547   2.309
 4149WAT      O12688   1.286   1.581   9.666
 4149WAT     H112689   1.351   1.619   9.732
 4149WAT     H212690   1.321   1.495   9.631
 4150WAT      O12691   1.922   1.116   9.089
 4150WAT     H112692   1.904   1.200   9.141
 4150WAT     H212693   2.020   1.105   9.076
 4151WAT      O12694   6.088   9.346   8.799
 4151WAT     H112695   6.034   9.349   8.714
 4151WAT     H212696   6.182   9.373   8.779
 4152WAT      O12697   4.077   2.074   0.494
 4152WAT     H112698   4.159   2.130   0.483
 4152WAT     H212699   4.044   2.044   0.404
 4153WAT      O12700   9.479   0.479   9.474
 4153WAT     H112701   9.509   0.552   9.536
 4153WAT     H212702   9.558   0.444   9.424
 4154WAT      O12703   2.854   1.915   1.109
 4154WAT     H112704   2.871   1.976   1.187
 4154WAT     H212705   2.757   1.913   1.088
 4155WAT      O12706   3.583   2.332   6.571
 4155WAT     H112707   3.484   2.328   6.583
 4155WAT     H212708   3.623   2.382   6.648
 4156WAT      O12709   8.938   2.327   1.982
 4156WAT     H112710   8.955   2.367   2.072
 4156WAT     H212711   8.898   2.396   1.922
 4157WAT      O12712   0.272   3.532   8.801
 4157WAT     H112713   0.292   3.484   8.716
 4157WAT     H212714   0.193   3.591   8.787
 4158WAT      O12715   8.917   3.436   9.275
 4158WAT     H112716   9.008   3.409   9.244
 4158WAT     H212717   8.914   3.535   9.289
 4159WAT      O12718   7.323   8.900   9.443
 4159WAT     H112719   7.349   8.914   9.539
 4159WAT     H212720   7.395   8.936   9.384
 4160WAT      O12721   6.318   7.765   8.089
 4160WAT     H112722   6.235   7.799   8.133
 4160WAT     H212723   6.302   7.755   7.991
 4161WAT      O12724   1.272   1.920   3.067
 4161WAT     H112725   1.243   1.903   2.972
 4161WAT     H212726   1.368   1.893   3.077
 4162WAT      O12727   4.736   0.995   8.017
 4162WAT     H112728   4.663   0.940   8.059
 4162WAT     H212729   4.795   0.935   7.963
 4163WAT      O12730   6.285   8.716   8.852
 4163WAT     H112731   6.286   8.799   8.909
 4163WAT     H212732   6.374   8.706   8.807
 4164WAT      O12733   8.156   8.972   3.808
 4164WAT     H112734   8.132   8.931   3.895
 4164WAT     H212735   8.094   9.048   3.788
 4165WAT      O12736   6.960   0.925   7.680
 4165WAT     H112737   7.029   0.877   7.735
 4165WAT     H212738   6.921   0.999   7.733
 4166WAT      O12739   1.761   5.596   5.462
 4166WAT     H112740   1.841   5.537   5.477
 4166WAT     H212741   1.770   5.678   5.518
 4167WAT      O12742   0.161   7.583   1.118
 4167WAT     H112743   0.243   7.585   1.061
 4167WAT     H212744   0.088   7.535   1.070
 4168WAT      O12745   1.791   2.622   2.618
 4168WAT     H112746   1.837   2.557   2.557
 4168WAT     H212747   1.702   2.586   2.644
 4169WAT      O12748   7.294   4.547   8.294
 4169WAT     H112749   7.254   4.566   8.383
 4169WAT     H212750   7.341   4.459   8.296
 4170WAT      O12751   2.541   6.955   7.562
 4170WAT     H112752   2.537   6.966   7.463
 4170WAT     H212753   2.472   7.013   7.605
 4171WAT      O12754   9.087   1.454   6.778
 4171WAT     H112755   9.157   1.438   6.848
 4171WAT     H212756   9.108   1.538   6.728
 4172WAT      O12757   2.764   4.287   8.939
 4172WAT     H112758   2.772   4.221   8.864
 4172WAT     H212759   2.751   4.237   9.025
 4173WAT      O12760   7.073   7.980   7.783
 4173WAT     H112761   7.058   8.072   7.746
 4173WAT     H212762   7.129   7.927   7.720
 4174WAT      O12763   0.870   9.299   4.540
 4174WAT     H112764   0.783   9.250   4.531
 4174WAT     H212765   0.885   9.356   4.460
 4175WAT      O12766   0.450   5.962   0.672
 4175WAT     H112767   0.521   6.004   0.615
 4175WAT     H212768   0.383   6.031   0.699
 4176WAT      O12769   3.903   6.382   6.934
 4176WAT     H112770   3.896   6.362   6.836
 4176WAT     H212771   3.990   6.348   6.969
 4177WAT      O12772   4.619   1.216   7.191
 4177WAT     H112773   4.595   1.234   7.095
 4177WAT     H212774   4.542   1.171   7.236
 4178WAT      O12775   7.042   7.762   4.636
 4178WAT     H112776   7.089   7.677   4.659
 4178WAT     H212777   6.967   7.778   4.700
 4179WAT      O12778   6.582   5.357   5.189
 4179WAT     H112779   6.647   5.406   5.247
 4179WAT     H212780   6.492   5.360   5.231
 4180WAT      O12781   1.502   9.197   9.518
 4180WAT     H112782   1.544   9.213   9.608
 4180WAT     H212783   1.533   9.267   9.455
 4181WAT      O12784   8.716   4.108   0.373
 4181WAT     H112785   8.674   4.150   0.453
 4181WAT     H212786   8.812   4.135   0.368
 4182WAT      O12787   0.827   5.230   3.116
 4182WAT     H112788   0.813   5.313   3.062
 4182WAT     H212789   0.925   5.214   3.129
 4183WAT      O12790   0.640   0.233   6.861
 4183WAT     H112791   0.589   0.275   6.936
 4183WAT     H212792   0.674   0.304   6.800
 4184WAT      O12793   3.765   4.853   8.133
 4184WAT     H112794   3.794   4.930   8.076
 4184WAT     H212795   3.843   4.816   8.184
 4185WAT      O12796   7.911   1.792   2.150
 4185WAT     H112797   7.871   1.715   2.200
 4185WAT     H212798   7.882   1.788   2.054
 4186WAT      O12799   0.893   0.583   7.259
 4186WAT     H112800   0.849   0.494   7.269
 4186WAT     H212801   0.940   0.607   7.343
 4187WAT      O12802   7.166   4.388   2.059
 4187WAT     H112803   7.103   4.313   2.040
 4187WAT     H212804   7.186   4.437   1.973
 4188WAT      O12805   4.347   5.488   2.349
 4188WAT     H112806   4.255   5.495   2.312
 4188WAT     H212807   4.387   5.580   2.357
 4189WAT      O12808   5.962   1.043   8.286
 4189WAT     H112809   5.970   0.951   8.324
 4189WAT     H212810   6.028   1.103   8.331
 4190WAT      O12811   9.246   9.444   1.135
 4190WAT     H112812   9.336   9.454   1.093
 4190WAT     H212813   9.191   9.525   1.116
 4191WAT      O12814   7.687   0.206   2.247
 4191WAT     H112815   7.778   0.239   2.271
 4191WAT     H212816   7.666   0.231   2.153
 4192WAT      O12817   0.101   6.707   2.144
 4192WAT     H112818   0.028   6.657   2.098
 4192WAT     H212819   0.184   6.702   2.089
 4193WAT      O12820   2.145   6.912   9.225
 4193WAT     H112821   2.129   7.000   9.179
 4193WAT     H212822   2.063   6.855   9.216
 4194WAT      O12823   5.195   4.098   8.966
 4194WAT     H112824   5.190   4.185   9.014
 4194WAT     H212825   5.188   4.113   8.867
 4195WAT      O12826   8.341   7.242   8.800
 4195WAT     H112827   8.300   7.313   8.743
 4195WAT     H212828   8.375   7.168   8.741
 4196WAT      O12829   7.727   9.300   8.357
 4196WAT     H112830   7.666   9.292   8.277
 4196WAT     H212831   7.729   9.213   8.405
 4197WAT      O12832   0.107   9.123   2.846
 4197WAT     H112833   0.074   9.074   2.765
 4197WAT     H212834   0.207   9.127   2.844
 4198WAT      O12835   7.051   5.159   1.029
 4198WAT     H112836   7.047   5.067   1.068
 4198WAT     H212837   7.011   5.157   0.937
 4199WAT      O12838   4.089   5.554   2.177
 4199WAT     H112839   4.171   5.533   2.123
 4199WAT     H212840   4.016   5.585   2.116
 4200WAT      O12841   4.045   5.281   2.513
 4200WAT     H112842   4.027   5.184   2.495
 4200WAT     H212843   4.142   5.299   2.496
 4201WAT      O12844   5.359   2.903   0.580
 4201WAT     H112845   5.273   2.950   0.561
 4201WAT     H212846   5.345   2.836   0.654
 4202WAT      O12847   6.846   4.089   5.098
 4202WAT     H112848   6.792   4.006   5.086
 4202WAT     H212849   6.913   4.076   5.171
 4203WAT      O12850   1.547   1.039   1.074
 4203WAT     H112851   1.607   1.004   1.001
 4203WAT     H212852   1.480   1.102   1.034
 4204WAT      O12853   0.160   3.100   9.238
 4204WAT     H112854   0.248   3.078   9.279
 4204WAT     H212855   0.170   3.180   9.178
 4205WAT      O12856   1.715   5.710   2.279
 4205WAT     H112857   1.797   5.762   2.302
 4205WAT     H212858   1.718   5.621   2.323
 4206WAT      O12859   7.702   0.144   4.786
 4206WAT     H112860   7.613   0.146   4.832
 4206WAT     H212861   7.757   0.222   4.817
 4207WAT      O12862   3.100   7.843   1.592
 4207WAT     H112863   3.038   7.921   1.594
 4207WAT     H212864   3.148   7.841   1.504
 4208WAT      O12865   6.521   0.761   4.247
 4208WAT     H112866   6.535   0.837   4.184
 4208WAT     H212867   6.433   0.772   4.293
 4209WAT      O12868   7.351   3.256   4.449
 4209WAT     H112869   7.286   3.324   4.416
 4209WAT     H212870   7.325   3.228   4.542
 4210WAT      O12871   1.896   1.205   4.048
 4210WAT     H112872   1.871   1.178   3.955
 4210WAT     H212873   1.996   1.207   4.057
 4211WAT      O12874   0.086   3.984   9.365
 4211WAT     H112875   0.136   3.943   9.289
 4211WAT     H212876   0.058   3.912   9.429
 4212WAT      O12877   5.742   2.398   6.568
 4212WAT     H112878   5.758   2.438   6.658
 4212WAT     H212879   5.684   2.460   6.514
 4213WAT      O12880   3.875   2.547   0.071
 4213WAT     H112881   3.875   2.531  -0.027
 4213WAT     H212882   3.935   2.482   0.116
 4214WAT      O12883   0.843   4.055   9.345
 4214WAT     H112884   0.894   3.999   9.410
 4214WAT     H212885   0.802   4.133   9.394
 4215WAT      O12886   3.976   3.262   1.495
 4215WAT     H112887   3.984   3.287   1.399
 4215WAT     H212888   4.008   3.168   1.508
 4216WAT      O12889   5.292   8.931   0.499
 4216WAT     H112890   5.275   8.901   0.593
 4216WAT     H212891   5.207   8.965   0.459
 4217WAT      O12892   7.762   0.953   1.548
 4217WAT     H112893   7.840   0.892   1.559
 4217WAT     H212894   7.697   0.937   1.622
 4218WAT      O12895   0.318   0.180   1.831
 4218WAT     H112896   0.240   0.125   1.802
 4218WAT     H212897   0.332   0.168   1.929
 4219WAT      O12898   3.778   0.050   4.633
 4219WAT     H112899   3.706   0.030   4.566
 4219WAT     H212900   3.861   0.000   4.608
 4220WAT      O12901   5.433   2.316   8.918
 4220WAT     H112902   5.447   2.218   8.910
 4220WAT     H212903   5.367   2.346   8.849
 4221WAT      O12904   8.232   1.128   6.009
 4221WAT     H112905   8.287   1.212   6.012
 4221WAT     H212906   8.216   1.096   6.102
 4222WAT      O12907   3.999   2.220   3.721
 4222WAT     H112908   3.975   2.232   3.625
 4222WAT     H212909   4.097   2.234   3.733
 4223WAT      O12910   9.734   9.432   2.964
 4223WAT     H112911   9.700   9.523   2.988
 4223WAT     H212912   9.738   9.423   2.865
 4224WAT      O12913   3.200   4.982   3.356
 4224WAT     H112914   3.148   5.020   3.432
 4224WAT     H212915   3.165   4.891   3.334
 4225WAT      O12916   9.528   1.454   7.497
 4225WAT     H112917   9.471   1.424   7.574
 4225WAT     H212918   9.490   1.416   7.412
 4226WAT      O12919   6.217   3.989   1.655
 4226WAT     H112920   6.240   3.990   1.558
 4226WAT     H212921   6.143   3.924   1.671
 4227WAT      O12922   7.797   1.534   3.684
 4227WAT     H112923   7.887   1.499   3.659
 4227WAT     H212924   7.786   1.627   3.649
 4228WAT      O12925   5.458   0.029   1.899
 4228WAT     H112926   5.553   0.054   1.919
 4228WAT     H212927   5.434  -0.055   1.950
 4229WAT      O12928   6.120   5.237   2.206
 4229WAT     H112929   6.025   5.224   2.180
 4229WAT     H212930   6.128   5.314   2.268
 4230WAT      O12931   3.400   8.446   7.448
 4230WAT     H112932   3.426   8.537   7.479
 4230WAT     H212933   3.328   8.409   7.508
 4231WAT      O12934   1.315   6.212   1.124
 4231WAT     H112935   1.260   6.210   1.040
 4231WAT     H212936   1.309   6.123   1.169
 4232WAT      O12937   0.771   7.222   7.478
 4232WAT     H112938   0.820   7.305   7.450
 4232WAT     H212939   0.687   7.213   7.424
 4233WAT      O12940   6.293   7.601   1.518
 4233WAT     H112941   6.266   7.641   1.430
 4233WAT     H212942   6.233   7.634   1.590
 4234WAT      O12943   2.008   5.085   1.496
 4234WAT     H112944   1.908   5.087   1.498
 4234WAT     H212945   2.043   5.168   1.541
 4235WAT      O12946   7.033   3.288   4.568
 4235WAT     H112947   7.097   3.226   4.613
 4235WAT     H212948   6.951   3.237   4.541
 4236WAT      O12949   3.427   1.880   1.738
 4236WAT     H112950   3.505   1.943   1.750
 4236WAT     H212951   3.359   1.923   1.679
 4237WAT      O12952   5.915   7.844   7.342
 4237WAT     H112953   5.904   7.870   7.246
 4237WAT     H212954   6.009   7.862   7.370
 4238WAT      O12955   8.274   8.336   9.069
 4238WAT     H112956   8.217   8.394   9.128
 4238WAT     H212957   8.258   8.362   8.973
 4239WAT      O12958   3.398   1.280   9.203
 4239WAT     H112959   3.489   1.283   9.242
 4239WAT     H212960   3.332   1.250   9.272
 4240WAT      O12961   2.136   8.923   1.139
 4240WAT     H112962   2.108   8.985   1.066
 4240WAT     H212963   2.113   8.963   1.228
 4241WAT      O12964   5.926   1.760   7.206
 4241WAT     H112965   5.873   1.845   7.208
 4241WAT     H212966   5.999   1.765   7.273
 4242WAT      O12967   7.309   9.263   0.816
 4242WAT     H112968   7.252   9.257   0.734
 4242WAT     H212969   7.406   9.259   0.789
 4243WAT      O12970   7.350   9.190   7.037
 4243WAT     H112971   7.430   9.225   7.087
 4243WAT     H212972   7.374   9.104   6.992
 4244WAT      O12973   9.740   8.451   7.002
 4244WAT     H112974   9.825   8.435   7.052
 4244WAT     H212975   9.758   8.510   6.923
 4245WAT      O12976   0.930   1.259   3.465
 4245WAT     H112977   0.845   1.310   3.476
 4245WAT     H212978   0.921   1.193   3.390
 4246WAT      O12979   9.087   6.481   5.164
 4246WAT     H112980   9.126   6.537   5.091
 4246WAT     H212981   9.158   6.425   5.205
 4247WAT      O12982   3.146   4.218   1.510
 4247WAT     H112983   3.096   4.148   1.561
 4247WAT     H212984   3.219   4.255   1.567
 4248WAT      O12985   2.307   9.692   6.457
 4248WAT     H112986   2.226   9.651   6.501
 4248WAT     H212987   2.301   9.792   6.464
 4249WAT      O12988   3.157   3.544   7.184
 4249WAT     H112989   3.083   3.477   7.181
 4249WAT     H212990   3.160   3.594   7.097
 4250WAT      O12991   3.175   3.156   5.374
 4250WAT     H112992   3.123   3.137   5.290
 4250WAT     H212993   3.141   3.098   5.448
 4251WAT      O12994   9.602   1.539   4.789
 4251WAT     H112995   9.580   1.466   4.724
 4251WAT     H212996   9.701   1.544   4.800
 4252WAT      O12997   8.246   0.128   4.135
 4252WAT     H112998   8.152   0.113   4.166
 4252WAT     H212999   8.305   0.057   4.175
 4253WAT      O13000   4.809   9.485   0.176
 4253WAT     H113001   4.737   9.520   0.117
 4253WAT     H213002   4.778   9.487   0.271
 4254WAT      O13003   5.022   5.514   3.653
 4254WAT     H113004   5.093   5.526   3.583
 4254WAT     H213005   5.007   5.600   3.701
 4255WAT      O13006   9.823   7.900   9.249
 4255WAT     H113007   9.807   7.998   9.232
 4255WAT     H213008   9.802   7.880   9.345
 4256WAT      O13009   8.150   3.335   5.305
 4256WAT     H113010   8.189   3.258   5.255
 4256WAT     H213011   8.091   3.301   5.378
 4257WAT      O13012   5.706   0.705   6.608
 4257WAT     H113013   5.738   0.614   6.581
 4257WAT     H213014   5.781   0.755   6.651
 4258WAT      O13015   6.099   2.935   4.680
 4258WAT     H113016   6.147   2.847   4.681
 4258WAT     H213017   6.028   2.934   4.609
 4259WAT      O13018   4.475   8.630   3.835
 4259WAT     H113019   4.539   8.609   3.908
 4259WAT     H213020   4.387   8.584   3.852
 4260WAT      O13021   4.965   9.524   7.243
 4260WAT     H113022   4.994   9.537   7.337
 4260WAT     H213023   4.917   9.437   7.234
 4261WAT      O13024   9.500   3.830   8.069
 4261WAT     H113025   9.559   3.833   7.988
 4261WAT     H213026   9.494   3.922   8.108
 4262WAT      O13027   5.277   7.127   7.976
 4262WAT     H113028   5.248   7.219   7.947
 4262WAT     H213029   5.284   7.068   7.896
 4263WAT      O13030   6.875   0.052   1.176
 4263WAT     H113031   6.906   0.131   1.124
 4263WAT     H213032   6.799   0.008   1.128
 4264WAT      O13033   6.979   0.996   2.800
 4264WAT     H113034   7.042   0.946   2.742
 4264WAT     H213035   7.008   1.091   2.807
 4265WAT      O13036   7.322   2.985   4.883
 4265WAT     H113037   7.370   2.981   4.970
 4265WAT     H213038   7.360   2.917   4.821
 4266WAT      O13039   0.953   5.957   4.453
 4266WAT     H113040   0.998   5.890   4.512
 4266WAT     H213041   0.939   5.918   4.362
 4267WAT      O13042   4.999   2.457   4.053
 4267WAT     H113043   4.988   2.538   3.994
 4267WAT     H213044   5.039   2.382   4.000
 4268WAT      O13045   9.245   8.101   6.895
 4268WAT     H113046   9.337   8.140   6.893
 4268WAT     H213047   9.179   8.173   6.918
 4269WAT      O13048   2.547   2.843   3.607
 4269WAT     H113049   2.454   2.859   3.641
 4269WAT     H213050   2.542   2.807   3.514
 4270WAT      O13051   8.150   0.248   4.996
 4270WAT     H113052   8.232   0.301   4.977
 4270WAT     H213053   8.158   0.156   4.956
 4271WAT      O13054   8.636   2.286   9.772
 4271WAT     H113055   8.595   2.285   9.680
 4271WAT     H213056   8.591   2.217   9.829
 4272WAT      O13057   5.948   2.769   2.786
 4272WAT     H113058   5.905   2.714   2.714
 4272WAT     H213059   6.031   2.723   2.818
 4273WAT      O13060   1.668   3.846   6.134
 4273WAT     H113061   1.756   3.887   6.159
 4273WAT     H213062   1.605   3.918   6.107
 4274WAT      O13063   0.418   3.269   9.180
 4274WAT     H113064   0.396   3.277   9.082
 4274WAT     H213065   0.382   3.349   9.228
 4275WAT      O13066   7.522   5.750   2.118
 4275WAT     H113067   7.463   5.806   2.060
 4275WAT     H213068   7.615   5.752   2.083
 4276WAT      O13069   3.685   7.895   1.721
 4276WAT     H113070   3.711   7.840   1.800
 4276WAT     H213071   3.764   7.949   1.690
 4277WAT      O13072   3.976   4.337   9.418
 4277WAT     H113073   3.943   4.413   9.362
 4277WAT     H213074   4.068   4.312   9.390
 4278WAT      O13075   5.712   1.171   8.403
 4278WAT     H113076   5.761   1.166   8.316
 4278WAT     H213077   5.732   1.258   8.447
 4279WAT      O13078   4.956   2.318   7.917
 4279WAT     H113079   4.996   2.240   7.868
 4279WAT     H213080   5.026   2.360   7.975
 4280WAT      O13081   5.279   8.098   7.516
 4280WAT     H113082   5.197   8.060   7.557
 4280WAT     H213083   5.255   8.149   7.433
 4281WAT      O13084   2.852   2.303   3.535
 4281WAT     H113085   2.764   2.344   3.511
 4281WAT     H213086   2.889   2.347   3.617
 4282WAT      O13087   8.685   2.926   3.323
 4282WAT     H113088   8.729   2.894   3.239
 4282WAT     H213089   8.636   3.011   3.304
 4283WAT      O13090   2.053   7.769   7.381
 4283WAT     H113091   2.088   7.698   7.320
 4283WAT     H213092   1.984   7.823   7.333
 4284WAT      O13093   8.873   5.663   3.571
 4284WAT     H113094   8.863   5.742   3.631
 4284WAT     H213095   8.970   5.641   3.560
 4285WAT      O13096   7.538   8.637   5.592
 4285WAT     H113097   7.488   8.572   5.535
 4285WAT     H213098   7.473   8.689   5.647
 4286WAT      O13099   8.035   8.515   8.034
 4286WAT     H113100   8.010   8.561   7.949
 4286WAT     H213101   7.953   8.498   8.088
 4287WAT      O13102   6.413   9.820   3.827
 4287WAT     H113103   6.497   9.864   3.858
 4287WAT     H213104   6.344   9.891   3.808
 4288WAT      O13105   8.396   0.357   1.174
 4288WAT     H113106   8.342   0.280   1.141
 4288WAT     H213107   8.460   0.326   1.244
 4289WAT      O13108   8.435   6.369   2.853
 4289WAT     H113109   8.421   6.318   2.768
 4289WAT     H213110   8.511   6.328   2.904
 4290WAT      O13111   6.137   3.314   8.576
 4290WAT     H113112   6.090   3.239   8.530
 4290WAT     H213113   6.163   3.383   8.508
 4291WAT      O13114   9.094   6.921   5.995
 4291WAT     H113115   9.131   6.833   5.963
 4291WAT     H213116   9.132   6.995   5.940
 4292WAT      O13117   4.908   0.673   9.418
 4292WAT     H113118   4.944   0.765   9.402
 4292WAT     H213119   4.873   0.636   9.332
 4293WAT      O13120   8.449   0.169   9.145
 4293WAT     H113121   8.395   0.246   9.112
 4293WAT     H213122   8.432   0.157   9.243
 4294WAT      O13123   7.302   8.661   4.130
 4294WAT     H113124   7.400   8.673   4.117
 4294WAT     H213125   7.283   8.630   4.223
 4295WAT      O13126   6.806   3.983   8.029
 4295WAT     H113127   6.746   4.063   8.031
 4295WAT     H213128   6.750   3.900   8.033
 4296WAT      O13129   9.205   5.902   5.100
 4296WAT     H113130   9.134   5.832   5.093
 4296WAT     H213131   9.212   5.952   5.014
 4297WAT      O13132   4.349   5.847   7.621
 4297WAT     H113133   4.279   5.811   7.683
 4297WAT     H213134   4.400   5.771   7.581
 4298WAT      O13135   0.541   2.200   7.697
 4298WAT     H113136   0.472   2.166   7.634
 4298WAT     H213137   0.632   2.168   7.668
 4299WAT      O13138   1.872   4.974   0.868
 4299WAT     H113139   1.954   4.939   0.823
 4299WAT     H213140   1.855   4.923   0.952
 4300WAT      O13141   2.696   3.698   5.513
 4300WAT     H113142   2.668   3.769   5.448
 4300WAT     H213143   2.724   3.741   5.598
 4301WAT      O13144   8.094   7.368   1.408
 4301WAT     H113145   8.075   7.338   1.315
 4301WAT     H213146   8.048   7.455   1.426
 4302WAT      O13147   3.641   4.218   9.278
 4302WAT     H113148   3.715   4.209   9.212
 4302WAT     H213149   3.677   4.206   9.371
 4303WAT      O13150   9.266   3.360   6.807
 4303WAT     H113151   9.288   3.417   6.728
 4303WAT     H213152   9.246   3.419   6.886
 4304WAT      O13153   8.937   4.956   0.508
 4304WAT     H113154   8.929   4.974   0.410
 4304WAT     H213155   9.002   4.881   0.522
 4305WAT      O13156   7.142   5.988   9.291
 4305WAT     H113157   7.140   6.007   9.193
 4305WAT     H213158   7.185   5.899   9.307
 4306WAT      O13159   2.821   2.286   2.970
 4306WAT     H113160   2.819   2.325   3.062
 4306WAT     H213161   2.730   2.290   2.929
 4307WAT      O13162   1.269   7.894   7.551
 4307WAT     H113163   1.265   7.856   7.458
 4307WAT     H213164   1.187   7.868   7.601
 4308WAT      O13165   8.693   6.098   7.329
 4308WAT     H113166   8.707   6.173   7.265
 4308WAT     H213167   8.615   6.118   7.388
 4309WAT      O13168   4.972   0.092   1.092
 4309WAT     H113169   4.918   0.010   1.112
 4309WAT     H213170   5.062   0.084   1.134
 4310WAT      O13171   3.495   9.014   7.163
 4310WAT     H113172   3.586   8.980   7.184
 4310WAT     H213173   3.485   9.108   7.196
 4311WAT      O13174   8.250   8.923   5.059
 4311WAT     H113175   8.319   8.909   5.130
 4311WAT     H213176   8.229   9.021   5.051
 4312WAT      O13177   1.413   8.708   2.780
 4312WAT     H113178   1.340   8.752   2.728
 4312WAT     H213179   1.376   8.632   2.833
 4313WAT      O13180   9.395   5.229   9.894
 4313WAT     H113181   9.318   5.165   9.900
 4313WAT     H213182   9.442   5.217   9.806
 4314WAT      O13183   7.576   2.509   1.882
 4314WAT     H113184   7.581   2.426   1.938
 4314WAT     H213185   7.575   2.589   1.941
 4315WAT      O13186   2.261   5.435   0.750
 4315WAT     H113187   2.270   5.389   0.662
 4315WAT     H213188   2.185   5.500   0.746
 4316WAT      O13189   0.539   3.855   7.849
 4316WAT     H113190   0.457   3.814   7.808
 4316WAT     H213191   0.606   3.783   7.868
 4317WAT      O13192   4.687   1.039   0.218
 4317WAT     H113193   4.661   1.003   0.129
 4317WAT     H213194   4.639   0.988   0.290
 4318WAT      O13195   9.431   3.042   2.013
 4318WAT     H113196   9.339   3.065   1.981
 4318WAT     H213197   9.454   3.101   2.090
 4319WAT      O13198   6.052   1.107   0.300
 4319WAT     H113199   6.131   1.049   0.282
 4319WAT     H213200   6.069   1.199   0.265
 4320WAT      O13201   0.733   6.087   8.359
 4320WAT     H113202   0.714   6.116   8.265
 4320WAT     H213203   0.651   6.099   8.415
 4321WAT      O13204   1.931   4.843   8.587
 4321WAT     H113205   1.917   4.752   8.550
 4321WAT     H213206   1.866   4.907   8.544
 4322WAT      O13207   2.812   8.582   6.968
 4322WAT     H113208   2.856   8.527   7.039
 4322WAT     H213209   2.844   8.551   6.878
 4323WAT      O13210   0.379   4.661   3.249
 4323WAT     H113211   0.313   4.694   3.316
 4323WAT     H213212   0.350   4.689   3.157
 4324WAT      O13213   0.257   2.251   1.974
 4324WAT     H113214   0.315   2.171   1.989
 4324WAT     H213215   0.210   2.241   1.885
 4325WAT      O13216   3.864   8.539   5.745
 4325WAT     H113217   3.944   8.481   5.755
 4325WAT     H213218   3.876   8.600   5.667
 4326WAT      O13219   9.644   8.832   1.604
 4326WAT     H113220   9.586   8.909   1.578
 4326WAT     H213221   9.633   8.758   1.538
 4327WAT      O13222   6.248   8.047   4.791
 4327WAT     H113223   6.165   8.005   4.754
 4327WAT     H213224   6.285   7.988   4.862
 4328WAT      O13225   2.268   4.475   6.055
 4328WAT     H113226   2.205   4.467   6.133
 4328WAT     H213227   2.246   4.404   5.988
 4329WAT      O13228   0.062   6.507   1.605
 4329WAT     H113229   0.009   6.443   1.550
 4329WAT     H213230   0.146   6.531   1.557
 4330WAT      O13231   8.278   5.437   1.122
 4330WAT     H113232   8.273   5.435   1.221
 4330WAT     H213233   8.276   5.344   1.086
 4331WAT      O13234   9.162   7.318   0.020
 4331WAT     H113235   9.070   7.280   0.028
 4331WAT     H213236   9.158   7.406  -0.027
 4332WAT      O13237   7.535   4.709   1.217
 4332WAT     H113238   7.522   4.647   1.295
 4332WAT     H213239   7.587   4.789   1.247
 4333WAT      O13240   2.689   4.816   0.062
 4333WAT     H113241   2.780   4.811   0.104
 4333WAT     H213242   2.685   4.751  -0.014
 4334WAT      O13243   3.551   9.623   2.263
 4334WAT     H113244   3.537   9.634   2.362
 4334WAT     H213245   3.506   9.699   2.215
 4335WAT      O13246   1.339   7.276   0.489
 4335WAT     H113247   1.239   7.275   0.490
 4335WAT     H213248   1.373   7.296   0.581
 4336WAT      O13249   3.767   6.985   3.168
 4336WAT     H113250   3.731   7.035   3.247
 4336WAT     H213251   3.802   6.896   3.199
 4337WAT      O13252   4.258   7.549   9.266
 4337WAT     H113253   4.212   7.629   9.304
 4337WAT     H213254   4.303   7.573   9.180
 4338WAT      O13255   2.021   3.871   2.501
 4338WAT     H113256   1.980   3.898   2.588
 4338WAT     H213257   2.119   3.893   2.502
 4339WAT      O13258   6.661   1.619   3.104
 4339WAT     H113259   6.714   1.704   3.102
 4339WAT     H213260   6.628   1.603   3.197
 4340WAT      O13261   4.195   1.906   7.251
 4340WAT     H113262   4.256   1.828   7.246
 4340WAT     H213263   4.176   1.927   7.347
 4341WAT      O13264   1.589   9.315   1.895
 4341WAT     H113265   1.629   9.401   1.924
 4341WAT     H213266   1.533   9.330   1.813
 4342WAT      O13267   2.989   3.166   0.986
 4342WAT     H113268   3.023   3.151   1.079
 4342WAT     H213269   2.892   3.144   0.981
 4343WAT      O13270   0.424   2.200   6.187
 4343WAT     H113271   0.363   2.276   6.163
 4343WAT     H213272   0.370   2.116   6.196
 4344WAT      O13273   2.408   8.577   5.765
 4344WAT     H113274   2.423   8.513   5.690
 4344WAT     H213275   2.492   8.583   5.820
 4345WAT      O13276   2.535   7.385   1.034
 4345WAT     H113277   2.532   7.441   1.116
 4345WAT     H213278   2.467   7.417   0.969
 4346WAT      O13279   4.795   9.630   5.217
 4346WAT     H113280   4.861   9.644   5.291
 4346WAT     H213281   4.845   9.607   5.133
 4347WAT      O13282   5.905   7.386   7.356
 4347WAT     H113283   5.924   7.288   7.354
 4347WAT     H213284   5.950   7.427   7.435
 4348WAT      O13285   7.846   2.651   1.929
 4348WAT     H113286   7.870   2.566   1.977
 4348WAT     H213287   7.836   2.632   1.831
 4349WAT      O13288   3.418   8.236   8.427
 4349WAT     H113289   3.378   8.295   8.498
 4349WAT     H213290   3.352   8.163   8.405
 4350WAT      O13291   4.527   7.821   8.917
 4350WAT     H113292   4.596   7.761   8.956
 4350WAT     H213293   4.527   7.908   8.966
 4351WAT      O13294   3.848   6.289   4.800
 4351WAT     H113295   3.787   6.238   4.861
 4351WAT     H213296   3.845   6.250   4.708
 4352WAT      O13297   9.465   4.367   9.620
 4352WAT     H113298   9.440   4.455   9.579
 4352WAT     H213299   9.565   4.359   9.623
 4353WAT      O13300   7.478   2.036   4.683
 4353WAT     H113301   7.546   2.024   4.611
 4353WAT     H213302   7.512   1.998   4.769
 4354WAT      O13303   3.490   0.201   4.290
 4354WAT     H113304   3.401   0.218   4.332
 4354WAT     H213305   3.485   0.222   4.192
 4355WAT      O13306   7.250   4.933   5.241
 4355WAT     H113307   7.232   4.894   5.331
 4355WAT     H213308   7.223   5.029   5.240
 4356WAT      O13309   4.223   4.776   3.241
 4356WAT     H113310   4.171   4.802   3.323
 4356WAT     H213311   4.221   4.677   3.230
 4357WAT      O13312   6.857   5.323   2.314
 4357WAT     H113313   6.889   5.229   2.331
 4357WAT     H213314   6.758   5.326   2.326
 4358WAT      O13315   9.605   0.641   6.942
 4358WAT     H113316   9.632   0.563   7.000
 4358WAT     H213317   9.638   0.626   6.849
 4359WAT      O13318   0.315   0.807   8.949
 4359WAT     H113319   0.344   0.732   8.890
 4359WAT     H213320   0.366   0.803   9.036
 4360WAT      O13321   1.671   4.887   5.635
 4360WAT     H113322   1.581   4.844   5.637
 4360WAT     H213323   1.669   4.967   5.576
 4361WAT      O13324   4.651   1.553   1.688
 4361WAT     H113325   4.566   1.593   1.722
 4361WAT     H213326   4.660   1.459   1.721
 4362WAT      O13327   7.326   8.738   4.943
 4362WAT     H113328   7.263   8.680   4.891
 4362WAT     H213329   7.354   8.816   4.888
 4363WAT      O13330   6.676   6.500   5.044
 4363WAT     H113331   6.612   6.475   4.971
 4363WAT     H213332   6.643   6.464   5.131
 4364WAT      O13333   5.356   9.644   2.021
 4364WAT     H113334   5.258   9.662   2.008
 4364WAT     H213335   5.375   9.548   2.003
 4365WAT      O13336   6.125   6.264   4.100
 4365WAT     H113337   6.187   6.241   4.024
 4365WAT     H213338   6.142   6.357   4.129
 4366WAT      O13339   3.927   7.241   8.803
 4366WAT     H113340   3.845   7.297   8.803
 4366WAT     H213341   3.904   7.149   8.834
 4367WAT      O13342   9.821   8.478   9.288
 4367WAT     H113343   9.812   8.523   9.377
 4367WAT     H213344   9.744   8.504   9.229
 4368WAT      O13345   8.297   0.083   7.517
 4368WAT     H113346   8.206   0.116   7.493
 4368WAT     H213347   8.314   0.102   7.614
 4369WAT      O13348   5.675   4.393   4.119
 4369WAT     H113349   5.763   4.375   4.075
 4369WAT     H213350   5.651   4.317   4.178
 4370WAT      O13351   2.826   4.482   3.579
 4370WAT     H113352   2.763   4.555   3.555
 4370WAT     H213353   2.894   4.516   3.645
 4371WAT      O13354   0.309   3.695   0.578
 4371WAT     H113355   0.346   3.777   0.621
 4371WAT     H213356   0.271   3.634   0.647
 4372WAT      O13357   5.667   2.410   8.541
 4372WAT     H113358   5.688   2.497   8.495
 4372WAT     H213359   5.669   2.423   8.640
 4373WAT      O13360   7.100   6.871   6.629
 4373WAT     H113361   7.039   6.793   6.646
 4373WAT     H213362   7.170   6.875   6.700
 4374WAT      O13363   3.549   8.728   9.086
 4374WAT     H113364   3.526   8.757   8.993
 4374WAT     H213365   3.647   8.712   9.093
 4375WAT      O13366   6.956   3.607   1.213
 4375WAT     H113367   6.959   3.700   1.177
 4375WAT     H213368   7.035   3.556   1.179
 4376WAT      O13369   8.800   4.644   6.777
 4376WAT     H113370   8.812   4.682   6.869
 4376WAT     H213371   8.821   4.715   6.709
 4377WAT      O13372   4.949   1.653   6.630
 4377WAT     H113373   5.047   1.634   6.636
 4377WAT     H213374   4.927   1.683   6.537
 4378WAT      O13375   0.848   2.841   2.337
 4378WAT     H113376   0.947   2.852   2.349
 4378WAT     H213377   0.800   2.907   2.396
 4379WAT      O13378   4.382   5.286   8.011
 4379WAT     H113379   4.387   5.209   7.947
 4379WAT     H213380   4.422   5.367   7.969
 4380WAT      O13381   7.808   0.509   3.641
 4380WAT     H113382   7.766   0.429   3.597
 4380WAT     H213383   7.907   0.503   3.634
 4381WAT      O13384   7.963   6.080   4.691
 4381WAT     H113385   7.981   6.055   4.786
 4381WAT     H213386   8.042   6.129   4.654
 4382WAT      O13387   3.902   0.423   0.952
 4382WAT     H113388   3.927   0.455   1.044
 4382WAT     H213389   3.943   0.334   0.936
 4383WAT      O13390   5.347   7.742   9.621
 4383WAT     H113391   5.336   7.833   9.662
 4383WAT     H213392   5.368   7.752   9.524
 4384WAT      O13393   8.092   8.418   8.854
 4384WAT     H113394   8.028   8.475   8.907
 4384WAT     H213395   8.055   8.326   8.845
 4385WAT      O13396   5.453   1.946   5.455
 4385WAT     H113397   5.363   1.904   5.456
 4385WAT     H213398   5.512   1.900   5.521
 4386WAT      O13399   6.660   7.665   4.091
 4386WAT     H113400   6.611   7.597   4.146
 4386WAT     H213401   6.740   7.622   4.049
 4387WAT      O13402   1.123   8.654   4.850
 4387WAT     H113403   1.150   8.684   4.759
 4387WAT     H213404   1.166   8.711   4.919
 4388WAT      O13405   1.492   4.544   6.482
 4388WAT     H113406   1.483   4.626   6.427
 4388WAT     H213407   1.551   4.478   6.435
 4389WAT      O13408   5.393   6.808   8.692
 4389WAT     H113409   5.382   6.874   8.766
 4389WAT     H213410   5.479   6.826   8.644
 4390WAT      O13411   1.112   5.056   7.552
 4390WAT     H113412   1.056   5.134   7.524
 4390WAT     H213413   1.075   5.016   7.636
 4391WAT      O13414   0.906   7.897   0.720
 4391WAT     H113415   0.815   7.877   0.758
 4391WAT     H213416   0.967   7.820   0.737
 4392WAT      O13417   1.370   3.104   3.258
 4392WAT     H113418   1.361   3.196   3.297
 4392WAT     H213419   1.337   3.105   3.164
 4393WAT      O13420   1.463   4.373   3.018
 4393WAT     H113421   1.469   4.455   2.961
 4393WAT     H213422   1.409   4.393   3.100
 4394WAT      O13423   0.901   4.917   9.078
 4394WAT     H113424   0.929   4.842   9.138
 4394WAT     H213425   0.890   4.882   8.984
 4395WAT      O13426   7.667   8.249   6.759
 4395WAT     H113427   7.670   8.180   6.832
 4395WAT     H213428   7.738   8.317   6.774
 4396WAT      O13429   3.917   5.295   8.848
 4396WAT     H113430   3.871   5.268   8.932
 4396WAT     H213431   3.926   5.395   8.845
 4397WAT      O13432   3.419   7.973   2.819
 4397WAT     H113433   3.408   7.874   2.812
 4397WAT     H213434   3.490   7.994   2.887
 4398WAT      O13435   3.527   5.507   7.379
 4398WAT     H113436   3.588   5.430   7.362
 4398WAT     H213437   3.441   5.473   7.419
 4399WAT      O13438   4.563   7.676   2.183
 4399WAT     H113439   4.659   7.701   2.184
 4399WAT     H213440   4.553   7.583   2.148
 4400WAT      O13441   7.966   9.071   6.157
 4400WAT     H113442   8.025   9.092   6.079
 4400WAT     H213443   7.940   9.156   6.203
 4401WAT      O13444   4.181   7.097   3.709
 4401WAT     H113445   4.158   7.000   3.704
 4401WAT     H213446   4.176   7.138   3.618
 4402WAT      O13447   8.361   6.727   9.649
 4402WAT     H113448   8.395   6.809   9.603
 4402WAT     H213449   8.374   6.737   9.748
 4403WAT      O13450   5.563   8.168   2.652
 4403WAT     H113451   5.494   8.159   2.724
 4403WAT     H213452   5.644   8.115   2.676
 4404WAT      O13453   9.763   4.410   8.361
 4404WAT     H113454   9.692   4.480   8.349
 4404WAT     H213455   9.723   4.326   8.397
 4405WAT      O13456   0.905   2.525   2.993
 4405WAT     H113457   0.997   2.501   2.963
 4405WAT     H213458   0.883   2.618   2.964
 4406WAT      O13459   3.309   7.605   5.901
 4406WAT     H113460   3.282   7.700   5.891
 4406WAT     H213461   3.237   7.555   5.949
 4407WAT      O13462   0.254   7.700   5.418
 4407WAT     H113463   0.286   7.773   5.359
 4407WAT     H213464   0.331   7.666   5.473
 4408WAT      O13465   2.856   9.111   0.079
 4408WAT     H113466   2.863   9.177   0.153
 4408WAT     H213467   2.873   9.156  -0.009
 4409WAT      O13468   0.033   7.228   1.099
 4409WAT     H113469  -0.010   7.191   1.181
 4409WAT     H213470   0.001   7.321   1.083
 4410WAT      O13471   5.769   4.282   8.138
 4410WAT     H113472   5.861   4.318   8.154
 4410WAT     H213473   5.704   4.358   8.132
 4411WAT      O13474   3.158   0.268   5.212
 4411WAT     H113475   3.126   0.175   5.224
 4411WAT     H213476   3.126   0.325   5.288
 4412WAT      O13477   8.493   7.950   1.642
 4412WAT     H113478   8.434   7.902   1.707
 4412WAT     H213479   8.549   7.883   1.593
 4413WAT      O13480   1.556   4.169   2.672
 4413WAT     H113481   1.618   4.190   2.747
 4413WAT     H213482   1.531   4.254   2.625
 4414WAT      O13483   7.890   3.470   8.427
 4414WAT     H113484   7.869   3.374   8.442
 4414WAT     H213485   7.861   3.523   8.506
 4415WAT      O13486   3.650   6.048   2.034
 4415WAT     H113487   3.692   6.102   2.106
 4415WAT     H213488   3.635   5.954   2.066
 4416WAT      O13489   1.704   7.504   2.400
 4416WAT     H113490   1.771   7.439   2.434
 4416WAT     H213491   1.750   7.587   2.368
 4417WAT      O13492   1.494   6.275   7.803
 4417WAT     H113493   1.488   6.373   7.818
 4417WAT     H213494   1.584   6.242   7.830
 4418WAT      O13495   8.278   7.912   9.805
 4418WAT     H113496   8.211   7.886   9.735
 4418WAT     H213497   8.358   7.952   9.761
 4419WAT      O13498   2.967   0.218   3.292
 4419WAT     H113499   2.961   0.132   3.240
 4419WAT     H213500   2.876   0.257   3.302
 4420WAT      O13501   2.873   2.208   1.520
 4420WAT     H113502   2.875   2.187   1.618
 4420WAT     H213503   2.797   2.271   1.501
 4421WAT      O13504   8.830   4.564   1.906
 4421WAT     H113505   8.919   4.570   1.862
 4421WAT     H213506   8.766   4.628   1.863
 4422WAT      O13507   4.260   9.125   9.720
 4422WAT     H113508   4.259   9.063   9.641
 4422WAT     H213509   4.331   9.096   9.784
 4423WAT      O13510   8.115   8.186   8.023
 4423WAT     H113511   8.180   8.242   8.075
 4423WAT     H213512   8.039   8.243   7.993
 4424WAT      O13513   5.293   8.696   7.337
 4424WAT     H113514   5.376   8.642   7.353
 4424WAT     H213515   5.297   8.736   7.245
 4425WAT      O13516   5.610   0.144   6.386
 4425WAT     H113517   5.532   0.157   6.325
 4425WAT     H213518   5.689   0.114   6.333
 4426WAT      O13519   2.677   1.964   9.373
 4426WAT     H113520   2.772   1.994   9.373
 4426WAT     H213521   2.664   1.894   9.303
 4427WAT      O13522   5.492   3.982   7.950
 4427WAT     H113523   5.437   4.061   7.921
 4427WAT     H213524   5.589   4.003   7.939
 4428WAT      O13525   5.275   5.710   6.141
 4428WAT     H113526   5.243   5.701   6.236
 4428WAT     H213527   5.229   5.787   6.098
 4429WAT      O13528   4.772   2.955   7.262
 4429WAT     H113529   4.721   2.960   7.176
 4429WAT     H213530   4.731   2.887   7.322
 4430WAT      O13531   9.237   8.439   4.003
 4430WAT     H113532   9.143   8.435   4.036
 4430WAT     H213533   9.254   8.362   3.941
 4431WAT      O13534   2.862   5.243   9.422
 4431WAT     H113535   2.923   5.237   9.343
 4431WAT     H213536   2.772   5.206   9.397
 4432WAT      O13537   8.803   2.914   3.562
 4432WAT     H113538   8.882   2.974   3.551
 4432WAT     H213539   8.741   2.926   3.485
 4433WAT      O13540   6.494   0.058   7.016
 4433WAT     H113541   6.417   0.094   6.964
 4433WAT     H213542   6.544  -0.009   6.960
 4434WAT      O13543   9.279   7.865   0.524
 4434WAT     H113544   9.293   7.766   0.522
 4434WAT     H213545   9.200   7.889   0.467
 4435WAT      O13546   7.323   6.699   5.330
 4435WAT     H113547   7.268   6.767   5.282
 4435WAT     H213548   7.263   6.635   5.378
 4436WAT      O13549   9.354   5.884   9.766
 4436WAT     H113550   9.439   5.846   9.730
 4436WAT     H213551   9.371   5.924   9.856
 4437WAT      O13552   4.636   6.166   8.730
 4437WAT     H113553   4.569   6.128   8.793
 4437WAT     H213554   4.674   6.250   8.769
 4438WAT      O13555   5.472   4.796   8.580
 4438WAT     H113556   5.516   4.841   8.503
 4438WAT     H213557   5.373   4.795   8.566
 4439WAT      O13558   0.373   9.158   2.263
 4439WAT     H113559   0.405   9.074   2.307
 4439WAT     H213560   0.274   9.163   2.270
 4440WAT      O13561   4.101   4.791   9.634
 4440WAT     H113562   4.134   4.869   9.581
 4440WAT     H213563   4.177   4.752   9.687
 4441WAT      O13564   9.327   6.347   3.543
 4441WAT     H113565   9.388   6.354   3.622
 4441WAT     H213566   9.381   6.337   3.459
 4442WAT      O13567   0.738   3.174   3.245
 4442WAT     H113568   0.737   3.274   3.248
 4442WAT     H213569   0.654   3.139   3.285
 4443WAT      O13570   1.808   7.159   5.578
 4443WAT     H113571   1.872   7.168   5.502
 4443WAT     H213572   1.837   7.086   5.639
 4444WAT      O13573   3.197   1.095   4.231
 4444WAT     H113574   3.254   1.114   4.312
 4444WAT     H213575   3.231   1.148   4.154
 4445WAT      O13576   8.825   7.034   6.556
 4445WAT     H113577   8.739   7.058   6.511
 4445WAT     H213578   8.835   7.087   6.640
 4446WAT      O13579   2.548   8.427   8.237
 4446WAT     H113580   2.597   8.401   8.320
 4446WAT     H213581   2.602   8.401   8.156
 4447WAT      O13582   8.635   5.576   4.741
 4447WAT     H113583   8.545   5.533   4.745
 4447WAT     H213584   8.647   5.636   4.820
 4448WAT      O13585   4.316   3.402   0.067
 4448WAT     H113586   4.416   3.408   0.057
 4448WAT     H213587   4.281   3.489   0.102
 4449WAT      O13588   4.836   8.425   3.643
 4449WAT     H113589   4.843   8.344   3.702
 4449WAT     H213590   4.741   8.435   3.612
 4450WAT      O13591   3.027   7.840   3.742
 4450WAT     H113592   2.961   7.779   3.700
 4450WAT     H213593   2.994   7.867   3.833
 4451WAT      O13594   7.604   6.146   3.543
 4451WAT     H113595   7.674   6.169   3.611
 4451WAT     H213596   7.530   6.096   3.587
 4452WAT      O13597   2.432   0.182   0.678
 4452WAT     H113598   2.363   0.211   0.743
 4452WAT     H213599   2.399   0.101   0.628
 4453WAT      O13600   7.796   8.433   2.837
 4453WAT     H113601   7.796   8.348   2.890
 4453WAT     H213602   7.889   8.465   2.826
 4454WAT      O13603   4.534   1.967   1.572
 4454WAT     H113604   4.468   1.983   1.645
 4454WAT     H213605   4.626   1.991   1.604
 4455WAT      O13606   7.559   0.445   8.186
 4455WAT     H113607   7.576   0.418   8.092
 4455WAT     H213608   7.557   0.363   8.244
 4456WAT      O13609   3.662   3.818   1.659
 4456WAT     H113610   3.604   3.856   1.731
 4456WAT     H213611   3.729   3.886   1.631
 4457WAT      O13612   9.439   6.975   9.013
 4457WAT     H113613   9.383   6.985   9.095
 4457WAT     H213614   9.532   6.947   9.039
 4458WAT      O13615   0.153   3.979   1.719
 4458WAT     H113616   0.235   4.025   1.685
 4458WAT     H213617   0.159   3.881   1.697
 4459WAT      O13618   3.228   4.137   7.394
 4459WAT     H113619   3.162   4.211   7.381
 4459WAT     H213620   3.198   4.076   7.467
 4460WAT      O13621   2.001   6.137   7.364
 4460WAT     H113622   2.048   6.172   7.445
 4460WAT     H213623   1.976   6.041   7.378
 4461WAT      O13624   4.644   5.453   3.428
 4461WAT     H113625   4.620   5.512   3.351
 4461WAT     H213626   4.641   5.357   3.399
 4462WAT      O13627   5.958   5.171   9.197
 4462WAT     H113628   5.962   5.079   9.235
 4462WAT     H213629   5.957   5.239   9.270
 4463WAT      O13630   6.658   8.346   9.683
 4463WAT     H113631   6.650   8.436   9.725
 4463WAT     H213632   6.742   8.302   9.714
 4464WAT      O13633   6.744   1.521   9.059
 4464WAT     H113634   6.655   1.485   9.031
 4464WAT     H213635   6.731   1.592   9.128
 4465WAT      O13636   9.814   0.471   1.727
 4465WAT     H113637   9.835   0.567   1.748
 4465WAT     H213638   9.876   0.412   1.778
 4466WAT      O13639   8.951   8.637   7.380
 4466WAT     H113640   8.914   8.712   7.326
 4466WAT     H213641   8.896   8.555   7.366
 4467WAT      O13642   7.065   2.452   7.725
 4467WAT     H113643   7.096   2.499   7.808
 4467WAT     H213644   7.015   2.369   7.751
 4468WAT      O13645   6.747   8.375   7.679
 4468WAT     H113646   6.715   8.455   7.731
 4468WAT     H213647   6.675   8.345   7.617
 4469WAT      O13648   8.750   1.950   5.885
 4469WAT     H113649   8.756   1.856   5.920
 4469WAT     H213650   8.827   2.003   5.921
 4470WAT      O13651   5.239   3.670   4.958
 4470WAT     H113652   5.220   3.703   5.051
 4470WAT     H213653   5.172   3.599   4.934
 4471WAT      O13654   3.710   7.133   5.823
 4471WAT     H113655   3.691   7.149   5.726
 4471WAT     H213656   3.645   7.185   5.878
 4472WAT      O13657   1.928   3.485   8.724
 4472WAT     H113658   1.835   3.451   8.738
 4472WAT     H213659   1.968   3.439   8.644
 4473WAT      O13660   2.420   8.869   5.935
 4473WAT     H113661   2.333   8.821   5.949
 4473WAT     H213662   2.434   8.935   6.009
 4474WAT      O13663   2.032   3.141   4.056
 4474WAT     H113664   1.955   3.079   4.073
 4474WAT     H213665   2.080   3.159   4.141
 4475WAT      O13666   4.892   2.251   4.769
 4475WAT     H113667   4.906   2.270   4.866
 4475WAT     H213668   4.914   2.332   4.715
 4476WAT      O13669   9.383   3.158   0.948
 4476WAT     H113670   9.470   3.184   0.992
 4476WAT     H213671   9.366   3.220   0.871
 4477WAT      O13672   8.354   9.771   4.281
 4477WAT     H113673   8.276   9.798   4.337
 4477WAT     H213674   8.366   9.672   4.286
 4478WAT      O13675   4.734   1.317   1.843
 4478WAT     H113676   4.657   1.267   1.882
 4478WAT     H213677   4.792   1.352   1.917
 4479WAT      O13678   1.167   8.008   6.983
 4479WAT     H113679   1.257   8.048   7.002
 4479WAT     H213680   1.153   7.928   7.041
 4480WAT      O13681   6.025   6.074   3.448
 4480WAT     H113682   5.965   6.044   3.521
 4480WAT     H213683   6.016   6.173   3.436
 4481WAT      O13684   3.536   3.601   1.784
 4481WAT     H113685   3.607   3.640   1.725
 4481WAT     H213686   3.469   3.672   1.807
 4482WAT      O13687   3.542   0.809   4.160
 4482WAT     H113688   3.486   0.872   4.107
 4482WAT     H213689   3.626   0.789   4.111
 4483WAT      O13690   0.183   3.698   1.723
 4483WAT     H113691   0.244   3.672   1.649
 4483WAT     H213692   0.223   3.669   1.811
 4484WAT      O13693   8.963   9.604   0.343
 4484WAT     H113694   9.061   9.609   0.323
 4484WAT     H213695   8.933   9.509   0.344
 4485WAT      O13696   4.223   8.621   5.974
 4485WAT     H113697   4.242   8.682   6.051
 4485WAT     H213698   4.248   8.665   5.888
 4486WAT      O13699   4.117   1.475   9.409
 4486WAT     H113700   4.123   1.535   9.329
 4486WAT     H213701   4.152   1.384   9.386
 4487WAT      O13702   6.979   5.493   2.477
 4487WAT     H113703   6.929   5.552   2.540
 4487WAT     H213704   6.919   5.421   2.444
 4488WAT      O13705   5.408   9.239   4.375
 4488WAT     H113706   5.459   9.233   4.289
 4488WAT     H213707   5.320   9.194   4.365
 4489WAT      O13708   2.798   8.612   0.163
 4489WAT     H113709   2.788   8.585   0.259
 4489WAT     H213710   2.709   8.603   0.117
 4490WAT      O13711   0.571   8.120   0.493
 4490WAT     H113712   0.500   8.189   0.479
 4490WAT     H213713   0.628   8.114   0.411
 4491WAT      O13714   5.199   7.575   2.738
 4491WAT     H113715   5.168   7.665   2.769
 4491WAT     H213716   5.216   7.516   2.817
 4492WAT      O13717   5.764   8.607   2.062
 4492WAT     H113718   5.721   8.645   1.979
 4492WAT     H213719   5.703   8.621   2.140
 4493WAT      O13720   4.825   1.534   2.278
 4493WAT     H113721   4.818   1.612   2.216
 4493WAT     H213722   4.920   1.500   2.278
 4494WAT      O13723   1.811   5.315   5.713
 4494WAT     H113724   1.863   5.365   5.644
 4494WAT     H213725   1.843   5.341   5.804
 4495WAT      O13726   7.936   3.554   3.397
 4495WAT     H113727   7.907   3.612   3.321
 4495WAT     H213728   8.036   3.551   3.400
 4496WAT      O13729   5.271   5.713   0.746
 4496WAT     H113730   5.273   5.690   0.843
 4496WAT     H213731   5.178   5.707   0.711
 4497WAT      O13732   7.213   1.648   9.687
 4497WAT     H113733   7.169   1.729   9.649
 4497WAT     H213734   7.144   1.589   9.729
 4498WAT      O13735   5.364   1.686   8.771
 4498WAT     H113736   5.408   1.764   8.727
 4498WAT     H213737   5.265   1.699   8.769
 4499WAT      O13738   9.090   6.235   4.831
 4499WAT     H113739   9.065   6.186   4.748
 4499WAT     H213740   9.052   6.188   4.911
 4500WAT      O13741   9.880   3.649   4.627
 4500WAT     H113742   9.971   3.687   4.610
 4500WAT     H213743   9.884   3.549   4.624
 4501WAT      O13744   9.492   2.074   1.988
 4501WAT     H113745   9.546   2.140   2.039
 4501WAT     H213746   9.458   2.116   1.904
 4502WAT      O13747   6.048   3.569   0.991
 4502WAT     H113748   6.142   3.544   0.966
 4502WAT     H213749   6.048   3.661   1.031
 4503WAT      O13750   6.311   0.626   0.363
 4503WAT     H113751   6.258   0.687   0.305
 4503WAT     H213752   6.398   0.603   0.319
 4504WAT      O13753   6.283   2.652   2.263
 4504WAT     H113754   6.381   2.658   2.282
 4504WAT     H213755   6.268   2.598   2.180
 4505WAT      O13756   1.415   9.638   0.861
 4505WAT     H113757   1.348   9.565   0.847
 4505WAT     H213758   1.402   9.710   0.793
 4506WAT      O13759   3.669   3.419   0.070
 4506WAT     H113760   3.604   3.490   0.100
 4506WAT     H213761   3.715   3.380   0.150
 4507WAT      O13762   3.546   0.244   0.719
 4507WAT     H113763   3.574   0.323   0.665
 4507WAT     H213764   3.618   0.174   0.715
 4508WAT      O13765   8.975   4.569   5.906
 4508WAT     H113766   8.935   4.480   5.928
 4508WAT     H213767   8.961   4.589   5.809
 4509WAT      O13768   1.499   4.485   0.393
 4509WAT     H113769   1.515   4.566   0.336
 4509WAT     H213770   1.448   4.511   0.475
 4510WAT      O13771   9.699   3.989   2.366
 4510WAT     H113772   9.746   4.065   2.411
 4510WAT     H213773   9.604   3.985   2.397
 4511WAT      O13774   2.944   4.567   9.777
 4511WAT     H113775   2.918   4.594   9.870
 4511WAT     H213776   2.971   4.647   9.725
 4512WAT      O13777   4.848   6.721   4.132
 4512WAT     H113778   4.809   6.779   4.203
 4512WAT     H213779   4.773   6.675   4.083
 4513WAT      O13780   0.014   2.197   1.252
 4513WAT     H113781   0.036   2.152   1.339
 4513WAT     H213782  -0.058   2.146   1.206
 4514WAT      O13783   3.570   1.965   0.388
 4514WAT     H113784   3.587   1.902   0.464
 4514WAT     H213785   3.626   1.939   0.310
 4515WAT      O13786   4.783   4.729   7.615
 4515WAT     H113787   4.694   4.761   7.583
 4515WAT     H213788   4.855   4.763   7.554
 4516WAT      O13789   2.994   0.835   3.742
 4516WAT     H113790   2.991   0.736   3.739
 4516WAT     H213791   3.058   0.865   3.814
 4517WAT      O13792   4.570   5.056   0.045
 4517WAT     H113793   4.620   5.120   0.103
 4517WAT     H213794   4.625   5.035  -0.037
 4518WAT      O13795   9.809   2.052   9.883
 4518WAT     H113796   9.712   2.038   9.900
 4518WAT     H213797   9.858   1.966   9.898
 4519WAT      O13798   5.138   5.902   5.993
 4519WAT     H113799   5.223   5.946   5.963
 4519WAT     H213800   5.086   5.872   5.913
 4520WAT      O13801   3.943   8.861   6.980
 4520WAT     H113802   4.005   8.871   7.058
 4520WAT     H213803   3.899   8.949   6.962
 4521WAT      O13804   6.418   6.103   9.465
 4521WAT     H113805   6.413   6.034   9.537
 4521WAT     H213806   6.514   6.114   9.436
 4522WAT      O13807   6.647   9.557   6.146
 4522WAT     H113808   6.593   9.551   6.230
 4522WAT     H213809   6.602   9.506   6.073
 4523WAT      O13810   1.063   6.570   0.468
 4523WAT     H113811   1.078   6.666   0.491
 4523WAT     H213812   1.151   6.524   0.458
 4524WAT      O13813   7.327   6.317   7.085
 4524WAT     H113814   7.339   6.235   7.141
 4524WAT     H213815   7.355   6.297   6.991
 4525WAT      O13816   4.391   1.687   4.351
 4525WAT     H113817   4.383   1.787   4.353
 4525WAT     H213818   4.305   1.646   4.381
 4526WAT      O13819   9.238   6.902   3.684
 4526WAT     H113820   9.183   6.905   3.768
 4526WAT     H213821   9.181   6.927   3.606
 4527WAT      O13822   0.058   9.209   8.160
 4527WAT     H113823   0.073   9.111   8.146
 4527WAT     H213824   0.071   9.258   8.074
 4528WAT      O13825   7.347   4.036   2.605
 4528WAT     H113826   7.319   4.023   2.510
 4528WAT     H213827   7.284   3.988   2.666
 4529WAT      O13828   6.984   4.004   4.299
 4529WAT     H113829   6.915   4.036   4.234
 4529WAT     H213830   6.949   3.925   4.349
 4530WAT      O13831   5.903   1.294   8.019
 4530WAT     H113832   5.884   1.195   8.017
 4530WAT     H213833   5.933   1.324   7.928
 4531WAT      O13834   9.446   5.465   9.074
 4531WAT     H113835   9.412   5.418   8.993
 4531WAT     H213836   9.429   5.409   9.155
 4532WAT      O13837   5.554   1.736   7.958
 4532WAT     H113838   5.531   1.718   7.863
 4532WAT     H213839   5.621   1.669   7.990
 4533WAT      O13840   9.081   4.599   5.055
 4533WAT     H113841   9.123   4.573   5.142
 4533WAT     H213842   9.010   4.668   5.072
 4534WAT      O13843   1.536   9.317   7.362
 4534WAT     H113844   1.569   9.226   7.337
 4534WAT     H213845   1.591   9.353   7.437
 4535WAT      O13846   1.595   6.299   1.154
 4535WAT     H113847   1.502   6.267   1.173
 4535WAT     H213848   1.650   6.291   1.237
 4536WAT      O13849   6.791   7.600   1.447
 4536WAT     H113850   6.701   7.578   1.484
 4536WAT     H213851   6.860   7.540   1.489
 4537WAT      O13852   5.154   6.736   7.251
 4537WAT     H113853   5.253   6.743   7.240
 4537WAT     H213854   5.111   6.821   7.222
 4538WAT      O13855   6.820   7.146   3.896
 4538WAT     H113856   6.742   7.198   3.860
 4538WAT     H213857   6.860   7.091   3.822
 4539WAT      O13858   5.874   1.235   6.634
 4539WAT     H113859   5.948   1.174   6.605
 4539WAT     H213860   5.914   1.317   6.677
 4540WAT      O13861   8.047   6.119   0.907
 4540WAT     H113862   8.002   6.044   0.857
 4540WAT     H213863   8.017   6.118   1.002
 4541WAT      O13864   1.956   3.523   3.057
 4541WAT     H113865   1.875   3.470   3.032
 4541WAT     H213866   1.943   3.564   3.147
 4542WAT      O13867   0.471   9.060   6.724
 4542WAT     H113868   0.548   9.115   6.758
 4542WAT     H213869   0.467   8.974   6.775
 4543WAT      O13870   3.513   0.779   7.328
 4543WAT     H113871   3.467   0.702   7.371
 4543WAT     H213872   3.576   0.821   7.393
 4544WAT      O13873   9.336   4.980   8.208
 4544WAT     H113874   9.354   4.933   8.122
 4544WAT     H213875   9.384   5.068   8.209
 4545WAT      O13876   5.038   7.757   6.015
 4545WAT     H113877   5.030   7.844   5.967
 4545WAT     H213878   5.108   7.764   6.085
 4546WAT      O13879   7.255   5.610   2.120
 4546WAT     H113880   7.220   5.696   2.159
 4546WAT     H213881   7.182   5.542   2.119
 4547WAT      O13882   7.753   6.805   9.076
 4547WAT     H113883   7.770   6.896   9.113
 4547WAT     H213884   7.654   6.792   9.063
 4548WAT      O13885   8.226   7.519   8.720
 4548WAT     H113886   8.309   7.568   8.747
 4548WAT     H213887   8.168   7.504   8.800
 4549WAT      O13888   1.762   1.809   3.709
 4549WAT     H113889   1.831   1.855   3.765
 4549WAT     H213890   1.688   1.873   3.688
 4550WAT      O13891   0.347   3.452   2.725
 4550WAT     H113892   0.396   3.452   2.812
 4550WAT     H213893   0.403   3.496   2.655
 4551WAT      O13894   5.493   6.556   0.382
 4551WAT     H113895   5.508   6.607   0.297
 4551WAT     H213896   5.443   6.472   0.363
 4552WAT      O13897   3.183   6.771   2.469
 4552WAT     H113898   3.221   6.721   2.546
 4552WAT     H213899   3.100   6.726   2.437
 4553WAT      O13900   9.069   0.492   6.762
 4553WAT     H113901   9.068   0.519   6.666
 4553WAT     H213902   9.054   0.394   6.770
 4554WAT      O13903   5.604   6.974   8.020
 4554WAT     H113904   5.571   6.999   7.929
 4554WAT     H213905   5.592   6.876   8.034
 4555WAT      O13906   9.710   4.333   0.556
 4555WAT     H113907   9.795   4.385   0.541
 4555WAT     H213908   9.668   4.361   0.641
 4556WAT      O13909   6.341   8.560   4.502
 4556WAT     H113910   6.252   8.593   4.532
 4556WAT     H213911   6.357   8.588   4.408
 4557WAT      O13912   1.156   7.456   9.194
 4557WAT     H113913   1.195   7.490   9.280
 4557WAT     H213914   1.230   7.437   9.129
 4558WAT      O13915   4.949   2.086   9.513
 4558WAT     H113916   5.043   2.080   9.547
 4558WAT     H213917   4.939   2.169   9.457
 4559WAT      O13918   2.025   5.241   0.938
 4559WAT     H113919   1.951   5.297   0.902
 4559WAT     H213920   1.989   5.177   1.005
 4560WAT      O13921   2.563   0.154   5.951
 4560WAT     H113922   2.643   0.095   5.938
 4560WAT     H213923   2.542   0.201   5.865
 4561WAT      O13924   2.750   1.393   3.339
 4561WAT     H113925   2.838   1.436   3.359
 4561WAT     H213926   2.727   1.328   3.411
 4562WAT      O13927   2.687   7.431   4.552
 4562WAT     H113928   2.663   7.414   4.456
 4562WAT     H213929   2.692   7.529   4.569
 4563WAT      O13930   3.018   1.374   7.211
 4563WAT     H113931   3.026   1.327   7.299
 4563WAT     H213932   2.993   1.307   7.140
 4564WAT      O13933   8.485   7.472   5.463
 4564WAT     H113934   8.507   7.561   5.502
 4564WAT     H213935   8.451   7.411   5.535
 4565WAT      O13936   0.496   1.288   3.925
 4565WAT     H113937   0.577   1.274   3.982
 4565WAT     H213938   0.427   1.219   3.947
 4566WAT      O13939   2.136   3.638   8.357
 4566WAT     H113940   2.205   3.670   8.422
 4566WAT     H213941   2.155   3.675   8.267
 4567WAT      O13942   5.190   9.196   4.947
 4567WAT     H113943   5.126   9.157   4.880
 4567WAT     H213944   5.277   9.148   4.941
 4568WAT      O13945   5.572   8.126   3.607
 4568WAT     H113946   5.533   8.158   3.520
 4568WAT     H213947   5.593   8.028   3.599
 4569WAT      O13948   8.789   2.376   6.018
 4569WAT     H113949   8.759   2.373   6.113
 4569WAT     H213950   8.709   2.384   5.958
 4570WAT      O13951   0.770   1.090   3.723
 4570WAT     H113952   0.861   1.068   3.760
 4570WAT     H213953   0.721   1.147   3.789
 4571WAT      O13954   5.511   4.395   3.606
 4571WAT     H113955   5.502   4.296   3.614
 4571WAT     H213956   5.569   4.429   3.680
 4572WAT      O13957   7.531   3.212   5.220
 4572WAT     H113958   7.494   3.126   5.184
 4572WAT     H213959   7.605   3.192   5.284
 4573WAT      O13960   0.165   4.310   5.908
 4573WAT     H113961   0.134   4.297   5.814
 4573WAT     H213962   0.125   4.239   5.967
 4574WAT      O13963   5.285   8.979   9.377
 4574WAT     H113964   5.248   9.071   9.366
 4574WAT     H213965   5.216   8.920   9.418
 4575WAT      O13966   7.272   3.239   1.780
 4575WAT     H113967   7.211   3.247   1.702
 4575WAT     H213968   7.356   3.193   1.752
 4576WAT      O13969   0.089   2.099   2.867
 4576WAT     H113970   0.013   2.163   2.875
 4576WAT     H213971   0.129   2.083   2.958
 4577WAT      O13972   5.065   5.602   4.757
 4577WAT     H113973   5.078   5.576   4.852
 4577WAT     H213974   5.152   5.593   4.708
 4578WAT      O13975   7.511   0.485   0.705
 4578WAT     H113976   7.584   0.512   0.769
 4578WAT     H213977   7.489   0.388   0.719
 4579WAT      O13978   8.639   7.560   1.364
 4579WAT     H113979   8.615   7.609   1.280
 4579WAT     H213980   8.615   7.464   1.354
 4580WAT      O13981   3.571   8.182   6.751
 4580WAT     H113982   3.598   8.087   6.738
 4580WAT     H213983   3.496   8.186   6.818
 4581WAT      O13984   4.313   7.051   1.561
 4581WAT     H113985   4.353   7.142   1.554
 4581WAT     H213986   4.223   7.057   1.606
 4582WAT      O13987   4.817   8.531   2.032
 4582WAT     H113988   4.785   8.597   1.965
 4582WAT     H213989   4.888   8.473   1.992
 4583WAT      O13990   4.220   9.622   2.949
 4583WAT     H113991   4.125   9.594   2.958
 4583WAT     H213992   4.242   9.638   2.853
 4584WAT      O13993   2.871   0.045   8.106
 4584WAT     H113994   2.778   0.015   8.085
 4584WAT     H213995   2.923   0.054   8.021
 4585WAT      O13996   1.054   6.141   9.246
 4585WAT     H113997   1.046   6.123   9.148
 4585WAT     H213998   1.015   6.231   9.267
 4586WAT      O13999   8.008   1.446   3.935
 4586WAT     H114000   8.023   1.357   3.978
 4586WAT     H214001   8.002   1.434   3.836
 4587WAT      O14002   3.189   7.370   2.927
 4587WAT     H114003   3.095   7.387   2.896
 4587WAT     H214004   3.251   7.373   2.848
 4588WAT      O14005   7.840   7.130   8.811
 4588WAT     H114006   7.808   7.161   8.900
 4588WAT     H214007   7.862   7.032   8.815
 4589WAT      O14008   2.146   8.564   9.353
 4589WAT     H114009   2.124   8.585   9.258
 4589WAT     H214010   2.245   8.577   9.368
 4590WAT      O14011   0.940   1.106   1.005
 4590WAT     H114012   0.943   1.119   0.906
 4590WAT     H214013   0.916   1.011   1.026
 4591WAT      O14014   1.379   8.180   6.856
 4591WAT     H114015   1.450   8.116   6.828
 4591WAT     H214016   1.374   8.255   6.790
 4592WAT      O14017   6.446   5.154   4.050
 4592WAT     H114018   6.470   5.237   4.099
 4592WAT     H214019   6.530   5.105   4.024
 4593WAT      O14020   1.955   5.838   3.861
 4593WAT     H114021   2.028   5.899   3.891
 4593WAT     H214022   1.892   5.888   3.802
 4594WAT      O14023   4.637   0.560   6.644
 4594WAT     H114024   4.595   0.493   6.705
 4594WAT     H214025   4.628   0.652   6.683
 4595WAT      O14026   9.330   0.819   4.386
 4595WAT     H114027   9.294   0.833   4.478
 4595WAT     H214028   9.378   0.902   4.356
 4596WAT      O14029   9.887   3.411   5.905
 4596WAT     H114030   9.847   3.502   5.919
 4596WAT     H214031   9.831   3.342   5.949
 4597WAT      O14032   5.993   8.933   1.905
 4597WAT     H114033   6.045   8.899   1.983
 4597WAT     H214034   5.957   8.856   1.851
 4598WAT      O14035   3.869   0.051   7.450
 4598WAT     H114036   3.814   0.028   7.370
 4598WAT     H214037   3.855  -0.018   7.521
 4599WAT      O14038   9.336   9.399   2.257
 4599WAT     H114039   9.297   9.426   2.345
 4599WAT     H214040   9.434   9.420   2.257
 4600WAT      O14041   4.396   5.225   0.491
 4600WAT     H114042   4.353   5.260   0.408
 4600WAT     H214043   4.373   5.128   0.502
 4601WAT      O14044   2.036   1.546   4.856
 4601WAT     H114045   2.124   1.591   4.869
 4601WAT     H214046   2.050   1.447   4.847
 4602WAT      O14047   8.287   8.623   0.249
 4602WAT     H114048   8.319   8.702   0.301
 4602WAT     H214049   8.364   8.579   0.205
 4603WAT      O14050   9.508   6.320   3.325
 4603WAT     H114051   9.541   6.391   3.262
 4603WAT     H214052   9.489   6.237   3.274
 4604WAT      O14053   8.610   7.319   6.168
 4604WAT     H114054   8.688   7.333   6.228
 4604WAT     H214055   8.586   7.222   6.165
 4605WAT      O14056   2.259   1.538   2.626
 4605WAT     H114057   2.256   1.440   2.647
 4605WAT     H214058   2.303   1.587   2.701
 4606WAT      O14059   6.379   6.258   1.709
 4606WAT     H114060   6.380   6.191   1.784
 4606WAT     H214061   6.285   6.284   1.689
 4607WAT      O14062   4.563   1.415   0.659
 4607WAT     H114063   4.547   1.490   0.723
 4607WAT     H214064   4.643   1.437   0.602
 4608WAT      O14065   6.554   5.672   0.851
 4608WAT     H114066   6.484   5.648   0.918
 4608WAT     H214067   6.644   5.668   0.894
 4609WAT      O14068   3.694   6.104   4.940
 4609WAT     H114069   3.612   6.156   4.921
 4609WAT     H214070   3.680   6.049   5.022
 4610WAT      O14071   1.262   7.591   6.642
 4610WAT     H114072   1.306   7.505   6.615
 4610WAT     H214073   1.307   7.667   6.595
 4611WAT      O14074   5.538   8.757   1.445
 4611WAT     H114075   5.610   8.710   1.494
 4611WAT     H214076   5.476   8.801   1.510
 4612WAT      O14077   5.671   3.476   2.507
 4612WAT     H114078   5.619   3.418   2.571
 4612WAT     H214079   5.710   3.419   2.435
 4613WAT      O14080   2.891   3.364   7.986
 4613WAT     H114081   2.921   3.345   7.892
 4613WAT     H214082   2.809   3.312   8.006
 4614WAT      O14083   3.777   3.616   3.556
 4614WAT     H114084   3.782   3.566   3.642
 4614WAT     H214085   3.861   3.669   3.544
 4615WAT      O14086   7.458   6.594   1.078
 4615WAT     H114087   7.552   6.572   1.105
 4615WAT     H214088   7.456   6.615   0.980
 4616WAT      O14089   4.815   5.072   7.089
 4616WAT     H114090   4.848   5.018   7.011
 4616WAT     H214091   4.752   5.143   7.057
 4617WAT      O14092   4.645   0.921   0.770
 4617WAT     H114093   4.709   0.917   0.847
 4617WAT     H214094   4.665   1.002   0.714
 4618WAT      O14095   3.828   9.114   4.731
 4618WAT     H114096   3.903   9.131   4.667
 4618WAT     H214097   3.762   9.051   4.689
 4619WAT      O14098   2.581   6.142   0.232
 4619WAT     H114099   2.652   6.072   0.219
 4619WAT     H214100   2.546   6.169   0.142
 4620WAT      O14101   8.505   5.454   4.422
 4620WAT     H114102   8.560   5.418   4.497
 4620WAT     H214103   8.420   5.493   4.458
 4621WAT      O14104   9.364   8.832   5.586
 4621WAT     H114105   9.297   8.871   5.650
 4621WAT     H214106   9.419   8.763   5.633
 4622WAT      O14107   9.202   4.226   0.560
 4622WAT     H114108   9.280   4.206   0.620
 4622WAT     H214109   9.126   4.166   0.583
 4623WAT      O14110   7.688   0.616   4.516
 4623WAT     H114111   7.647   0.693   4.467
 4623WAT     H214112   7.690   0.536   4.457
 4624WAT      O14113   1.181   5.190   0.528
 4624WAT     H114114   1.243   5.135   0.472
 4624WAT     H214115   1.154   5.272   0.477
 4625WAT      O14116   9.166   5.666   1.112
 4625WAT     H114117   9.071   5.648   1.088
 4625WAT     H214118   9.204   5.586   1.160
 4626WAT      O14119   4.277   0.494   0.851
 4626WAT     H114120   4.212   0.571   0.847
 4626WAT     H214121   4.368   0.526   0.825
 4627WAT      O14122   9.342   0.707   9.127
 4627WAT     H114123   9.356   0.622   9.078
 4627WAT     H214124   9.248   0.712   9.160
 4628WAT      O14125   6.430   0.114   2.315
 4628WAT     H114126   6.408   0.050   2.389
 4628WAT     H214127   6.442   0.206   2.353
 4629WAT      O14128   2.912   7.906   0.572
 4629WAT     H114129   2.886   7.830   0.631
 4629WAT     H214130   2.988   7.956   0.613
 4630WAT      O14131   0.171   6.442   0.890
 4630WAT     H114132   0.099   6.504   0.920
 4630WAT     H214133   0.237   6.492   0.834
 4631WAT      O14134   7.471   1.761   7.437
 4631WAT     H114135   7.519   1.846   7.459
 4631WAT     H214136   7.377   1.782   7.409
 4632WAT      O14137   2.425   8.751   6.429
 4632WAT     H114138   2.347   8.782   6.375
 4632WAT     H214139   2.454   8.661   6.396
 4633WAT      O14140   5.786   9.775   9.542
 4633WAT     H114141   5.825   9.851   9.594
 4633WAT     H214142   5.739   9.809   9.461
 4634WAT      O14143   4.213   3.807   7.811
 4634WAT     H114144   4.200   3.718   7.768
 4634WAT     H214145   4.275   3.798   7.889
 4635WAT      O14146   8.514   4.429   2.540
 4635WAT     H114147   8.535   4.468   2.450
 4635WAT     H214148   8.579   4.466   2.607
 4636WAT      O14149   0.699   6.071   4.187
 4636WAT     H114150   0.666   6.090   4.094
 4636WAT     H214151   0.726   5.975   4.194
 4637WAT      O14152   2.889   0.503   0.649
 4637WAT     H114153   2.888   0.406   0.624
 4637WAT     H214154   2.964   0.521   0.712
 4638WAT      O14155   6.634   3.711   9.110
 4638WAT     H114156   6.717   3.702   9.055
 4638WAT     H214157   6.553   3.705   9.051
 4639WAT      O14158   3.288   1.117   5.886
 4639WAT     H114159   3.360   1.125   5.955
 4639WAT     H214160   3.260   1.208   5.857
 4640WAT      O14161   3.692   4.747   4.830
 4640WAT     H114162   3.681   4.842   4.859
 4640WAT     H214163   3.607   4.715   4.789
 4641WAT      O14164   6.850   1.152   7.838
 4641WAT     H114165   6.802   1.184   7.921
 4641WAT     H214166   6.857   1.228   7.773
 4642WAT      O14167   0.869   0.078   3.679
 4642WAT     H114168   0.902  -0.017   3.682
 4642WAT     H214169   0.857   0.105   3.583
 4643WAT      O14170   2.933   0.004   2.079
 4643WAT     H114171   2.953   0.077   2.145
 4643WAT     H214172   2.890   0.043   1.998
 4644WAT      O14173   9.345   5.343   3.655
 4644WAT     H114174   9.293   5.264   3.621
 4644WAT     H214175   9.291   5.390   3.724
 4645WAT      O14176   8.092   4.399   3.803
 4645WAT     H114177   8.103   4.308   3.763
 4645WAT     H214178   8.040   4.457   3.741
 4646WAT      O14179   7.426   3.552   4.065
 4646WAT     H114180   7.411   3.523   3.971
 4646WAT     H214181   7.437   3.651   4.069
 4647WAT      O14182   0.752   3.014   6.666
 4647WAT     H114183   0.848   3.021   6.694
 4647WAT     H214184   0.697   3.079   6.718
 4648WAT      O14185   0.102   1.810   4.829
 4648WAT     H114186   0.157   1.889   4.855
 4648WAT     H214187   0.158   1.748   4.774
 4649WAT      O14188   4.212   0.064   6.296
 4649WAT     H114189   4.160  -0.022   6.306
 4649WAT     H214190   4.281   0.053   6.225
 4650WAT      O14191   9.493   1.638   0.763
 4650WAT     H114192   9.454   1.630   0.855
 4650WAT     H214193   9.556   1.562   0.747
 4651WAT      O14194   7.551   0.196   6.120
 4651WAT     H114195   7.601   0.244   6.192
 4651WAT     H214196   7.509   0.263   6.059
 4652WAT      O14197   3.287   1.369   5.758
 4652WAT     H114198   3.212   1.417   5.803
 4652WAT     H214199   3.373   1.393   5.802
 4653WAT      O14200   8.833   9.356   0.335
 4653WAT     H114201   8.767   9.374   0.261
 4653WAT     H214202   8.806   9.274   0.385
 4654WAT      O14203   3.252   4.482   4.317
 4654WAT     H114204   3.250   4.493   4.416
 4654WAT     H214205   3.347   4.479   4.286
 4655WAT      O14206   0.558   9.574   9.743
 4655WAT     H114207   0.626   9.597   9.813
 4655WAT     H214208   0.600   9.584   9.653
 4656WAT      O14209   0.642   7.697   1.080
 4656WAT     H114210   0.626   7.758   1.157
 4656WAT     H214211   0.556   7.652   1.055
 4657WAT      O14212   0.676   1.069   7.395
 4657WAT     H114213   0.675   1.067   7.495
 4657WAT     H214214   0.590   1.110   7.362
 4658WAT      O14215   5.369   8.176   7.755
 4658WAT     H114216   5.369   8.163   7.656
 4658WAT     H214217   5.464   8.175   7.788
 4659WAT      O14218   3.340   5.317   7.887
 4659WAT     H114219   3.267   5.305   7.954
 4659WAT     H214220   3.353   5.231   7.837
 4660WAT      O14221   9.770   3.914   7.569
 4660WAT     H114222   9.778   3.944   7.664
 4660WAT     H214223   9.683   3.945   7.531
 4661WAT      O14224   2.029   6.925   2.586
 4661WAT     H114225   2.113   6.954   2.539
 4661WAT     H214226   1.954   6.986   2.560
 4662WAT      O14227   2.740   3.905   0.659
 4662WAT     H114228   2.748   3.946   0.750
 4662WAT     H214229   2.820   3.929   0.604
 4663WAT      O14230   7.849   6.863   5.441
 4663WAT     H114231   7.783   6.933   5.416
 4663WAT     H214232   7.825   6.777   5.395
 4664WAT      O14233   9.482   5.660   1.324
 4664WAT     H114234   9.569   5.704   1.346
 4664WAT     H214235   9.489   5.561   1.340
 4665WAT      O14236   7.754   7.909   8.888
 4665WAT     H114237   7.678   7.846   8.873
 4665WAT     H214238   7.763   7.928   8.986
 4666WAT      O14239   2.830   1.579   1.459
 4666WAT     H114240   2.741   1.625   1.454
 4666WAT     H214241   2.901   1.640   1.424
 4667WAT      O14242   2.387   0.796   6.152
 4667WAT     H114243   2.324   0.757   6.218
 4667WAT     H214244   2.477   0.809   6.195
 4668WAT      O14245   6.776   9.300   2.211
 4668WAT     H114246   6.818   9.236   2.276
 4668WAT     H214247   6.719   9.365   2.261
 4669WAT      O14248   7.607   5.823   6.718
 4669WAT     H114249   7.701   5.842   6.747
 4669WAT     H214250   7.543   5.854   6.788
 4670WAT      O14251   4.722   3.724   2.494
 4670WAT     H114252   4.781   3.728   2.414
 4670WAT     H214253   4.758   3.785   2.565
 4671WAT      O14254   2.099   3.868   7.684
 4671WAT     H114255   2.067   3.925   7.608
 4671WAT     H214256   2.025   3.859   7.751
 4672WAT      O14257   5.690   7.881   5.615
 4672WAT     H114258   5.729   7.973   5.613
 4672WAT     H214259   5.593   7.884   5.595
 4673WAT      O14260   4.645   2.305   4.867
 4673WAT     H114261   4.666   2.347   4.956
 4673WAT     H214262   4.730   2.291   4.817
 4674WAT      O14263   3.528   3.193   7.966
 4674WAT     H114264   3.429   3.208   7.970
 4674WAT     H214265   3.546   3.100   7.934
 4675WAT      O14266   4.887   6.122   2.075
 4675WAT     H114267   4.845   6.114   1.984
 4675WAT     H214268   4.913   6.217   2.091
 4676WAT      O14269   3.301   4.332   1.121
 4676WAT     H114270   3.292   4.344   1.022
 4676WAT     H214271   3.272   4.239   1.146
 4677WAT      O14272   2.774   2.022   8.486
 4677WAT     H114273   2.677   2.001   8.501
 4677WAT     H214274   2.790   2.038   8.389
 4678WAT      O14275   2.807   3.805   8.949
 4678WAT     H114276   2.751   3.722   8.955
 4678WAT     H214277   2.888   3.795   9.006
 4679WAT      O14278   8.521   1.724   4.545
 4679WAT     H114279   8.486   1.657   4.480
 4679WAT     H214280   8.454   1.798   4.556
 4680WAT      O14281   8.270   0.890   5.879
 4680WAT     H114282   8.271   0.982   5.918
 4680WAT     H214283   8.327   0.829   5.935
 4681WAT      O14284   4.552   5.487   4.791
 4681WAT     H114285   4.557   5.431   4.874
 4681WAT     H214286   4.465   5.468   4.744
 4682WAT      O14287   7.565   3.007   3.844
 4682WAT     H114288   7.502   2.953   3.900
 4682WAT     H214289   7.607   3.078   3.899
 4683WAT      O14290   7.741   8.867   1.895
 4683WAT     H114291   7.729   8.774   1.860
 4683WAT     H214292   7.719   8.869   1.992
 4684WAT      O14293   8.534   7.718   5.557
 4684WAT     H114294   8.435   7.729   5.543
 4684WAT     H214295   8.584   7.765   5.485
 4685WAT      O14296   9.834   8.236   0.621
 4685WAT     H114297   9.797   8.328   0.632
 4685WAT     H214298   9.781   8.172   0.675
 4686WAT      O14299   4.360   8.042   5.586
 4686WAT     H114300   4.459   8.036   5.596
 4686WAT     H214301   4.338   8.109   5.515
 4687WAT      O14302   9.796   8.935   4.882
 4687WAT     H114303   9.880   8.978   4.851
 4687WAT     H214304   9.816   8.875   4.960
 4688WAT      O14305   9.083   0.127   1.345
 4688WAT     H114306   9.103   0.211   1.294
 4688WAT     H214307   9.161   0.066   1.342
 4689WAT      O14308   0.770   0.024   4.918
 4689WAT     H114309   0.726   0.062   4.836
 4689WAT     H214310   0.869   0.025   4.906
 4690WAT      O14311   1.929   7.485   9.524
 4690WAT     H114312   1.980   7.422   9.582
 4690WAT     H214313   1.983   7.507   9.442
 4691WAT      O14314   1.026   8.282   2.534
 4691WAT     H114315   1.011   8.255   2.439
 4691WAT     H214316   0.964   8.229   2.594
 4692WAT      O14317   6.187   2.673   3.604
 4692WAT     H114318   6.117   2.650   3.536
 4692WAT     H214319   6.143   2.693   3.691
 4693WAT      O14320   9.350   5.334   2.200
 4693WAT     H114321   9.389   5.410   2.252
 4693WAT     H214322   9.326   5.366   2.108
 4694WAT      O14323   3.621   9.254   0.715
 4694WAT     H114324   3.679   9.286   0.641
 4694WAT     H214325   3.642   9.158   0.736
 4695WAT      O14326   3.011   3.434   4.421
 4695WAT     H114327   3.101   3.404   4.455
 4695WAT     H214328   2.950   3.355   4.416
 4696WAT      O14329   2.816   8.270   1.474
 4696WAT     H114330   2.849   8.278   1.380
 4696WAT     H214331   2.853   8.344   1.529
 4697WAT      O14332   4.466   2.893   3.012
 4697WAT     H114333   4.474   2.958   3.088
 4697WAT     H214334   4.526   2.922   2.937
 4698WAT      O14335   3.725   3.141   1.847
 4698WAT     H114336   3.822   3.155   1.827
 4698WAT     H214337   3.691   3.062   1.796
 4699WAT      O14338   6.177   3.936   1.377
 4699WAT     H114339   6.208   3.915   1.284
 4699WAT     H214340   6.121   4.019   1.376
 4700WAT      O14341   9.308   5.911   4.538
 4700WAT     H114342   9.269   5.929   4.447
 4700WAT     H214343   9.345   5.819   4.541
 4701WAT      O14344   1.601   2.063   4.462
 4701WAT     H114345   1.511   2.084   4.499
 4701WAT     H214346   1.640   1.985   4.512
 4702WAT      O14347   9.688   8.173   8.077
 4702WAT     H114348   9.606   8.136   8.034
 4702WAT     H214349   9.766   8.114   8.056
 4703WAT      O14350   9.876   2.769   4.668
 4703WAT     H114351   9.801   2.734   4.725
 4703WAT     H214352   9.860   2.865   4.647
 4704WAT      O14353   1.502   2.067   7.967
 4704WAT     H114354   1.589   2.019   7.956
 4704WAT     H214355   1.455   2.034   8.048
 4705WAT      O14356   9.846   9.656   1.795
 4705WAT     H114357   9.759   9.642   1.748
 4705WAT     H214358   9.886   9.567   1.817
 4706WAT      O14359   3.684   8.742   6.306
 4706WAT     H114360   3.688   8.707   6.399
 4706WAT     H214361   3.773   8.781   6.282
 4707WAT      O14362   8.286   2.113   5.126
 4707WAT     H114363   8.283   2.014   5.142
 4707WAT     H214364   8.380   2.145   5.135
 4708WAT      O14365   2.907   1.683   0.477
 4708WAT     H114366   2.960   1.763   0.503
 4708WAT     H214367   2.821   1.682   0.529
 4709WAT      O14368   5.899   6.215   2.985
 4709WAT     H114369   5.993   6.182   3.000
 4709WAT     H214370   5.891   6.251   2.892
 4710WAT      O14371   3.681   0.995   3.797
 4710WAT     H114372   3.728   0.971   3.712
 4710WAT     H214373   3.712   0.935   3.871
 4711WAT      O14374   6.174   5.983   9.414
 4711WAT     H114375   6.130   6.002   9.326
 4711WAT     H214376   6.255   6.041   9.423
 4712WAT      O14377   6.355   5.597   9.790
 4712WAT     H114378   6.451   5.569   9.782
 4712WAT     H214379   6.310   5.587   9.702
 4713WAT      O14380   5.041   6.624   0.840
 4713WAT     H114381   5.034   6.527   0.862
 4713WAT     H214382   5.137   6.651   0.839
 4714WAT      O14383   1.476   9.040   6.232
 4714WAT     H114384   1.421   9.121   6.252
 4714WAT     H214385   1.443   8.963   6.286
 4715WAT      O14386   4.805   3.131   5.830
 4715WAT     H114387   4.708   3.109   5.839
 4715WAT     H214388   4.859   3.050   5.852
 4716WAT      O14389   1.089   1.754   3.205
 4716WAT     H114390   1.111   1.659   3.224
 4716WAT     H214391   1.166   1.796   3.156
 4717WAT      O14392   2.059   3.883   1.686
 4717WAT     H114393   2.034   3.934   1.768
 4717WAT     H214394   2.018   3.792   1.689
 4718WAT      O14395   7.481   0.724   1.580
 4718WAT     H114396   7.511   0.671   1.658
 4718WAT     H214397   7.390   0.763   1.598
 4719WAT      O14398   1.626   3.453   9.206
 4719WAT     H114399   1.621   3.496   9.296
 4719WAT     H214400   1.538   3.463   9.159
 4720WAT      O14401   5.020   0.642   3.734
 4720WAT     H114402   4.983   0.613   3.645
 4720WAT     H214403   5.070   0.567   3.776
 4721WAT      O14404   5.406   6.443   6.889
 4721WAT     H114405   5.466   6.379   6.937
 4721WAT     H214406   5.420   6.435   6.791
 4722WAT      O14407   1.366   9.404   2.631
 4722WAT     H114408   1.363   9.305   2.644
 4722WAT     H214409   1.353   9.426   2.535
 4723WAT      O14410   8.350   9.390   4.887
 4723WAT     H114411   8.284   9.316   4.903
 4723WAT     H214412   8.354   9.449   4.968
 4724WAT      O14413   9.605   7.978   9.470
 4724WAT     H114414   9.614   8.063   9.522
 4724WAT     H214415   9.679   7.915   9.495
 4725WAT      O14416   2.097   0.602   3.824
 4725WAT     H114417   2.162   0.665   3.868
 4725WAT     H214418   2.064   0.643   3.739
 4726WAT      O14419   1.301   9.353   7.957
 4726WAT     H114420   1.211   9.313   7.940
 4726WAT     H214421   1.296   9.415   8.035
 4727WAT      O14422   5.719   5.972   5.582
 4727WAT     H114423   5.810   5.964   5.621
 4727WAT     H214424   5.692   5.886   5.539
 4728WAT      O14425   6.042   7.442   7.581
 4728WAT     H114426   6.135   7.413   7.559
 4728WAT     H214427   6.045   7.527   7.634
 4729WAT      O14428   1.702   7.351   6.938
 4729WAT     H114429   1.766   7.401   6.879
 4729WAT     H214430   1.619   7.407   6.951
 4730WAT      O14431   8.078   7.887   2.475
 4730WAT     H114432   8.043   7.968   2.521
 4730WAT     H214433   8.067   7.896   2.376
 4731WAT      O14434   3.641   4.942   0.893
 4731WAT     H114435   3.665   4.852   0.929
 4731WAT     H214436   3.638   5.008   0.969
 4732WAT      O14437   2.439   6.986   3.004
 4732WAT     H114438   2.374   6.916   2.974
 4732WAT     H214439   2.529   6.967   2.965
 4733WAT      O14440   8.900   5.750   4.206
 4733WAT     H114441   8.826   5.685   4.223
 4733WAT     H214442   8.926   5.747   4.109
 4734WAT      O14443   8.376   6.823   9.189
 4734WAT     H114444   8.376   6.723   9.178
 4734WAT     H214445   8.349   6.866   9.103
 4735WAT      O14446   7.521   1.807   7.982
 4735WAT     H114447   7.434   1.759   7.973
 4735WAT     H214448   7.506   1.893   8.032
 4736WAT      O14449   7.115   9.105   7.274
 4736WAT     H114450   7.144   9.055   7.192
 4736WAT     H214451   7.195   9.149   7.316
 4737WAT      O14452   3.852   5.269   0.070
 4737WAT     H114453   3.840   5.324   0.152
 4737WAT     H214454   3.949   5.254   0.053
 4738WAT      O14455   0.904   9.129   5.997
 4738WAT     H114456   0.879   9.226   6.006
 4738WAT     H214457   0.913   9.106   5.900
 4739WAT      O14458   2.567   6.261   9.312
 4739WAT     H114459   2.651   6.313   9.299
 4739WAT     H214460   2.514   6.301   9.387
 4740WAT      O14461   0.486   7.836   3.621
 4740WAT     H114462   0.438   7.850   3.707
 4740WAT     H214463   0.585   7.846   3.636
 4741WAT      O14464   2.411   7.121   4.843
 4741WAT     H114465   2.323   7.118   4.891
 4741WAT     H214466   2.415   7.202   4.785
 4742WAT      O14467   2.167   8.020   5.828
 4742WAT     H114468   2.232   8.094   5.813
 4742WAT     H214469   2.138   7.983   5.740
 4743WAT      O14470   0.530   3.081   5.034
 4743WAT     H114471   0.494   3.019   4.964
 4743WAT     H214472   0.621   3.113   5.006
 4744WAT      O14473   6.662   6.811   0.094
 4744WAT     H114474   6.665   6.897   0.043
 4744WAT     H214475   6.635   6.737   0.032
 4745WAT      O14476   5.800   9.584   3.474
 4745WAT     H114477   5.791   9.684   3.473
 4745WAT     H214478   5.897   9.560   3.466
 4746WAT      O14479   9.542   8.822   9.697
 4746WAT     H114480   9.572   8.801   9.790
 4746WAT     H214481   9.497   8.911   9.696
 4747WAT      O14482   7.996   1.220   9.317
 4747WAT     H114483   7.989   1.269   9.230
 4747WAT     H214484   7.953   1.130   9.308
 4748WAT      O14485   5.533   0.939   2.845
 4748WAT     H114486   5.438   0.950   2.817
 4748WAT     H214487   5.550   0.842   2.865
 4749WAT      O14488   2.010   6.218   6.084
 4749WAT     H114489   2.067   6.294   6.051
 4749WAT     H214490   2.068   6.150   6.128
 4750WAT      O14491   4.218   4.011   2.168
 4750WAT     H114492   4.305   4.057   2.183
 4750WAT     H214493   4.162   4.018   2.251
 4751WAT      O14494   3.907   1.277   6.501
 4751WAT     H114495   3.872   1.338   6.430
 4751WAT     H214496   4.004   1.257   6.483
 4752WAT      O14497   5.553   1.040   6.003
 4752WAT     H114498   5.509   1.081   5.923
 4752WAT     H214499   5.505   1.067   6.086
 4753WAT      O14500   3.873   0.411   8.764
 4753WAT     H114501   3.815   0.334   8.790
 4753WAT     H214502   3.969   0.383   8.767
 4754WAT      O14503   8.911   4.217   4.203
 4754WAT     H114504   8.964   4.302   4.198
 4754WAT     H214505   8.902   4.189   4.298
 4755WAT      O14506   8.270   7.213   5.811
 4755WAT     H114507   8.282   7.145   5.883
 4755WAT     H214508   8.359   7.235   5.771
 4756WAT      O14509   8.590   4.823   3.077
 4756WAT     H114510   8.650   4.766   3.133
 4756WAT     H214511   8.614   4.919   3.090
 4757WAT      O14512   8.799   9.761   3.291
 4757WAT     H114513   8.748   9.773   3.376
 4757WAT     H214514   8.861   9.839   3.278
 4758WAT      O14515   2.078   2.885   2.544
 4758WAT     H114516   2.130   2.882   2.460
 4758WAT     H214517   1.985   2.918   2.525
 4759WAT      O14518   9.149   2.838   9.876
 4759WAT     H114519   9.050   2.852   9.876
 4759WAT     H214520   9.172   2.755   9.926
 4760WAT      O14521   9.007   5.521   6.043
 4760WAT     H114522   9.035   5.426   6.048
 4760WAT     H214523   9.084   5.578   6.013
 4761WAT      O14524   1.858   8.997   3.224
 4761WAT     H114525   1.910   9.043   3.152
 4761WAT     H214526   1.863   8.898   3.211
 4762WAT      O14527   4.088   0.446   9.078
 4762WAT     H114528   4.013   0.424   9.140
 4762WAT     H214529   4.079   0.539   9.045
 4763WAT      O14530   4.256   9.230   1.622
 4763WAT     H114531   4.196   9.165   1.575
 4763WAT     H214532   4.339   9.182   1.652
 4764WAT      O14533   6.469   9.331   3.352
 4764WAT     H114534   6.564   9.347   3.376
 4764WAT     H214535   6.427   9.270   3.420
 4765WAT      O14536   4.232   7.191   3.463
 4765WAT     H114537   4.331   7.200   3.460
 4765WAT     H214538   4.190   7.252   3.396
 4766WAT      O14539   4.345   3.313   3.047
 4766WAT     H114540   4.335   3.308   2.948
 4766WAT     H214541   4.255   3.320   3.090
 4767WAT      O14542   6.275   5.544   7.005
 4767WAT     H114543   6.290   5.446   7.018
 4767WAT     H214544   6.246   5.560   6.911
 4768WAT      O14545   0.897   5.247   7.492
 4768WAT     H114546   0.830   5.185   7.532
 4768WAT     H214547   0.887   5.248   7.393
 4769WAT      O14548   7.922   7.602   1.434
 4769WAT     H114549   7.825   7.625   1.420
 4769WAT     H214550   7.979   7.670   1.388
 4770WAT      O14551   5.630   7.055   5.777
 4770WAT     H114552   5.720   7.059   5.735
 4770WAT     H214553   5.560   7.073   5.707
 4771WAT      O14554   5.010   0.553   5.671
 4771WAT     H114555   5.066   0.566   5.589
 4771WAT     H214556   4.977   0.642   5.703
 4772WAT      O14557   1.736   6.595   5.789
 4772WAT     H114558   1.718   6.607   5.887
 4772WAT     H214559   1.654   6.558   5.745
 4773WAT      O14560   6.041   0.479   3.776
 4773WAT     H114561   6.108   0.469   3.702
 4773WAT     H214562   5.968   0.412   3.764
 4774WAT      O14563   0.030   5.952   5.334
 4774WAT     H114564   0.006   6.043   5.302
 4774WAT     H214565   0.066   5.899   5.257
 4775WAT      O14566   4.963   1.174   1.079
 4775WAT     H114567   4.939   1.225   1.162
 4775WAT     H214568   4.943   1.230   0.998
 4776WAT      O14569   5.070   9.052   1.894
 4776WAT     H114570   5.017   9.114   1.836
 4776WAT     H214571   5.040   9.061   1.989
 4777WAT      O14572   5.874   3.231   5.730
 4777WAT     H114573   5.942   3.266   5.794
 4777WAT     H214574   5.891   3.134   5.713
 4778WAT      O14575   1.344   3.688   0.298
 4778WAT     H114576   1.344   3.712   0.201
 4778WAT     H214577   1.276   3.616   0.314
 4779WAT      O14578   7.435   1.546   1.333
 4779WAT     H114579   7.383   1.581   1.256
 4779WAT     H214580   7.496   1.473   1.302
 4780WAT      O14581   4.789   2.300   8.749
 4780WAT     H114582   4.879   2.319   8.710
 4780WAT     H214583   4.788   2.326   8.845
 4781WAT      O14584   6.774   4.429   5.273
 4781WAT     H114585   6.840   4.436   5.348
 4781WAT     H214586   6.681   4.435   5.310
 4782WAT      O14587   6.579   3.885   8.451
 4782WAT     H114588   6.529   3.907   8.534
 4782WAT     H214589   6.668   3.930   8.453
 4783WAT      O14590   5.226   4.376   4.901
 4783WAT     H114591   5.287   4.428   4.842
 4783WAT     H214592   5.182   4.437   4.967
 4784WAT      O14593   6.779   1.451   6.104
 4784WAT     H114594   6.853   1.385   6.117
 4784WAT     H214595   6.780   1.485   6.010
 4785WAT      O14596   8.206   8.517   2.606
 4785WAT     H114597   8.242   8.547   2.517
 4785WAT     H214598   8.109   8.494   2.597
 4786WAT      O14599   4.331   8.243   2.729
 4786WAT     H114600   4.391   8.300   2.674
 4786WAT     H214601   4.356   8.251   2.826
 4787WAT      O14602   9.383   8.553   2.028
 4787WAT     H114603   9.475   8.550   1.990
 4787WAT     H214604   9.389   8.567   2.127
 4788WAT      O14605   3.226   8.954   0.738
 4788WAT     H114606   3.135   8.990   0.756
 4788WAT     H214607   3.295   9.023   0.760
 4789WAT      O14608   2.649   1.911   3.025
 4789WAT     H114609   2.613   1.965   3.101
 4789WAT     H214610   2.608   1.942   2.939
 4790WAT      O14611   5.188   2.583   4.814
 4790WAT     H114612   5.166   2.680   4.821
 4790WAT     H214613   5.122   2.537   4.755
 4791WAT      O14614   9.295   9.063   8.178
 4791WAT     H114615   9.206   9.094   8.213
 4791WAT     H214616   9.297   8.963   8.175
 4792WAT      O14617   1.468   2.999   1.141
 4792WAT     H114618   1.509   3.088   1.160
 4792WAT     H214619   1.467   2.983   1.043
 4793WAT      O14620   8.301   5.407   2.989
 4793WAT     H114621   8.378   5.464   2.962
 4793WAT     H214622   8.334   5.330   3.044
 4794WAT      O14623   8.295   7.752   2.490
 4794WAT     H114624   8.327   7.745   2.584
 4794WAT     H214625   8.213   7.809   2.487
 4795WAT      O14626   4.719   1.917   4.934
 4795WAT     H114627   4.755   1.951   4.847
 4795WAT     H214628   4.795   1.901   4.997
 4796WAT      O14629   4.822   2.786   7.665
 4796WAT     H114630   4.735   2.752   7.702
 4796WAT     H214631   4.869   2.840   7.734
 4797WAT      O14632   6.978   3.946   4.628
 4797WAT     H114633   6.921   3.916   4.551
 4797WAT     H214634   6.941   3.908   4.713
 4798WAT      O14635   6.843   5.503   0.018
 4798WAT     H114636   6.942   5.512   0.008
 4798WAT     H214637   6.821   5.412   0.053
 4799WAT      O14638   0.242   6.709   7.141
 4799WAT     H114639   0.267   6.804   7.158
 4799WAT     H214640   0.322   6.660   7.106
 4800WAT      O14641   0.902   7.587   1.019
 4800WAT     H114642   0.871   7.501   0.977
 4800WAT     H214643   0.823   7.644   1.040
 4801WAT      O14644   2.073   7.338   7.819
 4801WAT     H114645   2.031   7.248   7.813
 4801WAT     H214646   2.019   7.396   7.880
 4802WAT      O14647   2.382   4.137   4.464
 4802WAT     H114648   2.328   4.094   4.392
 4802WAT     H214649   2.395   4.072   4.539
 4803WAT      O14650   1.803   6.357   4.576
 4803WAT     H114651   1.862   6.308   4.640
 4803WAT     H214652   1.710   6.363   4.612
 4804WAT      O14653   3.595   3.758   3.719
 4804WAT     H114654   3.661   3.728   3.649
 4804WAT     H214655   3.588   3.688   3.790
 4805WAT      O14656   6.451   6.762   3.993
 4805WAT     H114657   6.412   6.780   3.902
 4805WAT     H214658   6.548   6.740   3.983
 4806WAT      O14659   6.718   9.705   3.744
 4806WAT     H114660   6.815   9.710   3.720
 4806WAT     H214661   6.692   9.789   3.792
 4807WAT      O14662   7.083   9.317   3.519
 4807WAT     H114663   7.168   9.264   3.525
 4807WAT     H214664   7.077   9.380   3.597
 4808WAT      O14665   1.853   6.411   6.121
 4808WAT     H114666   1.768   6.389   6.169
 4808WAT     H214667   1.905   6.327   6.106
 4809WAT      O14668   6.730   5.729   7.573
 4809WAT     H114669   6.630   5.722   7.567
 4809WAT     H214670   6.769   5.729   7.481
 4810WAT      O14671   8.944   4.990   3.413
 4810WAT     H114672   8.858   4.943   3.392
 4810WAT     H214673   8.944   5.019   3.509
 4811WAT      O14674   4.420   1.595   7.571
 4811WAT     H114675   4.500   1.542   7.544
 4811WAT     H214676   4.418   1.603   7.671
 4812WAT      O14677   4.477   9.617   3.943
 4812WAT     H114678   4.510   9.653   3.856
 4812WAT     H214679   4.394   9.667   3.970
 4813WAT      O14680   2.241   4.753   5.281
 4813WAT     H114681   2.328   4.793   5.252
 4813WAT     H214682   2.202   4.700   5.206
 4814WAT      O14683   5.152   6.979   3.537
 4814WAT     H114684   5.112   6.932   3.458
 4814WAT     H214685   5.132   6.927   3.620
 4815WAT      O14686   3.502   0.245   3.506
 4815WAT     H114687   3.471   0.319   3.446
 4815WAT     H214688   3.463   0.158   3.474
 4816WAT      O14689   5.021   8.984   3.881
 4816WAT     H114690   5.067   8.912   3.934
 4816WAT     H214691   4.973   9.046   3.944
 4817WAT      O14692   5.410   6.568   8.193
 4817WAT     H114693   5.420   6.623   8.276
 4817WAT     H214694   5.313   6.555   8.172
 4818WAT      O14695   8.094   3.041   6.025
 4818WAT     H114696   8.064   2.983   5.949
 4818WAT     H214697   8.034   3.026   6.104
 4819WAT      O14698   8.771   3.766   2.506
 4819WAT     H114699   8.696   3.832   2.501
 4819WAT     H214700   8.821   3.779   2.592
 4820WAT      O14701   9.092   0.936   0.578
 4820WAT     H114702   9.105   0.930   0.479
 4820WAT     H214703   9.072   1.031   0.603
 4821WAT      O14704   7.486   8.407   1.549
 4821WAT     H114705   7.577   8.407   1.590
 4821WAT     H214706   7.420   8.445   1.614
 4822WAT      O14707   8.013   6.905   1.121
 4822WAT     H114708   8.073   6.826   1.109
 4822WAT     H214709   7.970   6.901   1.211
 4823WAT      O14710   1.606   8.188   9.519
 4823WAT     H114711   1.591   8.124   9.444
 4823WAT     H214712   1.652   8.270   9.485
 4824WAT      O14713   8.742   4.549   8.198
 4824WAT     H114714   8.732   4.642   8.231
 4824WAT     H214715   8.715   4.544   8.101
 4825WAT      O14716   8.762   0.875   1.254
 4825WAT     H114717   8.785   0.972   1.260
 4825WAT     H214718   8.842   0.824   1.223
 4826WAT      O14719   8.421   2.333   6.307
 4826WAT     H114720   8.359   2.411   6.316
 4826WAT     H214721   8.515   2.363   6.320
 4827WAT      O14722   7.660   8.025   2.717
 4827WAT     H114723   7.731   7.975   2.768
 4827WAT     H214724   7.662   8.121   2.744
 4828WAT      O14725   9.588   0.325   9.083
 4828WAT     H114726   9.505   0.367   9.047
 4828WAT     H214727   9.667   0.358   9.030
 4829WAT      O14728   5.513   1.488   0.032
 4829WAT     H114729   5.440   1.457   0.094
 4829WAT     H214730   5.472   1.519  -0.054
 4830WAT      O14731   8.317   8.676   6.715
 4830WAT     H114732   8.352   8.686   6.622
 4830WAT     H214733   8.370   8.734   6.777
 4831WAT      O14734   8.990   9.231   7.931
 4831WAT     H114735   9.037   9.317   7.914
 4831WAT     H214736   9.023   9.191   8.017
 4832WAT      O14737   3.040   7.498   6.506
 4832WAT     H114738   2.973   7.452   6.447
 4832WAT     H214739   3.004   7.587   6.535
 4833WAT      O14740   1.601   0.719   7.190
 4833WAT     H114741   1.656   0.765   7.259
 4833WAT     H214742   1.509   0.705   7.225
 4834WAT      O14743   8.506   5.127   3.733
 4834WAT     H114744   8.444   5.133   3.812
 4834WAT     H214745   8.457   5.153   3.650
 4835WAT      O14746   1.268   2.439   7.576
 4835WAT     H114747   1.272   2.466   7.480
 4835WAT     H214748   1.335   2.491   7.629
 4836WAT      O14749   7.526   0.068   1.657
 4836WAT     H114750   7.531   0.122   1.574
 4836WAT     H214751   7.483  -0.020   1.637
 4837WAT      O14752   2.900   9.281   6.243
 4837WAT     H114753   2.910   9.265   6.341
 4837WAT     H214754   2.804   9.272   6.217
 4838WAT      O14755   9.326   0.450   6.937
 4838WAT     H114756   9.271   0.405   7.007
 4838WAT     H214757   9.267   0.493   6.870
 4839WAT      O14758   9.581   6.277   6.187
 4839WAT     H114759   9.501   6.237   6.232
 4839WAT     H214760   9.650   6.206   6.172
 4840WAT      O14761   5.017   5.817   7.691
 4840WAT     H114762   5.034   5.721   7.711
 4840WAT     H214763   5.097   5.857   7.648
 4841WAT      O14764   3.708   6.975   1.090
 4841WAT     H114765   3.761   6.940   1.167
 4841WAT     H214766   3.622   6.926   1.084
 4842WAT      O14767   7.095   7.052   4.254
 4842WAT     H114768   7.090   7.148   4.227
 4842WAT     H214769   7.071   6.994   4.176
 4843WAT      O14770   4.054   1.970   2.281
 4843WAT     H114771   4.140   1.923   2.262
 4843WAT     H214772   4.053   2.002   2.376
 4844WAT      O14773   7.497   0.171   3.126
 4844WAT     H114774   7.483   0.205   3.033
 4844WAT     H214775   7.532   0.077   3.122
 4845WAT      O14776   5.715   4.471   0.020
 4845WAT     H114777   5.725   4.496   0.117
 4845WAT     H214778   5.717   4.372   0.011
 4846WAT      O14779   1.263   4.771   4.672
 4846WAT     H114780   1.328   4.731   4.608
 4846WAT     H214781   1.204   4.837   4.624
 4847WAT      O14782   5.108   4.419   0.783
 4847WAT     H114783   5.059   4.489   0.733
 4847WAT     H214784   5.108   4.334   0.730
 4848WAT      O14785   7.794   5.285   3.384
 4848WAT     H114786   7.848   5.250   3.461
 4848WAT     H214787   7.812   5.230   3.303
 4849WAT      O14788   7.985   4.034   2.928
 4849WAT     H114789   7.966   3.983   3.012
 4849WAT     H214790   8.056   3.987   2.876
 4850WAT      O14791   8.503   6.761   2.708
 4850WAT     H114792   8.409   6.768   2.674
 4850WAT     H214793   8.543   6.675   2.677
 4851WAT      O14794   7.097   2.572   1.966
 4851WAT     H114795   7.179   2.561   1.910
 4851WAT     H214796   7.096   2.503   2.038
 4852WAT      O14797   4.458   8.665   2.908
 4852WAT     H114798   4.379   8.625   2.861
 4852WAT     H214799   4.490   8.746   2.857
 4853WAT      O14800   2.338   7.001   0.160
 4853WAT     H114801   2.420   6.985   0.215
 4853WAT     H214802   2.343   7.093   0.120
 4854WAT      O14803   4.362   3.539   0.692
 4854WAT     H114804   4.346   3.633   0.722
 4854WAT     H214805   4.460   3.525   0.676
 4855WAT      O14806   5.024   3.724   7.589
 4855WAT     H114807   5.123   3.721   7.602
 4855WAT     H214808   4.995   3.819   7.574
 4856WAT      O14809   9.863   8.186   6.683
 4856WAT     H114810   9.941   8.162   6.625
 4856WAT     H214811   9.893   8.190   6.779
 4857WAT      O14812   6.080   4.548   0.824
 4857WAT     H114813   6.053   4.473   0.885
 4857WAT     H214814   6.088   4.632   0.877
 4858WAT      O14815   4.828   5.026   8.766
 4858WAT     H114816   4.780   5.067   8.843
 4858WAT     H214817   4.775   4.948   8.732
 4859WAT      O14818   7.457   2.132   1.214
 4859WAT     H114819   7.523   2.203   1.190
 4859WAT     H214820   7.413   2.154   1.301
 4860WAT      O14821   1.921   8.725   1.107
 4860WAT     H114822   2.012   8.766   1.114
 4860WAT     H214823   1.856   8.778   1.162
 4861WAT      O14824   9.022   3.533   4.610
 4861WAT     H114825   8.979   3.538   4.520
 4861WAT     H214826   8.964   3.478   4.671
 4862WAT      O14827   9.856   7.877   2.112
 4862WAT     H114828   9.804   7.958   2.083
 4862WAT     H214829   9.796   7.816   2.163
 4863WAT      O14830   5.526   8.331   1.362
 4863WAT     H114831   5.487   8.309   1.451
 4863WAT     H214832   5.624   8.344   1.370
 4864WAT      O14833   8.880   0.002   3.746
 4864WAT     H114834   8.818   0.079   3.762
 4864WAT     H214835   8.965   0.036   3.705
 4865WAT      O14836   1.775   5.215   0.783
 4865WAT     H114837   1.691   5.237   0.734
 4865WAT     H214838   1.787   5.116   0.786
 4866WAT      O14839   9.574   1.325   8.204
 4866WAT     H114840   9.594   1.341   8.301
 4866WAT     H214841   9.532   1.407   8.165
 4867WAT      O14842   1.575   9.682   3.552
 4867WAT     H114843   1.604   9.682   3.456
 4867WAT     H214844   1.627   9.749   3.603
 4868WAT      O14845   4.948   2.717   2.985
 4868WAT     H114846   4.954   2.747   3.080
 4868WAT     H214847   5.013   2.768   2.930
 4869WAT      O14848   4.153   3.261   9.498
 4869WAT     H114849   4.153   3.303   9.407
 4869WAT     H214850   4.076   3.296   9.551
 4870WAT      O14851   5.209   0.227   0.025
 4870WAT     H114852   5.122   0.202   0.068
 4870WAT     H214853   5.191   0.273  -0.062
 4871WAT      O14854   0.417   6.334   3.937
 4871WAT     H114855   0.428   6.340   4.036
 4871WAT     H214856   0.400   6.425   3.900
 4872WAT      O14857   2.413   7.345   1.452
 4872WAT     H114858   2.460   7.340   1.540
 4872WAT     H214859   2.473   7.387   1.385
 4873WAT      O14860   0.630   3.339   7.980
 4873WAT     H114861   0.573   3.416   7.953
 4873WAT     H214862   0.573   3.266   8.019
 4874WAT      O14863   9.146   2.031   9.449
 4874WAT     H114864   9.066   1.973   9.463
 4874WAT     H214865   9.222   1.996   9.503
 4875WAT      O14866   8.334   9.420   5.191
 4875WAT     H114867   8.330   9.512   5.230
 4875WAT     H214868   8.391   9.361   5.248
 4876WAT      O14869   2.848   5.998   1.836
 4876WAT     H114870   2.931   5.948   1.860
 4876WAT     H214871   2.789   5.940   1.779
 4877WAT      O14872   3.922   6.052   6.419
 4877WAT     H114873   3.944   5.963   6.379
 4877WAT     H214874   3.995   6.079   6.482
 4878WAT      O14875   5.146   3.327   1.495
 4878WAT     H114876   5.227   3.379   1.520
 4878WAT     H214877   5.172   3.257   1.428
 4879WAT      O14878   7.512   1.993   7.777
 4879WAT     H114879   7.524   1.913   7.837
 4879WAT     H214880   7.577   2.064   7.804
 4880WAT      O14881   1.120   8.015   4.588
 4880WAT     H114882   1.102   8.110   4.563
 4880WAT     H214883   1.213   7.990   4.559
 4881WAT      O14884   9.304   1.399   4.823
 4881WAT     H114885   9.339   1.493   4.825
 4881WAT     H214886   9.205   1.401   4.806
 4882WAT      O14887   5.047   7.821   7.101
 4882WAT     H114888   5.046   7.779   7.192
 4882WAT     H214889   5.116   7.893   7.099
 4883WAT      O14890   3.648   5.030   0.201
 4883WAT     H114891   3.610   4.965   0.135
 4883WAT     H214892   3.701   5.100   0.152
 4884WAT      O14893   6.588   5.797   8.493
 4884WAT     H114894   6.600   5.867   8.564
 4884WAT     H214895   6.601   5.838   8.403
 4885WAT      O14896   7.895   0.244   0.670
 4885WAT     H114897   7.967   0.176   0.664
 4885WAT     H214898   7.854   0.241   0.762
 4886WAT      O14899   8.849   8.149   7.026
 4886WAT     H114900   8.788   8.196   7.089
 4886WAT     H214901   8.880   8.063   7.067
 4887WAT      O14902   5.686   2.937   7.266
 4887WAT     H114903   5.754   2.880   7.221
 4887WAT     H214904   5.725   3.028   7.282
 4888WAT      O14905   8.189   0.169   2.316
 4888WAT     H114906   8.260   0.217   2.264
 4888WAT     H214907   8.164   0.085   2.269
 4889WAT      O14908   3.078   8.790   6.921
 4889WAT     H114909   3.172   8.807   6.894
 4889WAT     H214910   3.075   8.720   6.992
 4890WAT      O14911   0.827   8.979   7.215
 4890WAT     H114912   0.869   9.026   7.293
 4890WAT     H214913   0.781   8.896   7.248
 4891WAT      O14914   1.044   6.781   3.279
 4891WAT     H114915   1.112   6.747   3.214
 4891WAT     H214916   0.966   6.719   3.280
 4892WAT      O14917   0.180   0.685   8.061
 4892WAT     H114918   0.081   0.686   8.048
 4892WAT     H214919   0.225   0.665   7.974
 4893WAT      O14920   4.098   0.693   9.483
 4893WAT     H114921   4.046   0.771   9.449
 4893WAT     H214922   4.195   0.706   9.465
 4894WAT      O14923   7.983   8.734   2.606
 4894WAT     H114924   7.981   8.680   2.522
 4894WAT     H214925   7.986   8.831   2.583
 4895WAT      O14926   7.915   8.294   7.215
 4895WAT     H114927   7.920   8.372   7.278
 4895WAT     H214928   8.000   8.288   7.163
 4896WAT      O14929   8.493   8.517   5.228
 4896WAT     H114930   8.451   8.492   5.141
 4896WAT     H214931   8.552   8.443   5.260
 4897WAT      O14932   5.167   6.332   8.198
 4897WAT     H114933   5.182   6.342   8.296
 4897WAT     H214934   5.103   6.402   8.167
 4898WAT      O14935   1.622   4.595   8.657
 4898WAT     H114936   1.611   4.636   8.748
 4898WAT     H214937   1.616   4.496   8.665
 4899WAT      O14938   8.999   3.344   3.612
 4899WAT     H114939   9.065   3.400   3.662
 4899WAT     H214940   8.920   3.399   3.587
 4900WAT      O14941   1.435   8.758   0.298
 4900WAT     H114942   1.482   8.792   0.217
 4900WAT     H214943   1.499   8.704   0.353
 4901WAT      O14944   9.810   5.112   0.625
 4901WAT     H114945   9.763   5.195   0.595
 4901WAT     H214946   9.909   5.125   0.612
 4902WAT      O14947   9.830   2.387   4.485
 4902WAT     H114948   9.771   2.326   4.432
 4902WAT     H214949   9.913   2.338   4.512
 4903WAT      O14950   2.685   2.706   5.891
 4903WAT     H114951   2.640   2.617   5.882
 4903WAT     H214952   2.715   2.719   5.985
 4904WAT      O14953   4.705   9.086   9.839
 4904WAT     H114954   4.739   8.997   9.808
 4904WAT     H214955   4.649   9.128   9.768
 4905WAT      O14956   2.138   3.955   1.283
 4905WAT     H114957   2.050   3.950   1.332
 4905WAT     H214958   2.138   4.034   1.222
 4906WAT      O14959   7.046   3.217   8.069
 4906WAT     H114960   7.058   3.189   7.973
 4906WAT     H214961   6.951   3.245   8.083
 4907WAT      O14962   1.561   4.200   9.573
 4907WAT     H114963   1.523   4.197   9.665
 4907WAT     H214964   1.641   4.260   9.571
 4908WAT      O14965   5.413   6.232   8.603
 4908WAT     H114966   5.435   6.217   8.699
 4908WAT     H214967   5.467   6.169   8.546
 4909WAT      O14968   0.821   2.657   6.970
 4909WAT     H114969   0.773   2.680   6.886
 4909WAT     H214970   0.803   2.561   6.993
 4910WAT      O14971   6.978   0.087   7.788
 4910WAT     H114972   6.957   0.005   7.842
 4910WAT     H214973   7.076   0.094   7.774
 4911WAT      O14974   2.612   0.088   4.717
 4911WAT     H114975   2.568   0.099   4.806
 4911WAT     H214976   2.576   0.007   4.671
 4912WAT      O14977   2.681   7.715   4.614
 4912WAT     H114978   2.753   7.734   4.547
 4912WAT     H214979   2.691   7.776   4.692
 4913WAT      O14980   0.556   1.336   5.631
 4913WAT     H114981   0.539   1.305   5.537
 4913WAT     H214982   0.517   1.427   5.643
 4914WAT      O14983   4.433   4.900   6.236
 4914WAT     H114984   4.423   4.907   6.136
 4914WAT     H214985   4.529   4.890   6.259
 4915WAT      O14986   9.586   7.250   2.646
 4915WAT     H114987   9.592   7.155   2.615
 4915WAT     H214988   9.498   7.266   2.690
 4916WAT      O14989   0.415   2.208   8.280
 4916WAT     H114990   0.496   2.211   8.339
 4916WAT     H214991   0.387   2.113   8.267
 4917WAT      O14992   6.600   1.190   5.742
 4917WAT     H114993   6.523   1.221   5.687
 4917WAT     H214994   6.681   1.244   5.719
 4918WAT      O14995   7.367   6.137   8.027
 4918WAT     H114996   7.325   6.094   7.948
 4918WAT     H214997   7.364   6.075   8.105
 4919WAT      O14998   3.030   2.732   4.457
 4919WAT     H114999   3.013   2.668   4.382
 4919WAT     H215000   2.994   2.822   4.432
 4920WAT      O15001   8.610   2.785   3.726
 4920WAT     H115002   8.624   2.695   3.685
 4920WAT     H215003   8.651   2.856   3.668
 4921WAT      O15004   2.608   3.792   3.426
 4921WAT     H115005   2.556   3.785   3.512
 4921WAT     H215006   2.670   3.714   3.419
 4922WAT      O15007   9.746   4.347   7.689
 4922WAT     H115008   9.757   4.311   7.596
 4922WAT     H215009   9.823   4.316   7.746
 4923WAT      O15010   3.695   2.614   8.595
 4923WAT     H115011   3.770   2.599   8.659
 4923WAT     H215012   3.621   2.550   8.614
 4924WAT      O15013   1.812   5.001   3.398
 4924WAT     H115014   1.798   4.908   3.433
 4924WAT     H215015   1.790   5.002   3.300
 4925WAT      O15016   3.081   1.526   8.890
 4925WAT     H115017   3.130   1.596   8.941
 4925WAT     H215018   3.082   1.440   8.941
 4926WAT      O15019   8.190   0.995   0.467
 4926WAT     H115020   8.106   1.046   0.446
 4926WAT     H215021   8.261   1.020   0.401
 4927WAT      O15022   7.713   7.154   9.060
 4927WAT     H115023   7.646   7.101   9.113
 4927WAT     H215024   7.783   7.190   9.121
 4928WAT      O15025   1.583   8.952   4.782
 4928WAT     H115026   1.599   8.871   4.838
 4928WAT     H215027   1.571   9.031   4.841
 4929WAT      O15028   3.350   3.772   1.839
 4929WAT     H115029   3.282   3.755   1.911
 4929WAT     H215030   3.380   3.867   1.845
 4930WAT      O15031   4.507   8.046   3.489
 4930WAT     H115032   4.451   7.968   3.515
 4930WAT     H215033   4.596   8.014   3.456
 4931WAT      O15034   7.535   3.249   8.558
 4931WAT     H115035   7.481   3.232   8.639
 4931WAT     H215036   7.551   3.348   8.549
 4932WAT      O15037   7.450   8.949   7.656
 4932WAT     H115038   7.493   9.038   7.635
 4932WAT     H215039   7.408   8.953   7.746
 4933WAT      O15040   4.012   2.860   6.211
 4933WAT     H115041   4.098   2.907   6.192
 4933WAT     H215042   4.000   2.785   6.146
 4934WAT      O15043   3.585   1.179   0.639
 4934WAT     H115044   3.573   1.161   0.541
 4934WAT     H215045   3.581   1.277   0.655
 4935WAT      O15046   1.566   0.440   2.466
 4935WAT     H115047   1.556   0.540   2.467
 4935WAT     H215048   1.642   0.415   2.406
 4936WAT      O15049   3.657   6.828   7.778
 4936WAT     H115050   3.637   6.734   7.807
 4936WAT     H215051   3.673   6.885   7.858
 4937WAT      O15052   1.357   2.712   2.617
 4937WAT     H115053   1.303   2.723   2.700
 4937WAT     H215054   1.424   2.639   2.629
 4938WAT      O15055   0.414   8.361   0.546
 4938WAT     H115056   0.388   8.458   0.547
 4938WAT     H215057   0.347   8.309   0.600
 4939WAT      O15058   2.070   7.032   0.535
 4939WAT     H115059   2.138   7.101   0.563
 4939WAT     H215060   1.979   7.060   0.566
 4940WAT      O15061   3.169   0.261   0.884
 4940WAT     H115062   3.138   0.276   0.978
 4940WAT     H215063   3.205   0.168   0.875
 4941WAT      O15064   3.253   1.103   8.064
 4941WAT     H115065   3.322   1.066   8.002
 4941WAT     H215066   3.167   1.117   8.015
 4942WAT      O15067   7.649   5.024   0.429
 4942WAT     H115068   7.715   4.971   0.376
 4942WAT     H215069   7.697   5.098   0.476
 4943WAT      O15070   3.995   0.684   0.640
 4943WAT     H115071   4.041   0.701   0.727
 4943WAT     H215072   3.991   0.769   0.587
 4944WAT      O15073   9.728   3.772   3.925
 4944WAT     H115074   9.748   3.678   3.895
 4944WAT     H215075   9.720   3.774   4.024
 4945WAT      O15076   8.380   0.484   7.791
 4945WAT     H115077   8.353   0.540   7.869
 4945WAT     H215078   8.300   0.461   7.736
 4946WAT      O15079   7.499   4.963   8.642
 4946WAT     H115080   7.427   5.030   8.660
 4946WAT     H215081   7.459   4.879   8.607
 4947WAT      O15082   8.124   7.105   0.144
 4947WAT     H115083   8.186   7.064   0.078
 4947WAT     H215084   8.125   7.052   0.229
 4948WAT      O15085   6.170   5.607   1.363
 4948WAT     H115086   6.159   5.569   1.271
 4948WAT     H215087   6.250   5.666   1.365
 4949WAT      O15088   3.976   6.144   3.988
 4949WAT     H115089   3.901   6.135   4.055
 4949WAT     H215090   4.036   6.064   3.996
 4950WAT      O15091   2.694   6.299   1.446
 4950WAT     H115092   2.699   6.387   1.492
 4950WAT     H215093   2.783   6.254   1.449
 4951WAT      O15094   1.591   0.682   5.838
 4951WAT     H115095   1.495   0.703   5.857
 4951WAT     H215096   1.600   0.652   5.743
 4952WAT      O15097   3.494   4.123   6.005
 4952WAT     H115098   3.431   4.060   6.049
 4952WAT     H215099   3.443   4.197   5.962
 4953WAT      O15100   8.367   6.512   8.622
 4953WAT     H115101   8.395   6.606   8.642
 4953WAT     H215102   8.447   6.452   8.625
 4954WAT      O15103   4.555   6.016   8.965
 4954WAT     H115104   4.579   5.931   8.918
 4954WAT     H215105   4.639   6.062   8.997
 4955WAT      O15106   1.229   7.133   5.206
 4955WAT     H115107   1.241   7.038   5.176
 4955WAT     H215108   1.256   7.141   5.302
 4956WAT      O15109   3.208   9.008   2.874
 4956WAT     H115110   3.111   9.027   2.891
 4956WAT     H215111   3.231   8.919   2.913
 4957WAT      O15112   5.947   2.807   7.248
 4957WAT     H115113   5.961   2.864   7.329
 4957WAT     H215114   5.914   2.717   7.275
 4958WAT      O15115   4.928   3.755   2.309
 4958WAT     H115116   4.940   3.675   2.251
 4958WAT     H215117   5.016   3.779   2.352
 4959WAT      O15118   6.769   5.554   3.021
 4959WAT     H115119   6.697   5.496   3.061
 4959WAT     H215120   6.858   5.512   3.040
 4960WAT      O15121   5.953   4.087   6.809
 4960WAT     H115122   6.052   4.089   6.796
 4960WAT     H215123   5.913   4.020   6.746
 4961WAT      O15124   7.356   9.615   1.229
 4961WAT     H115125   7.261   9.638   1.210
 4961WAT     H215126   7.390   9.672   1.304
 4962WAT      O15127   1.340   1.947   9.120
 4962WAT     H115128   1.372   1.980   9.031
 4962WAT     H215129   1.336   2.023   9.184
 4963WAT      O15130   7.166   2.200   7.426
 4963WAT     H115131   7.110   2.272   7.387
 4963WAT     H215132   7.110   2.119   7.444
 4964WAT      O15133   4.142   0.974   5.771
 4964WAT     H115134   4.179   0.945   5.683
 4964WAT     H215135   4.213   0.967   5.841
 4965WAT      O15136   0.568   4.564   4.327
 4965WAT     H115137   0.564   4.630   4.252
 4965WAT     H215138   0.621   4.484   4.299
 4966WAT      O15139   1.770   1.055   3.839
 4966WAT     H115140   1.720   0.997   3.904
 4966WAT     H215141   1.705   1.108   3.785
 4967WAT      O15142   3.487   4.642   1.885
 4967WAT     H115143   3.499   4.728   1.837
 4967WAT     H215144   3.419   4.653   1.958
 4968WAT      O15145   3.831   7.929   5.852
 4968WAT     H115146   3.770   7.890   5.783
 4968WAT     H215147   3.781   7.995   5.907
 4969WAT      O15148   8.036   4.565   1.855
 4969WAT     H115149   8.116   4.625   1.857
 4969WAT     H215150   7.962   4.610   1.805
 4970WAT      O15151   2.712   0.316   3.228
 4970WAT     H115152   2.649   0.244   3.200
 4970WAT     H215153   2.686   0.402   3.183
 4971WAT      O15154   3.147   5.010   0.875
 4971WAT     H115155   3.123   5.065   0.955
 4971WAT     H215156   3.229   4.955   0.895
 4972WAT      O15157   6.648   3.999   0.848
 4972WAT     H115158   6.735   3.962   0.816
 4972WAT     H215159   6.655   4.098   0.858
 4973WAT      O15160   1.260   0.018   5.511
 4973WAT     H115161   1.173   0.033   5.560
 4973WAT     H215162   1.277  -0.081   5.506
 4974WAT      O15163   9.230   7.444   3.396
 4974WAT     H115164   9.177   7.362   3.376
 4974WAT     H215165   9.238   7.456   3.495
 4975WAT      O15166   2.091   4.351   8.744
 4975WAT     H115167   2.004   4.400   8.754
 4975WAT     H215168   2.166   4.411   8.772
 4976WAT      O15169   4.893   0.667   5.927
 4976WAT     H115170   4.967   0.629   5.983
 4976WAT     H215171   4.862   0.753   5.969
 4977WAT      O15172   7.782   1.447   1.964
 4977WAT     H115173   7.738   1.422   1.878
 4977WAT     H215174   7.717   1.497   2.022
 4978WAT      O15175   3.841   5.492   1.478
 4978WAT     H115176   3.881   5.581   1.495
 4978WAT     H215177   3.782   5.497   1.397
 4979WAT      O15178   3.778   8.977   3.916
 4979WAT     H115179   3.693   8.951   3.870
 4979WAT     H215180   3.825   8.896   3.949
 4980WAT      O15181   9.599   4.941   5.198
 4980WAT     H115182   9.653   4.880   5.139
 4980WAT     H215183   9.505   4.943   5.166
 4981WAT      O15184   3.401   2.757   6.765
 4981WAT     H115185   3.483   2.784   6.816
 4981WAT     H215186   3.385   2.659   6.776
 4982WAT      O15187   7.198   9.225   0.025
 4982WAT     H115188   7.123   9.261  -0.030
 4982WAT     H215189   7.245   9.153  -0.025
 4983WAT      O15190   6.873   4.038   3.614
 4983WAT     H115191   6.822   3.965   3.567
 4983WAT     H215192   6.902   4.005   3.704
 4984WAT      O15193   3.643   8.988   0.763
 4984WAT     H115194   3.630   8.965   0.667
 4984WAT     H215195   3.567   8.951   0.817
 4985WAT      O15196   8.655   9.098   5.265
 4985WAT     H115197   8.637   9.015   5.317
 4985WAT     H215198   8.754   9.109   5.252
 4986WAT      O15199   3.016   8.464   0.509
 4986WAT     H115200   3.100   8.505   0.473
 4986WAT     H215201   3.024   8.364   0.508
 4987WAT      O15202   6.667   3.485   4.470
 4987WAT     H115203   6.637   3.428   4.394
 4987WAT     H215204   6.598   3.554   4.491
 4988WAT      O15205   2.540   3.737   2.665
 4988WAT     H115206   2.624   3.772   2.706
 4988WAT     H215207   2.478   3.813   2.646
 4989WAT      O15208   5.540   0.339   1.184
 4989WAT     H115209   5.508   0.265   1.242
 4989WAT     H215210   5.504   0.328   1.091
 4990WAT      O15211   7.317   5.618   1.424
 4990WAT     H115212   7.344   5.694   1.483
 4990WAT     H215213   7.388   5.547   1.427
 4991WAT      O15214   0.314   8.774   3.687
 4991WAT     H115215   0.227   8.769   3.637
 4991WAT     H215216   0.349   8.681   3.701
 4992WAT      O15217   8.019   7.888   3.016
 4992WAT     H115218   8.002   7.984   3.040
 4992WAT     H215219   8.117   7.874   3.004
 4993WAT      O15220   1.148   8.774   4.602
 4993WAT     H115221   1.137   8.863   4.558
 4993WAT     H215222   1.205   8.715   4.546
 4994WAT      O15223   5.270   6.980   3.907
 4994WAT     H115224   5.209   6.939   3.976
 4994WAT     H215225   5.300   6.910   3.843
 4995WAT      O15226   1.862   4.670   2.385
 4995WAT     H115227   1.885   4.614   2.305
 4995WAT     H215228   1.822   4.611   2.456
 4996WAT      O15229   4.522   3.307   6.688
 4996WAT     H115230   4.426   3.334   6.687
 4996WAT     H215231   4.552   3.286   6.594
 4997WAT      O15232   4.548   0.678   1.893
 4997WAT     H115233   4.453   0.675   1.927
 4997WAT     H215234   4.611   0.668   1.970
 4998WAT      O15235   4.065   0.146   2.017
 4998WAT     H115236   4.151   0.151   2.068
 4998WAT     H215237   4.058   0.224   1.956
 4999WAT      O15238   9.793   1.537   7.151
 4999WAT     H115239   9.760   1.445   7.132
 4999WAT     H215240   9.878   1.553   7.102
 5000WAT      O15241   9.396   0.582   3.065
 5000WAT     H115242   9.399   0.666   3.012
 5000WAT     H215243   9.313   0.581   3.121
 5001WAT      O15244   9.023   3.067   5.616
 5001WAT     H115245   9.036   3.134   5.688
 5001WAT     H215246   9.041   2.975   5.651
 5002WAT      O15247   9.505   7.114   9.417
 5002WAT     H115248   9.517   7.211   9.395
 5002WAT     H215249   9.418   7.082   9.381
 5003WAT      O15250   1.977   1.980   4.975
 5003WAT     H115251   1.930   1.893   4.960
 5003WAT     H215252   2.006   1.986   5.070
 5004WAT      O15253   2.539   2.309   9.786
 5004WAT     H115254   2.538   2.276   9.880
 5004WAT     H215255   2.570   2.236   9.726
 5005WAT      O15256   4.416   8.265   3.594
 5005WAT     H115257   4.453   8.173   3.581
 5005WAT     H215258   4.325   8.258   3.635
 5006WAT      O15259   4.333   8.723   5.736
 5006WAT     H115260   4.239   8.749   5.716
 5006WAT     H215261   4.387   8.806   5.753
 5007WAT      O15262   7.751   1.399   0.148
 5007WAT     H115263   7.775   1.303   0.136
 5007WAT     H215264   7.718   1.437   0.062
 5008WAT      O15265   8.698   5.894   6.644
 5008WAT     H115266   8.664   5.948   6.567
 5008WAT     H215267   8.797   5.884   6.637
 5009WAT      O15268   3.736   7.754   3.435
 5009WAT     H115269   3.832   7.770   3.457
 5009WAT     H215270   3.716   7.656   3.443
 5010WAT      O15271   4.216   6.824   2.172
 5010WAT     H115272   4.184   6.888   2.241
 5010WAT     H215273   4.301   6.859   2.131
 5011WAT      O15274   3.356   5.896   1.908
 5011WAT     H115275   3.361   5.837   1.988
 5011WAT     H215276   3.383   5.989   1.934
 5012WAT      O15277   6.999   0.745   8.497
 5012WAT     H115278   6.998   0.836   8.539
 5012WAT     H215279   7.042   0.750   8.407
 5013WAT      O15280   6.335   6.191   4.776
 5013WAT     H115281   6.282   6.274   4.792
 5013WAT     H215282   6.323   6.162   4.681
 5014WAT      O15283   1.762   8.998   1.522
 5014WAT     H115284   1.827   9.070   1.498
 5014WAT     H215285   1.736   9.007   1.618
 5015WAT      O15286   4.514   8.560   5.866
 5015WAT     H115287   4.459   8.480   5.887
 5015WAT     H215288   4.456   8.634   5.833
 5016WAT      O15289   8.023   7.945   8.204
 5016WAT     H115290   7.924   7.935   8.206
 5016WAT     H215291   8.048   8.028   8.155
 5017WAT      O15292   9.736   2.283   8.501
 5017WAT     H115293   9.822   2.273   8.551
 5017WAT     H215294   9.755   2.309   8.407
 5018WAT      O15295   5.142   6.840   8.440
 5018WAT     H115296   5.119   6.903   8.366
 5018WAT     H215297   5.085   6.861   8.520
 5019WAT      O15298   6.000   5.319   8.573
 5019WAT     H115299   6.036   5.377   8.500
 5019WAT     H215300   6.034   5.226   8.561
 5020WAT      O15301   5.084   1.782   8.793
 5020WAT     H115302   5.060   1.859   8.734
 5020WAT     H215303   5.008   1.762   8.855
 5021WAT      O15304   8.476   1.547   7.800
 5021WAT     H115305   8.492   1.563   7.897
 5021WAT     H215306   8.479   1.635   7.751
 5022WAT      O15307   4.602   1.296   3.205
 5022WAT     H115308   4.527   1.325   3.266
 5022WAT     H215309   4.564   1.247   3.126
 5023WAT      O15310   7.812   3.389   4.327
 5023WAT     H115311   7.756   3.416   4.248
 5023WAT     H215312   7.762   3.321   4.380
 5024WAT      O15313   4.238   5.361   2.863
 5024WAT     H115314   4.231   5.364   2.764
 5024WAT     H215315   4.333   5.342   2.889
 5025WAT      O15316   9.807   3.342   0.613
 5025WAT     H115317   9.831   3.251   0.579
 5025WAT     H215318   9.852   3.412   0.556
 5026WAT      O15319   8.734   4.237   8.965
 5026WAT     H115320   8.829   4.260   8.945
 5026WAT     H215321   8.718   4.141   8.941
 5027WAT      O15322   5.982   7.630   1.494
 5027WAT     H115323   6.017   7.637   1.400
 5027WAT     H215324   5.947   7.718   1.524
 5028WAT      O15325   1.573   0.042   1.970
 5028WAT     H115326   1.621   0.044   1.882
 5028WAT     H215327   1.525   0.129   1.983
 5029WAT      O15328   3.682   2.035   6.810
 5029WAT     H115329   3.631   1.985   6.880
 5029WAT     H215330   3.654   2.131   6.810
 5030WAT      O15331   9.580   9.278   1.640
 5030WAT     H115332   9.530   9.340   1.581
 5030WAT     H215333   9.566   9.184   1.610
 5031WAT      O15334   0.209   7.977   7.044
 5031WAT     H115335   0.296   7.994   6.996
 5031WAT     H215336   0.227   7.927   7.129
 5032WAT      O15337   0.250   5.509   3.106
 5032WAT     H115338   0.265   5.450   3.027
 5032WAT     H215339   0.285   5.600   3.087
 5033WAT      O15340   6.695   6.900   7.353
 5033WAT     H115341   6.696   6.802   7.335
 5033WAT     H215342   6.729   6.949   7.272
 5034WAT      O15343   7.038   0.458   7.822
 5034WAT     H115344   7.097   0.429   7.747
 5034WAT     H215345   6.950   0.412   7.815
 5035WAT      O15346   8.011   4.883   0.028
 5035WAT     H115347   8.083   4.952   0.020
 5035WAT     H215348   7.971   4.867  -0.062
 5036WAT      O15349   3.601   8.505   6.940
 5036WAT     H115350   3.635   8.599   6.932
 5036WAT     H215351   3.621   8.470   7.031
 5037WAT      O15352   8.508   4.649   5.075
 5037WAT     H115353   8.595   4.647   5.026
 5037WAT     H215354   8.522   4.683   5.168
 5038WAT      O15355   9.791   1.642   8.252
 5038WAT     H115356   9.766   1.681   8.163
 5038WAT     H215357   9.716   1.657   8.317
 5039WAT      O15358   5.038   4.079   1.077
 5039WAT     H115359   4.990   4.167   1.081
 5039WAT     H215360   5.120   4.087   1.022
 5040WAT      O15361   7.725   9.374   7.389
 5040WAT     H115362   7.686   9.318   7.462
 5040WAT     H215363   7.722   9.470   7.415
 5041WAT      O15364   4.887   1.558   9.763
 5041WAT     H115365   4.877   1.630   9.694
 5041WAT     H215366   4.802   1.506   9.770
 5042WAT      O15367   5.257   0.951   4.735
 5042WAT     H115368   5.345   0.954   4.689
 5042WAT     H215369   5.185   0.935   4.668
 5043WAT      O15370   8.427   3.616   1.727
 5043WAT     H115371   8.444   3.711   1.698
 5043WAT     H215372   8.425   3.557   1.646
 5044WAT      O15373   5.910   5.919   9.493
 5044WAT     H115374   6.001   5.956   9.477
 5044WAT     H215375   5.843   5.993   9.486
 5045WAT      O15376   3.480   5.490   0.115
 5045WAT     H115377   3.559   5.469   0.173
 5045WAT     H215378   3.511   5.533   0.030
 5046WAT      O15379   7.716   0.305   9.108
 5046WAT     H115380   7.689   0.210   9.121
 5046WAT     H215381   7.669   0.362   9.176
 5047WAT      O15382   8.890   0.430   7.204
 5047WAT     H115383   8.915   0.486   7.125
 5047WAT     H215384   8.792   0.410   7.200
 5048WAT      O15385   7.862   8.556   8.937
 5048WAT     H115386   7.845   8.605   8.852
 5048WAT     H215387   7.826   8.609   9.014
 5049WAT      O15388   4.772   5.142   2.371
 5049WAT     H115389   4.765   5.043   2.358
 5049WAT     H215390   4.681   5.182   2.359
 5050WAT      O15391   3.882   8.355   5.349
 5050WAT     H115392   3.783   8.342   5.361
 5050WAT     H215393   3.931   8.294   5.410
 5051WAT      O15394   1.790   7.872   5.088
 5051WAT     H115395   1.836   7.837   5.170
 5051WAT     H215396   1.813   7.968   5.075
 5052WAT      O15397   7.368   9.748   9.738
 5052WAT     H115398   7.354   9.846   9.732
 5052WAT     H215399   7.439   9.729   9.806
 5053WAT      O15400   6.670   3.707   4.247
 5053WAT     H115401   6.705   3.627   4.198
 5053WAT     H215402   6.725   3.724   4.329
 5054WAT      O15403   7.923   5.621   7.945
 5054WAT     H115404   7.887   5.538   7.903
 5054WAT     H215405   7.974   5.674   7.878
 5055WAT      O15406   5.449   7.959   5.527
 5055WAT     H115407   5.367   7.907   5.547
 5055WAT     H215408   5.424   8.046   5.484
 5056WAT      O15409   2.383   8.818   5.628
 5056WAT     H115410   2.307   8.785   5.572
 5056WAT     H215411   2.411   8.747   5.692
 5057WAT      O15412   7.167   6.109   0.415
 5057WAT     H115413   7.241   6.042   0.418
 5057WAT     H215414   7.104   6.091   0.490
 5058WAT      O15415   9.387   2.501   3.521
 5058WAT     H115416   9.360   2.556   3.600
 5058WAT     H215417   9.415   2.561   3.446
 5059WAT      O15418   0.501   9.562   0.286
 5059WAT     H115419   0.438   9.487   0.266
 5059WAT     H215420   0.506   9.624   0.207
 5060WAT      O15421   0.652   1.822   8.661
 5060WAT     H115422   0.716   1.840   8.587
 5060WAT     H215423   0.703   1.806   8.746
 5061WAT      O15424   6.307   7.457   1.809
 5061WAT     H115425   6.236   7.394   1.778
 5061WAT     H215426   6.382   7.406   1.850
 5062WAT      O15427   4.800   5.973   7.615
 5062WAT     H115428   4.811   6.044   7.545
 5062WAT     H215429   4.889   5.936   7.640
 5063WAT      O15430   7.221   1.402   5.521
 5063WAT     H115431   7.164   1.440   5.448
 5063WAT     H215432   7.246   1.475   5.585
 5064WAT      O15433   3.950   0.434   1.225
 5064WAT     H115434   4.037   0.481   1.238
 5064WAT     H215435   3.890   0.455   1.302
 5065WAT      O15436   4.255   2.196   7.779
 5065WAT     H115437   4.175   2.216   7.836
 5065WAT     H215438   4.335   2.240   7.819
 5066WAT      O15439   6.168   5.935   0.472
 5066WAT     H115440   6.074   5.901   0.465
 5066WAT     H215441   6.183   5.974   0.563
 5067WAT      O15442   0.048   3.842   0.587
 5067WAT     H115443   0.002   3.916   0.539
 5067WAT     H215444   0.147   3.853   0.578
 5068WAT      O15445   5.525   3.500   5.580
 5068WAT     H115446   5.520   3.574   5.514
 5068WAT     H215447   5.489   3.531   5.668
 5069WAT      O15448   0.891   9.110   7.468
 5069WAT     H115449   0.891   9.203   7.432
 5069WAT     H215450   0.865   9.112   7.565
 5070WAT      O15451   1.585   5.364   0.225
 5070WAT     H115452   1.669   5.418   0.213
 5070WAT     H215453   1.522   5.413   0.286
 5071WAT      O15454   1.849   1.052   7.167
 5071WAT     H115455   1.870   0.970   7.115
 5071WAT     H215456   1.841   1.030   7.264
 5072WAT      O15457   1.832   7.431   5.697
 5072WAT     H115458   1.812   7.349   5.645
 5072WAT     H215459   1.808   7.512   5.643
 5073WAT      O15460   0.228   0.486   3.488
 5073WAT     H115461   0.320   0.460   3.460
 5073WAT     H215462   0.232   0.531   3.577
 5074WAT      O15463   3.950   4.644   5.864
 5074WAT     H115464   3.909   4.554   5.880
 5074WAT     H215465   3.910   4.685   5.782
 5075WAT      O15466   3.975   9.258   6.222
 5075WAT     H115467   3.888   9.303   6.203
 5075WAT     H215468   3.958   9.175   6.276
 5076WAT      O15469   3.141   8.347   9.678
 5076WAT     H115470   3.046   8.329   9.701
 5076WAT     H215471   3.198   8.269   9.704
 5077WAT      O15472   9.499   6.143   0.811
 5077WAT     H115473   9.562   6.096   0.872
 5077WAT     H215474   9.531   6.236   0.794
 5078WAT      O15475   7.795   7.976   8.611
 5078WAT     H115476   7.837   8.066   8.608
 5078WAT     H215477   7.787   7.946   8.707
 5079WAT      O15478   0.371   9.583   8.315
 5079WAT     H115479   0.327   9.525   8.383
 5079WAT     H215480   0.467   9.597   8.340
 5080WAT      O15481   2.473   9.164   9.294
 5080WAT     H115482   2.447   9.072   9.322
 5080WAT     H215483   2.492   9.219   9.375
 5081WAT      O15484   2.060   1.368   3.147
 5081WAT     H115485   2.069   1.447   3.207
 5081WAT     H215486   2.029   1.397   3.057
 5082WAT      O15487   0.521   9.706   7.569
 5082WAT     H115488   0.619   9.724   7.564
 5082WAT     H215489   0.500   9.657   7.653
 5083WAT      O15490   0.228   7.694   9.452
 5083WAT     H115491   0.194   7.715   9.360
 5083WAT     H215492   0.150   7.677   9.513
 5084WAT      O15493   8.656   9.018   6.711
 5084WAT     H115494   8.574   9.005   6.766
 5084WAT     H215495   8.728   9.057   6.768
 5085WAT      O15496   5.842   2.935   1.256
 5085WAT     H115497   5.907   2.880   1.309
 5085WAT     H215498   5.856   3.032   1.276
 5086WAT      O15499   5.503   3.777   2.530
 5086WAT     H115500   5.421   3.723   2.544
 5086WAT     H215501   5.564   3.728   2.467
 5087WAT      O15502   5.088   6.993   1.154
 5087WAT     H115503   5.179   6.971   1.189
 5087WAT     H215504   5.028   6.914   1.165
 5088WAT      O15505   2.435   1.348   0.382
 5088WAT     H115506   2.494   1.401   0.321
 5088WAT     H215507   2.475   1.345   0.474
 5089WAT      O15508   1.785   2.439   1.853
 5089WAT     H115509   1.775   2.340   1.842
 5089WAT     H215510   1.799   2.461   1.949
 5090WAT      O15511   5.838   1.575   5.218
 5090WAT     H115512   5.768   1.645   5.238
 5090WAT     H215513   5.922   1.598   5.267
 5091WAT      O15514   2.564   5.410   1.032
 5091WAT     H115515   2.531   5.465   0.955
 5091WAT     H215516   2.501   5.420   1.109
 5092WAT      O15517   7.157   5.497   1.234
 5092WAT     H115518   7.157   5.568   1.165
 5092WAT     H215519   7.195   5.533   1.320
 5093WAT      O15520   6.729   8.140   6.161
 5093WAT     H115521   6.805   8.077   6.146
 5093WAT     H215522   6.700   8.179   6.073
 5094WAT      O15523   1.188   9.372   3.672
 5094WAT     H115524   1.280   9.396   3.706
 5094WAT     H215525   1.125   9.365   3.750
 5095WAT      O15526   6.696   7.104   4.545
 5095WAT     H115527   6.756   7.040   4.594
 5095WAT     H215528   6.603   7.097   4.581
 5096WAT      O15529   8.360   3.117   5.744
 5096WAT     H115530   8.375   3.024   5.777
 5096WAT     H215531   8.372   3.119   5.645
 5097WAT      O15532   0.785   0.421   8.653
 5097WAT     H115533   0.867   0.465   8.616
 5097WAT     H215534   0.737   0.487   8.712
 5098WAT      O15535   3.818   8.879   1.486
 5098WAT     H115536   3.896   8.939   1.505
 5098WAT     H215537   3.851   8.791   1.451
 5099WAT      O15538   9.133   8.482   8.855
 5099WAT     H115539   9.053   8.497   8.913
 5099WAT     H215540   9.114   8.513   8.762
 5100WAT      O15541   8.771   3.123   7.086
 5100WAT     H115542   8.806   3.045   7.138
 5100WAT     H215543   8.765   3.099   6.990
 5101WAT      O15544   8.033   2.862   2.691
 5101WAT     H115545   8.107   2.815   2.739
 5101WAT     H215546   7.953   2.868   2.750
 5102WAT      O15547   3.805   4.535   1.275
 5102WAT     H115548   3.807   4.633   1.254
 5102WAT     H215549   3.713   4.499   1.261
 5103WAT      O15550   4.376   3.774   1.677
 5103WAT     H115551   4.362   3.815   1.767
 5103WAT     H215552   4.447   3.704   1.683
 5104WAT      O15553   3.923   0.495   4.818
 5104WAT     H115554   3.970   0.439   4.885
 5104WAT     H215555   3.829   0.463   4.807
 5105WAT      O15556   3.293   7.354   3.818
 5105WAT     H115557   3.224   7.283   3.810
 5105WAT     H215558   3.311   7.393   3.727
 5106WAT      O15559   7.026   2.373   5.272
 5106WAT     H115560   7.001   2.289   5.320
 5106WAT     H215561   6.947   2.435   5.271
 5107WAT      O15562   4.140   9.765   8.379
 5107WAT     H115563   4.084   9.702   8.326
 5107WAT     H215564   4.085   9.808   8.451
 5108WAT      O15565   1.390   8.787   7.427
 5108WAT     H115566   1.402   8.821   7.521
 5108WAT     H215567   1.344   8.857   7.372
 5109WAT      O15568   3.493   1.427   1.896
 5109WAT     H115569   3.461   1.396   1.806
 5109WAT     H215570   3.475   1.356   1.964
 5110WAT      O15571   6.835   1.410   8.794
 5110WAT     H115572   6.855   1.474   8.720
 5110WAT     H215573   6.825   1.461   8.880
 5111WAT      O15574   8.902   4.824   4.907
 5111WAT     H115575   8.827   4.863   4.853
 5111WAT     H215576   8.962   4.897   4.939
 5112WAT      O15577   4.024   2.301   7.911
 5112WAT     H115578   3.982   2.213   7.930
 5112WAT     H215579   3.986   2.338   7.826
 5113WAT      O15580   9.276   7.012   7.356
 5113WAT     H115581   9.350   6.951   7.327
 5113WAT     H215582   9.192   6.959   7.369
 5114WAT      O15583   8.019   0.600   7.346
 5114WAT     H115584   7.992   0.514   7.389
 5114WAT     H215585   8.104   0.586   7.295
 5115WAT      O15586   2.233   1.032   7.839
 5115WAT     H115587   2.300   1.054   7.768
 5115WAT     H215588   2.259   1.077   7.924
 5116WAT      O15589   3.003   2.394   0.893
 5116WAT     H115590   3.085   2.343   0.922
 5116WAT     H215591   2.933   2.330   0.862
 5117WAT      O15592   7.458   3.100   9.547
 5117WAT     H115593   7.551   3.138   9.553
 5117WAT     H215594   7.453   3.017   9.602
 5118WAT      O15595   7.494   5.906   7.389
 5118WAT     H115596   7.555   5.972   7.432
 5118WAT     H215597   7.413   5.953   7.355
 5119WAT      O15598   2.170   6.412   5.948
 5119WAT     H115599   2.111   6.409   5.867
 5119WAT     H215600   2.194   6.507   5.968
 5120WAT      O15601   4.485   2.721   0.079
 5120WAT     H115602   4.550   2.760   0.014
 5120WAT     H215603   4.447   2.795   0.135
 5121WAT      O15604   6.293   1.686   3.167
 5121WAT     H115605   6.294   1.781   3.198
 5121WAT     H215606   6.326   1.627   3.241
 5122WAT      O15607   0.626   8.955   5.353
 5122WAT     H115608   0.715   8.977   5.312
 5122WAT     H215609   0.554   9.006   5.306
 5123WAT      O15610   8.352   0.051   6.319
 5123WAT     H115611   8.353  -0.047   6.302
 5123WAT     H215612   8.320   0.069   6.413
 5124WAT      O15613   1.079   5.951   2.546
 5124WAT     H115614   1.077   5.857   2.512
 5124WAT     H215615   1.137   6.007   2.487
 5125WAT      O15616   2.751   1.337   4.924
 5125WAT     H115617   2.814   1.390   4.982
 5125WAT     H215618   2.766   1.362   4.828
 5126WAT      O15619   4.384   1.243   8.620
 5126WAT     H115620   4.381   1.179   8.697
 5126WAT     H215621   4.407   1.193   8.537
 5127WAT      O15622   1.961   8.995   6.364
 5127WAT     H115623   2.019   9.076   6.373
 5127WAT     H215624   1.869   9.024   6.339
 5128WAT      O15625   9.842   4.128   6.513
 5128WAT     H115626   9.833   4.098   6.608
 5128WAT     H215627   9.865   4.225   6.511
 5129WAT      O15628   5.292   4.144   4.687
 5129WAT     H115629   5.375   4.119   4.637
 5129WAT     H215630   5.308   4.228   4.738
 5130WAT      O15631   5.147   1.011   8.830
 5130WAT     H115632   5.181   1.064   8.752
 5130WAT     H215633   5.220   0.952   8.865
 5131WAT      O15634   4.541   1.454   0.159
 5131WAT     H115635   4.470   1.384   0.148
 5131WAT     H215636   4.500   1.544   0.144
 5132WAT      O15637   9.348   2.894   4.531
 5132WAT     H115638   9.406   2.889   4.450
 5132WAT     H215639   9.266   2.837   4.516
 5133WAT      O15640   8.524   9.021   5.648
 5133WAT     H115641   8.430   8.991   5.658
 5133WAT     H215642   8.562   8.987   5.562
 5134WAT      O15643   1.915   0.718   2.341
 5134WAT     H115644   1.819   0.738   2.319
 5134WAT     H215645   1.921   0.630   2.388
 5135WAT      O15646   5.600   3.947   8.913
 5135WAT     H115647   5.643   3.864   8.948
 5135WAT     H215648   5.503   3.932   8.898
 5136WAT      O15649   5.623   9.300   9.250
 5136WAT     H115650   5.664   9.209   9.254
 5136WAT     H215651   5.554   9.309   9.322
 5137WAT      O15652   6.538   4.501   7.323
 5137WAT     H115653   6.596   4.438   7.374
 5137WAT     H215654   6.503   4.456   7.241
 5138WAT      O15655   5.919   4.924   9.342
 5138WAT     H115656   5.935   4.902   9.439
 5138WAT     H215657   5.830   4.967   9.332
 5139WAT      O15658   8.451   3.996   4.676
 5139WAT     H115659   8.358   4.005   4.641
 5139WAT     H215660   8.502   4.080   4.656
 5140WAT      O15661   6.885   0.235   3.755
 5140WAT     H115662   6.874   0.330   3.726
 5140WAT     H215663   6.965   0.227   3.814
 5141WAT      O15664   8.665   6.175   1.255
 5141WAT     H115665   8.759   6.205   1.239
 5141WAT     H215666   8.631   6.128   1.174
 5142WAT      O15667   2.905   7.280   1.069
 5142WAT     H115668   2.904   7.181   1.084
 5142WAT     H215669   2.814   7.309   1.039
 5143WAT      O15670   5.352   8.743   3.305
 5143WAT     H115671   5.324   8.683   3.380
 5143WAT     H215672   5.272   8.789   3.267
 5144WAT      O15673   6.133   2.489   9.837
 5144WAT     H115674   6.062   2.560   9.841
 5144WAT     H215675   6.091   2.399   9.845
 5145WAT      O15676   7.307   2.075   0.105
 5145WAT     H115677   7.289   1.999   0.167
 5145WAT     H215678   7.299   2.043   0.010
 5146WAT      O15679   5.076   3.326   7.456
 5146WAT     H115680   5.123   3.245   7.420
 5146WAT     H215681   5.113   3.408   7.413
 5147WAT      O15682   8.258   7.595   3.064
 5147WAT     H115683   8.342   7.646   3.043
 5147WAT     H215684   8.279   7.498   3.071
 5148WAT      O15685   8.834   4.713   6.100
 5148WAT     H115686   8.904   4.686   6.032
 5148WAT     H215687   8.829   4.643   6.171
 5149WAT      O15688   6.592   1.247   3.574
 5149WAT     H115689   6.564   1.344   3.576
 5149WAT     H215690   6.688   1.240   3.599
 5150WAT      O15691   3.651   3.220   1.530
 5150WAT     H115692   3.574   3.284   1.527
 5150WAT     H215693   3.731   3.263   1.489
 5151WAT      O15694   4.059   5.715   1.118
 5151WAT     H115695   3.962   5.739   1.126
 5151WAT     H215696   4.115   5.793   1.146
 5152WAT      O15697   9.634   5.181   7.985
 5152WAT     H115698   9.569   5.152   7.914
 5152WAT     H215699   9.699   5.245   7.946
 5153WAT      O15700   1.938   0.104   9.150
 5153WAT     H115701   1.890   0.190   9.162
 5153WAT     H215702   1.873   0.031   9.130
 5154WAT      O15703   9.531   5.333   5.132
 5154WAT     H115704   9.609   5.283   5.168
 5154WAT     H215705   9.484   5.380   5.207
 5155WAT      O15706   0.885   3.495   6.919
 5155WAT     H115707   0.948   3.498   6.841
 5155WAT     H215708   0.920   3.552   6.992
 5156WAT      O15709   5.480   6.960   6.312
 5156WAT     H115710   5.546   6.973   6.239
 5156WAT     H215711   5.527   6.964   6.400
 5157WAT      O15712   9.606   6.154   7.756
 5157WAT     H115713   9.632   6.080   7.818
 5157WAT     H215714   9.665   6.233   7.773
 5158WAT      O15715   8.933   2.446   1.641
 5158WAT     H115716   8.949   2.458   1.543
 5158WAT     H215717   9.004   2.387   1.680
 5159WAT      O15718   7.300   3.984   0.009
 5159WAT     H115719   7.360   3.926   0.064
 5159WAT     H215720   7.219   4.009   0.063
 5160WAT      O15721   4.184   4.215   3.956
 5160WAT     H115722   4.257   4.270   3.998
 5160WAT     H215723   4.110   4.276   3.928
 5161WAT      O15724   0.538   0.390   7.789
 5161WAT     H115725   0.606   0.463   7.792
 5161WAT     H215726   0.540   0.347   7.699
 5162WAT      O15727   0.457   2.013   5.151
 5162WAT     H115728   0.493   2.001   5.244
 5162WAT     H215729   0.385   2.082   5.153
 5163WAT      O15730   7.806   5.529   6.772
 5163WAT     H115731   7.715   5.505   6.738
 5163WAT     H215732   7.862   5.561   6.695
 5164WAT      O15733   0.750   0.814   9.347
 5164WAT     H115734   0.815   0.754   9.394
 5164WAT     H215735   0.755   0.906   9.387
 5165WAT      O15736   0.722   1.383   1.742
 5165WAT     H115737   0.781   1.363   1.821
 5165WAT     H215738   0.769   1.356   1.658
 5166WAT      O15739   1.264   7.579   9.721
 5166WAT     H115740   1.349   7.588   9.772
 5166WAT     H215741   1.215   7.666   9.722
 5167WAT      O15742   7.788   2.854   3.885
 5167WAT     H115743   7.697   2.881   3.853
 5167WAT     H215744   7.804   2.758   3.863
 5168WAT      O15745   6.412   4.336   9.847
 5168WAT     H115746   6.438   4.381   9.761
 5168WAT     H215747   6.347   4.393   9.896
 5169WAT      O15748   2.713   5.777   7.568
 5169WAT     H115749   2.700   5.863   7.617
 5169WAT     H215750   2.625   5.729   7.562
 5170WAT      O15751   1.991   0.208   8.694
 5170WAT     H115752   1.902   0.204   8.740
 5170WAT     H215753   2.025   0.302   8.695
 5171WAT      O15754   9.206   0.964   6.188
 5171WAT     H115755   9.131   0.959   6.122
 5171WAT     H215756   9.220   1.059   6.215
 5172WAT      O15757   5.698   1.322   9.318
 5172WAT     H115758   5.655   1.413   9.317
 5172WAT     H215759   5.630   1.253   9.294
 5173WAT      O15760   2.723   6.940   8.825
 5173WAT     H115761   2.710   7.031   8.864
 5173WAT     H215762   2.815   6.932   8.787
 5174WAT      O15763   0.717   2.008   8.170
 5174WAT     H115764   0.784   2.072   8.208
 5174WAT     H215765   0.640   2.059   8.131
 5175WAT      O15766   5.399   2.441   3.010
 5175WAT     H115767   5.404   2.540   3.019
 5175WAT     H215768   5.318   2.415   2.957
 5176WAT      O15769   9.355   4.850   5.551
 5176WAT     H115770   9.325   4.779   5.487
 5176WAT     H215771   9.446   4.882   5.524
 5177WAT      O15772   6.234   4.377   2.638
 5177WAT     H115773   6.212   4.471   2.611
 5177WAT     H215774   6.270   4.327   2.559
 5178WAT      O15775   7.207   2.580   2.468
 5178WAT     H115776   7.285   2.518   2.463
 5178WAT     H215777   7.133   2.546   2.411
 5179WAT      O15778   2.331   1.709   9.154
 5179WAT     H115779   2.232   1.724   9.155
 5179WAT     H215780   2.378   1.796   9.167
 5180WAT      O15781   5.159   9.316   3.040
 5180WAT     H115782   5.138   9.247   2.972
 5180WAT     H215783   5.125   9.405   3.010
 5181WAT      O15784   2.554   0.491   2.275
 5181WAT     H115785   2.565   0.547   2.357
 5181WAT     H215786   2.631   0.508   2.213
 5182WAT      O15787   2.643   5.435   0.550
 5182WAT     H115788   2.711   5.362   0.564
 5182WAT     H215789   2.552   5.394   0.540
 5183WAT      O15790   4.219   6.879   9.440
 5183WAT     H115791   4.154   6.807   9.417
 5183WAT     H215792   4.188   6.926   9.523
 5184WAT      O15793   6.923   9.571   3.434
 5184WAT     H115794   6.989   9.645   3.444
 5184WAT     H215795   6.971   9.488   3.406
 5185WAT      O15796   2.291   3.151   0.285
 5185WAT     H115797   2.191   3.152   0.284
 5185WAT     H215798   2.323   3.103   0.367
 5186WAT      O15799   2.189   6.712   5.933
 5186WAT     H115800   2.105   6.689   5.983
 5186WAT     H215801   2.167   6.732   5.838
 5187WAT      O15802   7.119   8.196   9.694
 5187WAT     H115803   7.194   8.192   9.760
 5187WAT     H215804   7.032   8.201   9.743
 5188WAT      O15805   2.042   8.052   8.640
 5188WAT     H115806   2.012   7.973   8.587
 5188WAT     H215807   2.132   8.034   8.678
 5189WAT      O15808   4.184   5.563   7.873
 5189WAT     H115809   4.095   5.518   7.875
 5189WAT     H215810   4.172   5.660   7.851
 5190WAT      O15811   0.374   8.290   0.097
 5190WAT     H115812   0.405   8.275   0.003
 5190WAT     H215813   0.289   8.342   0.095
 5191WAT      O15814   3.696   1.733   5.559
 5191WAT     H115815   3.780   1.724   5.613
 5191WAT     H215816   3.681   1.649   5.507
 5192WAT      O15817   1.424   6.736   9.838
 5192WAT     H115818   1.475   6.742   9.752
 5192WAT     H215819   1.340   6.790   9.830
 5193WAT      O15820   2.993   9.829   9.366
 5193WAT     H115821   2.912   9.775   9.343
 5193WAT     H215822   3.014   9.818   9.463
 5194WAT      O15823   8.684   5.484   0.962
 5194WAT     H115824   8.617   5.558   0.966
 5194WAT     H215825   8.643   5.401   1.000
 5195WAT      O15826   5.704   9.493   4.230
 5195WAT     H115827   5.775   9.423   4.235
 5195WAT     H215828   5.650   9.480   4.147
 5196WAT      O15829   3.260   6.861   8.702
 5196WAT     H115830   3.321   6.838   8.778
 5196WAT     H215831   3.167   6.872   8.737
 5197WAT      O15832   7.477   8.496   2.441
 5197WAT     H115833   7.402   8.433   2.463
 5197WAT     H215834   7.520   8.527   2.525
 5198WAT      O15835   2.415   7.752   9.494
 5198WAT     H115836   2.371   7.834   9.457
 5198WAT     H215837   2.351   7.704   9.554
 5199WAT      O15838   4.157   9.083   4.486
 5199WAT     H115839   4.244   9.129   4.465
 5199WAT     H215840   4.176   8.994   4.528
 5200WAT      O15841   6.487   8.339   3.832
 5200WAT     H115842   6.522   8.392   3.755
 5200WAT     H215843   6.404   8.382   3.867
 5201WAT      O15844   8.660   1.023   1.561
 5201WAT     H115845   8.610   1.044   1.644
 5201WAT     H215846   8.608   1.055   1.481
 5202WAT      O15847   4.681   0.950   3.062
 5202WAT     H115848   4.632   0.872   3.022
 5202WAT     H215849   4.628   1.033   3.045
 5203WAT      O15850   0.918   0.198   2.837
 5203WAT     H115851   0.894   0.291   2.865
 5203WAT     H215852   0.977   0.202   2.756
 5204WAT      O15853   0.758   5.664   1.629
 5204WAT     H115854   0.680   5.722   1.653
 5204WAT     H215855   0.749   5.575   1.674
 5205WAT      O15856   6.550   7.109   5.633
 5205WAT     H115857   6.547   7.044   5.557
 5205WAT     H215858   6.592   7.195   5.601
 5206WAT      O15859   0.291   3.617   1.004
 5206WAT     H115860   0.220   3.578   0.945
 5206WAT     H215861   0.266   3.605   1.100
 5207WAT      O15862   7.533   7.774   8.819
 5207WAT     H115863   7.444   7.819   8.811
 5207WAT     H215864   7.560   7.738   8.730
 5208WAT      O15865   3.385   5.262   0.676
 5208WAT     H115866   3.413   5.180   0.626
 5208WAT     H215867   3.313   5.309   0.624
 5209WAT      O15868   3.330   3.816   5.023
 5209WAT     H115869   3.260   3.829   5.094
 5209WAT     H215870   3.406   3.878   5.040
 5210WAT      O15871   8.679   0.758   2.887
 5210WAT     H115872   8.640   0.844   2.922
 5210WAT     H215873   8.706   0.770   2.792
 5211WAT      O15874   0.548   5.742   4.694
 5211WAT     H115875   0.608   5.793   4.632
 5211WAT     H215876   0.459   5.788   4.699
 5212WAT      O15877   1.555   8.185   0.145
 5212WAT     H115878   1.539   8.259   0.211
 5212WAT     H215879   1.550   8.222   0.052
 5213WAT      O15880   0.324   9.174   6.970
 5213WAT     H115881   0.271   9.200   7.050
 5213WAT     H215882   0.377   9.092   6.990
 5214WAT      O15883   7.517   7.508   4.490
 5214WAT     H115884   7.462   7.575   4.440
 5214WAT     H215885   7.527   7.536   4.585
 5215WAT      O15886   0.757   8.358   7.567
 5215WAT     H115887   0.852   8.364   7.535
 5215WAT     H215888   0.697   8.340   7.488
 5216WAT      O15889   1.489   2.258   2.588
 5216WAT     H115890   1.573   2.219   2.550
 5216WAT     H215891   1.410   2.219   2.540
 5217WAT      O15892   7.065   3.555   6.665
 5217WAT     H115893   6.994   3.507   6.614
 5217WAT     H215894   7.033   3.647   6.689
 5218WAT      O15895   9.373   2.561   0.337
 5218WAT     H115896   9.392   2.470   0.300
 5218WAT     H215897   9.431   2.578   0.416
 5219WAT      O15898   9.249   5.575   4.148
 5219WAT     H115899   9.292   5.630   4.076
 5219WAT     H215900   9.157   5.549   4.119
 5220WAT      O15901   6.838   6.766   1.375
 5220WAT     H115902   6.788   6.848   1.401
 5220WAT     H215903   6.920   6.792   1.324
 5221WAT      O15904   2.733   1.104   3.998
 5221WAT     H115905   2.656   1.045   4.021
 5221WAT     H215906   2.811   1.083   4.058
 5222WAT      O15907   5.758   3.150   9.210
 5222WAT     H115908   5.716   3.153   9.301
 5222WAT     H215909   5.846   3.103   9.216
 5223WAT      O15910   7.382   8.696   8.480
 5223WAT     H115911   7.389   8.700   8.579
 5223WAT     H215912   7.407   8.785   8.441
 5224WAT      O15913   4.808   5.881   1.128
 5224WAT     H115914   4.805   5.946   1.204
 5224WAT     H215915   4.894   5.892   1.078
 5225WAT      O15916   9.499   7.467   2.167
 5225WAT     H115917   9.422   7.531   2.171
 5225WAT     H215918   9.527   7.454   2.072
 5226WAT      O15919   3.102   8.966   3.202
 5226WAT     H115920   3.060   9.020   3.129
 5226WAT     H215921   3.192   9.004   3.224
 5227WAT      O15922   6.788   7.772   0.432
 5227WAT     H115923   6.878   7.760   0.475
 5227WAT     H215924   6.774   7.868   0.409
 5228WAT      O15925   0.435   8.304   9.720
 5228WAT     H115926   0.468   8.397   9.740
 5228WAT     H215927   0.399   8.301   9.627
 5229WAT      O15928   0.532   4.908   6.404
 5229WAT     H115929   0.523   4.992   6.456
 5229WAT     H215930   0.607   4.852   6.442
 5230WAT      O15931   2.055   7.598   9.295
 5230WAT     H115932   2.147   7.601   9.335
 5230WAT     H215933   2.056   7.537   9.216
 5231WAT      O15934   5.975   7.756   4.394
 5231WAT     H115935   6.023   7.844   4.392
 5231WAT     H215936   6.027   7.691   4.450
 5232WAT      O15937   2.009   1.656   9.182
 5232WAT     H115938   2.076   1.606   9.237
 5232WAT     H215939   2.023   1.635   9.085
 5233WAT      O15940   1.762   4.394   9.696
 5233WAT     H115941   1.696   4.469   9.692
 5233WAT     H215942   1.790   4.378   9.791
 5234WAT      O15943   6.326   4.209   8.825
 5234WAT     H115944   6.402   4.172   8.878
 5234WAT     H215945   6.249   4.145   8.829
 5235WAT      O15946   6.255   4.215   2.387
 5235WAT     H115947   6.327   4.152   2.358
 5235WAT     H215948   6.166   4.171   2.374
 5236WAT      O15949   6.049   1.143   2.576
 5236WAT     H115950   6.126   1.189   2.620
 5236WAT     H215951   5.993   1.211   2.527
 5237WAT      O15952   7.570   9.381   3.691
 5237WAT     H115953   7.664   9.365   3.719
 5237WAT     H215954   7.560   9.476   3.660
 5238WAT      O15955   9.348   8.899   3.032
 5238WAT     H115956   9.436   8.929   3.067
 5238WAT     H215957   9.296   8.978   2.999
 5239WAT      O15958   8.654   6.686   0.873
 5239WAT     H115959   8.720   6.641   0.933
 5239WAT     H215960   8.610   6.761   0.923
 5240WAT      O15961   2.834   6.790   9.302
 5240WAT     H115962   2.749   6.766   9.256
 5240WAT     H215963   2.841   6.889   9.309
 5241WAT      O15964   1.604   4.284   0.232
 5241WAT     H115965   1.559   4.337   0.304
 5241WAT     H215966   1.592   4.187   0.250
 5242WAT      O15967   9.681   8.347   5.514
 5242WAT     H115968   9.586   8.367   5.489
 5242WAT     H215969   9.682   8.291   5.597
 5243WAT      O15970   2.207   3.436   6.029
 5243WAT     H115971   2.281   3.501   6.049
 5243WAT     H215972   2.242   3.343   6.038
 5244WAT      O15973   5.299   8.554   5.451
 5244WAT     H115974   5.252   8.466   5.451
 5244WAT     H215975   5.343   8.569   5.540
 5245WAT      O15976   4.038   6.589   8.566
 5245WAT     H115977   4.084   6.671   8.531
 5245WAT     H215978   3.939   6.602   8.560
 5246WAT      O15979   2.282   8.750   5.029
 5246WAT     H115980   2.305   8.681   5.097
 5246WAT     H215981   2.269   8.707   4.939
 5247WAT      O15982   4.116   0.325   5.830
 5247WAT     H115983   4.111   0.421   5.857
 5247WAT     H215984   4.048   0.272   5.880
 5248WAT      O15985   7.511   5.692   9.345
 5248WAT     H115986   7.468   5.712   9.433
 5248WAT     H215987   7.584   5.758   9.328
 5249WAT      O15988   4.585   1.566   3.016
 5249WAT     H115989   4.486   1.557   3.003
 5249WAT     H215990   4.615   1.499   3.084
 5250WAT      O15991   6.758   9.298   7.121
 5250WAT     H115992   6.686   9.367   7.125
 5250WAT     H215993   6.834   9.333   7.065
 5251WAT      O15994   9.022   9.235   8.823
 5251WAT     H115995   9.117   9.218   8.849
 5251WAT     H215996   8.985   9.155   8.777
 5252WAT      O15997   5.800   7.581   4.529
 5252WAT     H115998   5.838   7.642   4.459
 5252WAT     H215999   5.857   7.500   4.537
 5253WAT      O16000   4.820   3.146   0.838
 5253WAT     H116001   4.780   3.067   0.885
 5253WAT     H216002   4.812   3.133   0.739
 5254WAT      O16003   4.958   7.244   5.635
 5254WAT     H116004   4.984   7.341   5.640
 5254WAT     H216005   4.911   7.218   5.719
 5255WAT      O16006   8.175   7.577   8.091
 5255WAT     H116007   8.104   7.581   8.161
 5255WAT     H216008   8.263   7.602   8.131
 5256WAT      O16009   2.565   5.886   5.470
 5256WAT     H116010   2.476   5.892   5.424
 5256WAT     H216011   2.638   5.884   5.401
 5257WAT      O16012   5.468   2.360   7.130
 5257WAT     H116013   5.378   2.384   7.167
 5257WAT     H216014   5.470   2.381   7.032
 5258WAT      O16015   4.856   2.152   0.067
 5258WAT     H116016   4.954   2.133   0.073
 5258WAT     H216017   4.810   2.075   0.022
 5259WAT      O16018   5.367   4.798   5.384
 5259WAT     H116019   5.289   4.736   5.381
 5259WAT     H216020   5.337   4.891   5.364
 5260WAT      O16021   2.359   3.288   8.535
 5260WAT     H116022   2.322   3.274   8.444
 5260WAT     H216023   2.296   3.251   8.603
 5261WAT      O16024   9.528   9.532   6.564
 5261WAT     H116025   9.537   9.613   6.506
 5261WAT     H216026   9.611   9.477   6.557
 5262WAT      O16027   7.759   1.915   7.296
 5262WAT     H116028   7.723   1.895   7.387
 5262WAT     H216029   7.688   1.955   7.239
 5263WAT      O16030   5.166   9.535   5.812
 5263WAT     H116031   5.113   9.602   5.864
 5263WAT     H216032   5.263   9.545   5.833
 5264WAT      O16033   5.955   9.012   3.169
 5264WAT     H116034   5.950   8.966   3.258
 5264WAT     H216035   5.955   8.943   3.096
 5265WAT      O16036   0.820   0.311   7.986
 5265WAT     H116037   0.752   0.238   7.985
 5265WAT     H216038   0.778   0.395   8.022
 5266WAT      O16039  -0.005   5.167   2.003
 5266WAT     H116040  -0.009   5.194   1.907
 5266WAT     H216041   0.085   5.190   2.041
 5267WAT      O16042   7.721   6.825   3.306
 5267WAT     H116043   7.820   6.831   3.296
 5267WAT     H216044   7.690   6.734   3.278
 5268WAT      O16045   2.673   0.087   2.310
 5268WAT     H116046   2.651  -0.008   2.290
 5268WAT     H216047   2.772   0.101   2.302
 5269WAT      O16048   6.900   7.943   7.177
 5269WAT     H116049   6.918   7.859   7.228
 5269WAT     H216050   6.813   7.982   7.208
 5270WAT      O16051   5.890   0.723   1.614
 5270WAT     H116052   5.934   0.639   1.646
 5270WAT     H216053   5.802   0.734   1.660
 5271WAT      O16054   4.598   8.480   6.235
 5271WAT     H116055   4.557   8.518   6.153
 5271WAT     H216056   4.534   8.486   6.312
 5272WAT      O16057   8.270   8.147   5.247
 5272WAT     H116058   8.242   8.054   5.223
 5272WAT     H216059   8.314   8.190   5.168
 5273WAT      O16060   3.736   9.077   2.923
 5273WAT     H116061   3.816   9.071   2.983
 5273WAT     H216062   3.670   9.142   2.961
 5274WAT      O16063   0.801   5.873   1.991
 5274WAT     H116064   0.703   5.886   1.977
 5274WAT     H216065   0.824   5.777   1.975
 5275WAT      O16066   7.313   5.664   9.009
 5275WAT     H116067   7.241   5.600   8.982
 5275WAT     H216068   7.369   5.621   9.080
 5276WAT      O16069   7.198   6.093   4.899
 5276WAT     H116070   7.253   6.017   4.933
 5276WAT     H216071   7.244   6.180   4.918
 5277WAT      O16072   6.456   4.532   9.653
 5277WAT     H116073   6.502   4.528   9.564
 5277WAT     H216074   6.358   4.547   9.639
 5278WAT      O16075   0.546   2.242   5.460
 5278WAT     H116076   0.447   2.235   5.454
 5278WAT     H216077   0.578   2.316   5.401
 5279WAT      O16078   1.252   5.428   8.005
 5279WAT     H116079   1.264   5.375   7.921
 5279WAT     H216080   1.277   5.372   8.084
 5280WAT      O16081   9.630   0.825   1.384
 5280WAT     H116082   9.658   0.831   1.479
 5280WAT     H216083   9.707   0.792   1.328
 5281WAT      O16084   1.049   1.847   3.555
 5281WAT     H116085   1.142   1.825   3.526
 5281WAT     H216086   1.013   1.772   3.611
 5282WAT      O16087   0.437   8.312   1.641
 5282WAT     H116088   0.520   8.346   1.598
 5282WAT     H216089   0.357   8.357   1.600
 5283WAT      O16090   9.826   2.097   7.064
 5283WAT     H116091   9.733   2.098   7.027
 5283WAT     H216092   9.853   2.003   7.085
 5284WAT      O16093   6.392   7.253   8.555
 5284WAT     H116094   6.440   7.181   8.605
 5284WAT     H216095   6.416   7.342   8.593
 5285WAT      O16096   8.855   4.549   2.447
 5285WAT     H116097   8.847   4.564   2.348
 5285WAT     H216098   8.795   4.612   2.495
 5286WAT      O16099   0.442   3.137   7.989
 5286WAT     H116100   0.396   3.177   8.069
 5286WAT     H216101   0.384   3.064   7.952
 5287WAT      O16102   6.477   4.791   2.511
 5287WAT     H116103   6.536   4.712   2.528
 5287WAT     H216104   6.385   4.759   2.487
 5288WAT      O16105   5.180   8.184   0.537
 5288WAT     H116106   5.255   8.230   0.490
 5288WAT     H216107   5.211   8.095   0.570
 5289WAT      O16108   5.373   6.072   2.935
 5289WAT     H116109   5.403   6.160   2.900
 5289WAT     H216110   5.275   6.062   2.920
 5290WAT      O16111   8.860   7.360   7.315
 5290WAT     H116112   8.846   7.261   7.307
 5290WAT     H216113   8.949   7.384   7.276
 5291WAT      O16114   9.284   7.128   5.925
 5291WAT     H116115   9.344   7.049   5.941
 5291WAT     H216116   9.254   7.165   6.012
 5292WAT      O16117   9.456   0.878   3.386
 5292WAT     H116118   9.504   0.876   3.299
 5292WAT     H216119   9.367   0.923   3.374
 5293WAT      O16120   2.844   5.227   0.157
 5293WAT     H116121   2.872   5.162   0.087
 5293WAT     H216122   2.914   5.297   0.168
 5294WAT      O16123   7.227   3.079   8.225
 5294WAT     H116124   7.172   3.139   8.166
 5294WAT     H216125   7.167   3.015   8.272
 5295WAT      O16126   4.576   5.021   0.958
 5295WAT     H116127   4.649   5.082   0.988
 5295WAT     H216128   4.509   5.073   0.904
 5296WAT      O16129   9.516   4.845   4.436
 5296WAT     H116130   9.595   4.797   4.400
 5296WAT     H216131   9.511   4.936   4.396
 5297WAT      O16132   4.327   6.418   2.935
 5297WAT     H116133   4.367   6.436   3.025
 5297WAT     H216134   4.330   6.320   2.915
 5298WAT      O16135   1.784   5.471   4.917
 5298WAT     H116136   1.855   5.537   4.943
 5298WAT     H216137   1.714   5.468   4.988
 5299WAT      O16138   1.093   7.475   4.436
 5299WAT     H116139   1.085   7.493   4.338
 5299WAT     H216140   1.171   7.525   4.473
 5300WAT      O16141   2.140   8.775   0.277
 5300WAT     H116142   2.220   8.817   0.320
 5300WAT     H216143   2.129   8.812   0.185
 5301WAT      O16144   3.727   2.695   5.151
 5301WAT     H116145   3.638   2.677   5.192
 5301WAT     H216146   3.776   2.762   5.206
 5302WAT      O16147   7.202   8.880   8.998
 5302WAT     H116148   7.157   8.823   9.067
 5302WAT     H216149   7.193   8.976   9.024
 5303WAT      O16150   1.573   9.041   9.312
 5303WAT     H116151   1.647   8.980   9.338
 5303WAT     H216152   1.551   9.102   9.389
 5304WAT      O16153   7.167   4.161   6.298
 5304WAT     H116154   7.086   4.144   6.354
 5304WAT     H216155   7.187   4.080   6.243
 5305WAT      O16156   9.313   7.678   5.136
 5305WAT     H116157   9.236   7.742   5.141
 5305WAT     H216158   9.293   7.598   5.192
 5306WAT      O16159   6.121   5.260   7.550
 5306WAT     H116160   6.126   5.341   7.608
 5306WAT     H216161   6.159   5.281   7.460
 5307WAT      O16162   1.095   2.053   7.960
 5307WAT     H116163   1.122   2.016   8.049
 5307WAT     H216164   1.177   2.068   7.904
 5308WAT      O16165   1.861   0.142   3.893
 5308WAT     H116166   1.885   0.238   3.909
 5308WAT     H216167   1.821   0.103   3.976
 5309WAT      O16168   0.372   4.916   1.511
 5309WAT     H116169   0.318   4.871   1.582
 5309WAT     H216170   0.448   4.966   1.553
 5310WAT      O16171   8.197   9.843   2.797
 5310WAT     H116172   8.188   9.829   2.698
 5310WAT     H216173   8.191   9.755   2.844
 5311WAT      O16174   1.917   9.340   9.742
 5311WAT     H116175   1.992   9.300   9.794
 5311WAT     H216176   1.898   9.432   9.776
 5312WAT      O16177   2.688   1.721   5.083
 5312WAT     H116178   2.658   1.815   5.069
 5312WAT     H216179   2.745   1.716   5.165
 5313WAT      O16180   5.473   4.862   1.478
 5313WAT     H116181   5.457   4.858   1.379
 5313WAT     H216182   5.437   4.948   1.514
 5314WAT      O16183   2.387   4.695   9.883
 5314WAT     H116184   2.470   4.716   9.831
 5314WAT     H216185   2.398   4.730   9.976
 5315WAT      O16186   0.274   3.842   4.066
 5315WAT     H116187   0.177   3.850   4.090
 5315WAT     H216188   0.310   3.932   4.043
 5316WAT      O16189   5.327   3.575   2.511
 5316WAT     H116190   5.227   3.571   2.506
 5316WAT     H216191   5.358   3.526   2.592
 5317WAT      O16192   2.214   0.844   0.576
 5317WAT     H116193   2.124   0.847   0.620
 5317WAT     H216194   2.272   0.915   0.614
 5318WAT      O16195   0.333   4.011   1.493
 5318WAT     H116196   0.423   3.969   1.503
 5318WAT     H216197   0.343   4.111   1.492
 5319WAT      O16198   0.481   4.801   3.933
 5319WAT     H116199   0.557   4.822   3.872
 5319WAT     H216200   0.446   4.710   3.913
 5320WAT      O16201   0.664   8.450   7.232
 5320WAT     H116202   0.749   8.418   7.191
 5320WAT     H216203   0.613   8.372   7.269
 5321WAT      O16204   1.716   3.164   0.030
 5321WAT     H116205   1.781   3.150  -0.044
 5321WAT     H216206   1.724   3.089   0.096
 5322WAT      O16207   8.453   1.051   8.915
 5322WAT     H116208   8.550   1.026   8.906
 5322WAT     H216209   8.403   0.973   8.952
 5323WAT      O16210   4.960   5.647   0.877
 5323WAT     H116211   4.971   5.631   0.779
 5323WAT     H216212   4.989   5.740   0.900
 5324WAT      O16213   7.223   9.792   8.916
 5324WAT     H116214   7.174   9.838   8.990
 5324WAT     H216215   7.315   9.769   8.947
 5325WAT      O16216   5.815   0.427   8.031
 5325WAT     H116217   5.871   0.351   7.999
 5325WAT     H216218   5.817   0.501   7.964
 5326WAT      O16219   7.108   1.085   7.528
 5326WAT     H116220   7.050   1.023   7.582
 5326WAT     H216221   7.179   1.123   7.587
 5327WAT      O16222   8.516   4.601   0.172
 5327WAT     H116223   8.467   4.533   0.227
 5327WAT     H216224   8.572   4.555   0.103
 5328WAT      O16225   3.005   2.817   6.245
 5328WAT     H116226   3.088   2.824   6.190
 5328WAT     H216227   3.022   2.852   6.337
 5329WAT      O16228   6.344   7.577   2.858
 5329WAT     H116229   6.380   7.667   2.883
 5329WAT     H216230   6.292   7.540   2.935
 5330WAT      O16231   0.715   4.840   3.818
 5330WAT     H116232   0.771   4.762   3.845
 5330WAT     H216233   0.771   4.905   3.768
 5331WAT      O16234   6.188   9.627   6.769
 5331WAT     H116235   6.210   9.710   6.718
 5331WAT     H216236   6.273   9.584   6.801
 5332WAT      O16237   2.025   0.670   9.777
 5332WAT     H116238   2.094   0.706   9.839
 5332WAT     H216239   2.029   0.570   9.776
 5333WAT      O16240   6.488   9.261   6.428
 5333WAT     H116241   6.441   9.175   6.446
 5333WAT     H216242   6.581   9.242   6.394
 5334WAT      O16243   9.143   1.717   1.359
 5334WAT     H116244   9.054   1.720   1.405
 5334WAT     H216245   9.205   1.783   1.400
 5335WAT      O16246   5.265   7.678   7.903
 5335WAT     H116247   5.300   7.635   7.821
 5335WAT     H216248   5.191   7.622   7.941
 5336WAT      O16249   3.112   4.181   4.306
 5336WAT     H116250   3.096   4.268   4.260
 5336WAT     H216251   3.134   4.197   4.402
 5337WAT      O16252   9.471   4.202   4.625
 5337WAT     H116253   9.507   4.211   4.532
 5337WAT     H216254   9.392   4.141   4.624
 5338WAT      O16255   4.666   0.414   3.618
 5338WAT     H116256   4.759   0.439   3.594
 5338WAT     H216257   4.635   0.339   3.559
 5339WAT      O16258   7.868   3.213   2.769
 5339WAT     H116259   7.865   3.113   2.779
 5339WAT     H216260   7.910   3.253   2.850
 5340WAT      O16261   2.160   7.331   3.544
 5340WAT     H116262   2.172   7.411   3.486
 5340WAT     H216263   2.204   7.252   3.501
 5341WAT      O16264   7.287   0.922   2.898
 5341WAT     H116265   7.301   0.982   2.819
 5341WAT     H216266   7.362   0.856   2.904
 5342WAT      O16267   2.106   2.006   0.595
 5342WAT     H116268   2.201   2.019   0.620
 5342WAT     H216269   2.061   1.948   0.663
 5343WAT      O16270   6.737   5.683   6.857
 5343WAT     H116271   6.768   5.764   6.906
 5343WAT     H216272   6.660   5.641   6.906
 5344WAT      O16273   1.167   4.353   4.584
 5344WAT     H116274   1.119   4.266   4.573
 5344WAT     H216275   1.237   4.362   4.513
 5345WAT      O16276   9.479   4.601   9.469
 5345WAT     H116277   9.420   4.657   9.411
 5345WAT     H216278   9.546   4.553   9.412
 5346WAT      O16279   2.537   5.609   3.454
 5346WAT     H116280   2.571   5.640   3.543
 5346WAT     H216281   2.487   5.524   3.465
 5347WAT      O16282   7.114   8.678   3.201
 5347WAT     H116283   7.042   8.609   3.197
 5347WAT     H216284   7.080   8.764   3.163
 5348WAT      O16285   2.749   8.047   9.842
 5348WAT     H116286   2.847   8.051   9.820
 5348WAT     H216287   2.715   8.140   9.856
 5349WAT      O16288   5.041   6.442   1.586
 5349WAT     H116289   5.127   6.488   1.565
 5349WAT     H216290   5.061   6.354   1.631
 5350WAT      O16291   3.755   6.232   7.769
 5350WAT     H116292   3.663   6.213   7.802
 5350WAT     H216293   3.799   6.147   7.742
 5351WAT      O16294   5.015   1.304   9.825
 5351WAT     H116295   4.947   1.262   9.885
 5351WAT     H216296   4.973   1.378   9.773
 5352WAT      O16297   4.568   9.396   2.923
 5352WAT     H116298   4.481   9.376   2.878
 5352WAT     H216299   4.599   9.487   2.895
 5353WAT      O16300   2.392   4.604   6.411
 5353WAT     H116301   2.351   4.650   6.332
 5353WAT     H216302   2.322   4.586   6.480
 5354WAT      O16303   7.017   4.534   4.481
 5354WAT     H116304   7.081   4.610   4.467
 5354WAT     H216305   6.976   4.509   4.394
 5355WAT      O16306   9.821   2.594   2.827
 5355WAT     H116307   9.814   2.600   2.927
 5355WAT     H216308   9.912   2.622   2.798
 5356WAT      O16309   1.086   1.562   2.518
 5356WAT     H116310   1.130   1.581   2.606
 5356WAT     H216311   1.136   1.609   2.446
 5357WAT      O16312   7.171   1.558   3.744
 5357WAT     H116313   7.165   1.590   3.649
 5357WAT     H216314   7.207   1.465   3.745
 5358WAT      O16315   6.391   6.536   3.653
 5358WAT     H116316   6.367   6.619   3.704
 5358WAT     H216317   6.487   6.513   3.672
 5359WAT      O16318   7.371   1.547   7.015
 5359WAT     H116319   7.435   1.548   7.092
 5359WAT     H216320   7.376   1.459   6.968
 5360WAT      O16321   5.583   9.161   1.280
 5360WAT     H116322   5.553   9.234   1.342
 5360WAT     H216323   5.503   9.112   1.245
 5361WAT      O16324   7.926   2.502   6.854
 5361WAT     H116325   7.869   2.559   6.914
 5361WAT     H216326   7.953   2.419   6.902
 5362WAT      O16327   2.930   4.702   0.163
 5362WAT     H116328   2.987   4.621   0.158
 5362WAT     H216329   2.911   4.724   0.259
 5363WAT      O16330   7.645   8.924   5.058
 5363WAT     H116331   7.595   9.001   5.019
 5363WAT     H216332   7.639   8.929   5.158
 5364WAT      O16333   9.147   3.239   2.470
 5364WAT     H116334   9.188   3.319   2.426
 5364WAT     H216335   9.132   3.167   2.401
 5365WAT      O16336   4.993   0.130   3.427
 5365WAT     H116337   5.014   0.209   3.369
 5365WAT     H216338   4.895   0.109   3.422
 5366WAT      O16339   7.676   6.605   1.685
 5366WAT     H116340   7.600   6.651   1.732
 5366WAT     H216341   7.693   6.652   1.598
 5367WAT      O16342   4.078   3.844   7.379
 5367WAT     H116343   4.040   3.767   7.430
 5367WAT     H216344   4.175   3.855   7.403
 5368WAT      O16345   2.887   0.806   2.363
 5368WAT     H116346   2.883   0.762   2.273
 5368WAT     H216347   2.850   0.745   2.432
 5369WAT      O16348   5.371   7.439   4.482
 5369WAT     H116349   5.438   7.364   4.489
 5369WAT     H216350   5.340   7.446   4.388
 5370WAT      O16351   9.797   6.884   8.396
 5370WAT     H116352   9.819   6.788   8.379
 5370WAT     H216353   9.868   6.942   8.357
 5371WAT      O16354   6.020   2.703   7.645
 5371WAT     H116355   6.028   2.614   7.601
 5371WAT     H216356   6.088   2.765   7.608
 5372WAT      O16357   4.406   2.330   8.316
 5372WAT     H116358   4.463   2.323   8.398
 5372WAT     H216359   4.310   2.325   8.341
 5373WAT      O16360   1.506   8.551   6.544
 5373WAT     H116361   1.534   8.641   6.511
 5373WAT     H216362   1.545   8.535   6.635
 5374WAT      O16363   0.100   9.376   3.004
 5374WAT     H116364   0.004   9.403   3.005
 5374WAT     H216365   0.110   9.290   2.954
 5375WAT      O16366   8.420   9.630   6.252
 5375WAT     H116367   8.511   9.660   6.225
 5375WAT     H216368   8.426   9.540   6.295
 5376WAT      O16369   1.417   6.790   9.556
 5376WAT     H116370   1.441   6.694   9.543
 5376WAT     H216371   1.443   6.843   9.475
 5377WAT      O16372   6.309   3.285   7.861
 5377WAT     H116373   6.314   3.186   7.854
 5377WAT     H216374   6.283   3.324   7.773
 5378WAT      O16375   0.141   5.747   2.564
 5378WAT     H116376   0.105   5.837   2.542
 5378WAT     H216377   0.235   5.739   2.530
 5379WAT      O16378   4.815   8.982   2.184
 5379WAT     H116379   4.825   9.077   2.157
 5379WAT     H216380   4.905   8.942   2.204
 5380WAT      O16381   7.533   8.531   8.331
 5380WAT     H116382   7.462   8.583   8.377
 5380WAT     H216383   7.501   8.504   8.240
 5381WAT      O16384   9.466   4.727   6.278
 5381WAT     H116385   9.447   4.780   6.195
 5381WAT     H216386   9.553   4.678   6.267
 5382WAT      O16387   9.283   4.700   9.310
 5382WAT     H116388   9.214   4.655   9.366
 5382WAT     H216389   9.253   4.702   9.215
 5383WAT      O16390   6.897   3.164   4.078
 5383WAT     H116391   6.920   3.099   4.005
 5383WAT     H216392   6.980   3.185   4.130
 5384WAT      O16393   0.408   3.994   5.319
 5384WAT     H116394   0.418   4.070   5.383
 5384WAT     H216395   0.491   3.938   5.319
 5385WAT      O16396   7.469   8.344   7.861
 5385WAT     H116397   7.424   8.413   7.805
 5385WAT     H216398   7.401   8.287   7.906
 5386WAT      O16399   4.423   9.451   1.024
 5386WAT     H116400   4.509   9.459   0.975
 5386WAT     H216401   4.373   9.371   0.992
 5387WAT      O16402   1.381   7.932   1.431
 5387WAT     H116403   1.413   7.935   1.336
 5387WAT     H216404   1.398   8.020   1.475
 5388WAT      O16405   5.230   0.228   7.852
 5388WAT     H116406   5.320   0.252   7.889
 5388WAT     H216407   5.228   0.248   7.754
 5389WAT      O16408   7.866   6.909   1.351
 5389WAT     H116409   7.801   6.839   1.382
 5389WAT     H216410   7.824   6.999   1.360
 5390WAT      O16411   1.971   5.667   2.871
 5390WAT     H116412   2.044   5.723   2.908
 5390WAT     H216413   1.987   5.651   2.773
 5391WAT      O16414   6.548   1.532   3.355
 5391WAT     H116415   6.580   1.530   3.449
 5391WAT     H216416   6.451   1.510   3.352
 5392WAT      O16417   0.095   0.856   0.257
 5392WAT     H116418   0.129   0.815   0.341
 5392WAT     H216419   0.118   0.953   0.255
 5393WAT      O16420   1.114   8.323   2.873
 5393WAT     H116421   1.081   8.234   2.905
 5393WAT     H216422   1.036   8.379   2.845
 5394WAT      O16423   4.406   2.028   1.083
 5394WAT     H116424   4.307   2.022   1.078
 5394WAT     H216425   4.445   1.936   1.083
 5395WAT      O16426   9.507   3.897   3.840
 5395WAT     H116427   9.581   3.836   3.868
 5395WAT     H216428   9.462   3.934   3.921
 5396WAT      O16429   3.860   2.877   0.727
 5396WAT     H116430   3.951   2.840   0.748
 5396WAT     H216431   3.868   2.943   0.652
 5397WAT      O16432   3.342   7.717   0.305
 5397WAT     H116433   3.375   7.792   0.363
 5397WAT     H216434   3.271   7.666   0.354
 5398WAT      O16435   2.803   1.377   0.571
 5398WAT     H116436   2.733   1.322   0.615
 5398WAT     H216437   2.818   1.344   0.478
 5399WAT      O16438   0.565   1.974   4.781
 5399WAT     H116439   0.579   2.023   4.695
 5399WAT     H216440   0.589   1.878   4.769
 5400WAT      O16441   7.648   7.115   6.613
 5400WAT     H116442   7.649   7.213   6.593
 5400WAT     H216443   7.709   7.068   6.549
 5401WAT      O16444   3.892   4.397   0.987
 5401WAT     H116445   3.870   4.392   1.084
 5401WAT     H216446   3.966   4.334   0.966
 5402WAT      O16447   3.555   5.532   1.305
 5402WAT     H116448   3.476   5.484   1.267
 5402WAT     H216449   3.535   5.558   1.400
 5403WAT      O16450   8.334   3.092   6.141
 5403WAT     H116451   8.313   3.176   6.190
 5403WAT     H216452   8.249   3.053   6.104
 5404WAT      O16453   5.045   6.605   3.372
 5404WAT     H116454   5.143   6.596   3.358
 5404WAT     H216455   5.019   6.701   3.363
 5405WAT      O16456   7.105   7.757   8.753
 5405WAT     H116457   7.059   7.733   8.668
 5405WAT     H216458   7.126   7.675   8.805
 5406WAT      O16459   5.218   8.266   7.270
 5406WAT     H116460   5.309   8.298   7.242
 5406WAT     H216461   5.154   8.343   7.266
 5407WAT      O16462   8.830   9.047   8.723
 5407WAT     H116463   8.892   9.032   8.645
 5407WAT     H216464   8.736   9.036   8.693
 5408WAT      O16465   3.261   6.493   9.863
 5408WAT     H116466   3.161   6.496   9.872
 5408WAT     H216467   3.302   6.536   9.943
 5409WAT      O16468   4.131   7.575   7.658
 5409WAT     H116469   4.035   7.551   7.667
 5409WAT     H216470   4.168   7.601   7.747
 5410WAT      O16471   6.761   0.053   9.424
 5410WAT     H116472   6.843  -0.004   9.417
 5410WAT     H216473   6.680  -0.006   9.429
 5411WAT      O16474   1.303   1.407   8.706
 5411WAT     H116475   1.370   1.346   8.750
 5411WAT     H216476   1.215   1.397   8.751
 5412WAT      O16477   0.834   2.459   4.861
 5412WAT     H116478   0.913   2.470   4.921
 5412WAT     H216479   0.862   2.413   4.777
 5413WAT      O16480   3.974   4.709   1.745
 5413WAT     H116481   3.935   4.659   1.668
 5413WAT     H216482   3.978   4.807   1.724
 5414WAT      O16483   7.457   8.411   4.557
 5414WAT     H116484   7.467   8.314   4.534
 5414WAT     H216485   7.415   8.420   4.647
 5415WAT      O16486   2.545   5.362   1.415
 5415WAT     H116487   2.487   5.429   1.369
 5415WAT     H216488   2.627   5.346   1.360
 5416WAT      O16489   2.190   8.664   7.215
 5416WAT     H116490   2.115   8.713   7.261
 5416WAT     H216491   2.161   8.570   7.195
 5417WAT      O16492   7.381   7.810   2.800
 5417WAT     H116493   7.283   7.794   2.788
 5417WAT     H216494   7.398   7.907   2.813
 5418WAT      O16495   9.199   9.786   3.938
 5418WAT     H116496   9.118   9.823   3.982
 5418WAT     H216497   9.195   9.686   3.938
 5419WAT      O16498   4.319   5.835   3.027
 5419WAT     H116499   4.341   5.905   3.095
 5419WAT     H216500   4.221   5.817   3.029
 5420WAT      O16501   8.139   1.834   3.062
 5420WAT     H116502   8.203   1.758   3.070
 5420WAT     H216503   8.116   1.849   2.965
 5421WAT      O16504   7.257   8.803   2.839
 5421WAT     H116505   7.248   8.706   2.862
 5421WAT     H216506   7.179   8.832   2.785
 5422WAT      O16507   3.170   9.482   3.361
 5422WAT     H116508   3.136   9.575   3.371
 5422WAT     H216509   3.145   9.428   3.441
 5423WAT      O16510   2.572   8.953   7.983
 5423WAT     H116511   2.514   8.940   8.063
 5423WAT     H216512   2.551   8.882   7.915
 5424WAT      O16513   7.233   9.625   9.548
 5424WAT     H116514   7.297   9.656   9.619
 5424WAT     H216515   7.233   9.691   9.473
 5425WAT      O16516   9.495   1.017   8.756
 5425WAT     H116517   9.576   0.961   8.772
 5425WAT     H216518   9.501   1.061   8.667
 5426WAT      O16519   7.686   8.160   7.786
 5426WAT     H116520   7.599   8.205   7.806
 5426WAT     H216521   7.675   8.061   7.793
 5427WAT      O16522   6.578   6.970   0.933
 5427WAT     H116523   6.510   6.897   0.926
 5427WAT     H216524   6.554   7.031   1.009
 5428WAT      O16525   9.534   7.110   1.048
 5428WAT     H116526   9.606   7.122   1.115
 5428WAT     H216527   9.458   7.172   1.068
 5429WAT      O16528   3.120   4.171   3.524
 5429WAT     H116529   3.180   4.128   3.457
 5429WAT     H216530   3.112   4.112   3.604
 5430WAT      O16531   8.620   1.925   6.831
 5430WAT     H116532   8.615   1.944   6.929
 5430WAT     H216533   8.560   1.987   6.781
 5431WAT      O16534   3.860   0.694   7.309
 5431WAT     H116535   3.817   0.748   7.382
 5431WAT     H216536   3.861   0.746   7.224
 5432WAT      O16537   5.836   6.582   1.806
 5432WAT     H116538   5.749   6.602   1.852
 5432WAT     H216539   5.893   6.664   1.806
 5433WAT      O16540   4.264   8.774   1.133
 5433WAT     H116541   4.275   8.858   1.187
 5433WAT     H216542   4.206   8.793   1.054
 5434WAT      O16543   3.366   6.522   3.835
 5434WAT     H116544   3.374   6.507   3.933
 5434WAT     H216545   3.316   6.446   3.794
 5435WAT      O16546   9.164   3.550   3.693
 5435WAT     H116547   9.195   3.557   3.598
 5435WAT     H216548   9.242   3.529   3.752
 5436WAT      O16549   8.211   3.178   4.637
 5436WAT     H116550   8.144   3.117   4.595
 5436WAT     H216551   8.207   3.268   4.594
 5437WAT      O16552   2.037   6.720   1.960
 5437WAT     H116553   1.939   6.740   1.967
 5437WAT     H216554   2.083   6.793   1.909
 5438WAT      O16555   9.860   3.258   4.028
 5438WAT     H116556   9.894   3.177   3.980
 5438WAT     H216557   9.763   3.247   4.047
 5439WAT      O16558   9.872   4.851   6.436
 5439WAT     H116559   9.772   4.849   6.436
 5439WAT     H216560   9.905   4.942   6.412
 5440WAT      O16561   1.958   6.081   6.382
 5440WAT     H116562   1.972   6.018   6.458
 5440WAT     H216563   2.034   6.074   6.318
 5441WAT      O16564   0.964   7.276   9.338
 5441WAT     H116565   1.009   7.336   9.271
 5441WAT     H216566   0.966   7.182   9.304
 5442WAT      O16567   8.382   0.711   6.076
 5442WAT     H116568   8.318   0.723   6.152
 5442WAT     H216569   8.355   0.631   6.023
 5443WAT      O16570   2.368   3.746   5.230
 5443WAT     H116571   2.328   3.684   5.296
 5443WAT     H216572   2.312   3.829   5.224
 5444WAT      O16573   2.545   6.906   1.811
 5444WAT     H116574   2.475   6.915   1.740
 5444WAT     H216575   2.617   6.973   1.794
 5445WAT      O16576   3.462   9.031   4.952
 5445WAT     H116577   3.418   8.950   4.991
 5445WAT     H216578   3.459   9.026   4.852
 5446WAT      O16579   3.075   4.258   5.340
 5446WAT     H116580   3.093   4.326   5.411
 5446WAT     H216581   3.012   4.296   5.272
 5447WAT      O16582   2.605   2.652   8.105
 5447WAT     H116583   2.576   2.661   8.009
 5447WAT     H216584   2.568   2.728   8.158
 5448WAT      O16585   2.543   2.315   5.667
 5448WAT     H116586   2.482   2.343   5.593
 5448WAT     H216587   2.612   2.252   5.631
 5449WAT      O16588   0.834   4.758   0.256
 5449WAT     H116589   0.741   4.778   0.284
 5449WAT     H216590   0.847   4.786   0.161
 5450WAT      O16591   5.746   3.852   7.147
 5450WAT     H116592   5.800   3.933   7.169
 5450WAT     H216593   5.656   3.880   7.113
 5451WAT      O16594   3.545   8.486   4.657
 5451WAT     H116595   3.497   8.551   4.599
 5451WAT     H216596   3.497   8.478   4.745
 5452WAT      O16597   9.505   7.094   6.402
 5452WAT     H116598   9.534   7.041   6.481
 5452WAT     H216599   9.507   7.037   6.321
 5453WAT      O16600   5.662   7.515   2.229
 5453WAT     H116601   5.664   7.424   2.271
 5453WAT     H216602   5.748   7.562   2.247
 5454WAT      O16603   7.101   5.983   1.012
 5454WAT     H116604   7.147   6.008   0.927
 5454WAT     H216605   7.145   5.903   1.051
 5455WAT      O16606   5.384   2.368   8.453
 5455WAT     H116607   5.371   2.369   8.354
 5455WAT     H216608   5.477   2.339   8.474
 5456WAT      O16609   4.405   7.503   1.844
 5456WAT     H116610   4.311   7.495   1.876
 5456WAT     H216611   4.467   7.459   1.910
 5457WAT      O16612   6.389   5.218   3.739
 5457WAT     H116613   6.469   5.225   3.798
 5457WAT     H216614   6.332   5.299   3.751
 5458WAT      O16615   2.049   7.327   2.334
 5458WAT     H116616   2.074   7.405   2.276
 5458WAT     H216617   2.126   7.303   2.393
 5459WAT      O16618   3.410   4.529   0.120
 5459WAT     H116619   3.433   4.561   0.212
 5459WAT     H216620   3.453   4.440   0.104
 5460WAT      O16621   0.183   1.441   3.143
 5460WAT     H116622   0.197   1.499   3.224
 5460WAT     H216623   0.270   1.425   3.098
 5461WAT      O16624   2.958   3.110   8.515
 5461WAT     H116625   3.031   3.159   8.562
 5461WAT     H216626   2.994   3.065   8.434
 5462WAT      O16627   6.663   3.590   3.132
 5462WAT     H116628   6.699   3.655   3.066
 5462WAT     H216629   6.738   3.553   3.187
 5463WAT      O16630   4.019   2.092   2.860
 5463WAT     H116631   4.056   2.078   2.952
 5463WAT     H216632   4.058   2.175   2.820
 5464WAT      O16633   0.651   5.098   9.154
 5464WAT     H116634   0.572   5.037   9.163
 5464WAT     H216635   0.735   5.044   9.159
 5465WAT      O16636   2.962   5.712   1.459
 5465WAT     H116637   2.931   5.635   1.401
 5465WAT     H216638   3.046   5.686   1.507
 5466WAT      O16639   8.310   1.154   7.139
 5466WAT     H116640   8.320   1.073   7.082
 5466WAT     H216641   8.358   1.140   7.226
 5467WAT      O16642   3.959   1.640   4.927
 5467WAT     H116643   4.048   1.609   4.960
 5467WAT     H216644   3.948   1.615   4.831
 5468WAT      O16645   2.053   9.419   1.624
 5468WAT     H116646   2.117   9.421   1.701
 5468WAT     H216647   2.047   9.510   1.583
 5469WAT      O16648   3.661   3.508   6.420
 5469WAT     H116649   3.570   3.490   6.383
 5469WAT     H216650   3.706   3.577   6.365
 5470WAT      O16651   9.299   4.222   7.942
 5470WAT     H116652   9.376   4.286   7.943
 5470WAT     H216653   9.263   4.215   7.849
 5471WAT      O16654   1.897   6.302   5.026
 5471WAT     H116655   1.965   6.368   5.059
 5471WAT     H216656   1.881   6.233   5.097
 5472WAT      O16657   1.774   8.567   3.487
 5472WAT     H116658   1.735   8.481   3.457
 5472WAT     H216659   1.712   8.642   3.464
 5473WAT      O16660   4.203   2.556   6.239
 5473WAT     H116661   4.117   2.532   6.192
 5473WAT     H216662   4.273   2.574   6.170
 5474WAT      O16663   0.705   7.865   8.104
 5474WAT     H116664   0.681   7.803   8.178
 5474WAT     H216665   0.681   7.823   8.016
 5475WAT      O16666   2.062   0.720   2.920
 5475WAT     H116667   2.094   0.649   2.858
 5475WAT     H216668   2.116   0.718   3.004
 5476WAT      O16669   0.095   0.989   2.234
 5476WAT     H116670   0.171   1.051   2.254
 5476WAT     H216671   0.008   1.037   2.249
 5477WAT      O16672   3.935   1.628   8.625
 5477WAT     H116673   3.929   1.693   8.549
 5477WAT     H216674   3.866   1.649   8.694
 5478WAT      O16675   5.403   9.397   1.682
 5478WAT     H116676   5.396   9.306   1.640
 5478WAT     H216677   5.492   9.438   1.658
 5479WAT      O16678   8.048   3.530   9.600
 5479WAT     H116679   8.131   3.513   9.547
 5479WAT     H216680   8.038   3.629   9.615
 5480WAT      O16681   6.314   1.546   6.020
 5480WAT     H116682   6.252   1.612   5.979
 5480WAT     H216683   6.328   1.470   5.956
 5481WAT      O16684   7.255   1.047   1.358
 5481WAT     H116685   7.341   1.005   1.385
 5481WAT     H216686   7.179   0.984   1.378
 5482WAT      O16687   4.126   1.193   3.697
 5482WAT     H116688   4.107   1.101   3.729
 5482WAT     H216689   4.143   1.253   3.775
 5483WAT      O16690   5.606   7.275   7.281
 5483WAT     H116691   5.653   7.285   7.369
 5483WAT     H216692   5.556   7.359   7.261
 5484WAT      O16693   3.190   4.998   8.124
 5484WAT     H116694   3.128   4.935   8.170
 5484WAT     H216695   3.278   5.001   8.171
 5485WAT      O16696   1.492   0.959   2.999
 5485WAT     H116697   1.550   1.040   3.011
 5485WAT     H216698   1.540   0.878   3.034
 5486WAT      O16699   5.544   0.829   9.868
 5486WAT     H116700   5.502   0.918   9.884
 5486WAT     H216701   5.520   0.767   9.943
 5487WAT      O16702   1.573   3.450   3.421
 5487WAT     H116703   1.483   3.424   3.385
 5487WAT     H216704   1.644   3.399   3.371
 5488WAT      O16705   6.492   7.699   2.630
 5488WAT     H116706   6.531   7.775   2.681
 5488WAT     H216707   6.454   7.632   2.695
 5489WAT      O16708   5.480   5.456   7.684
 5489WAT     H116709   5.416   5.380   7.693
 5489WAT     H216710   5.552   5.448   7.753
 5490WAT      O16711   0.062   3.223   2.059
 5490WAT     H116712   0.055   3.132   2.018
 5490WAT     H216713   0.071   3.214   2.158
 5491WAT      O16714   5.106   3.479   0.495
 5491WAT     H116715   5.189   3.434   0.461
 5491WAT     H216716   5.114   3.493   0.594
 5492WAT      O16717   3.904   9.225   9.110
 5492WAT     H116718   3.816   9.197   9.073
 5492WAT     H216719   3.890   9.272   9.197
 5493WAT      O16720   7.785   4.948   4.114
 5493WAT     H116721   7.870   4.927   4.065
 5493WAT     H216722   7.771   4.880   4.187
 5494WAT      O16723   4.628   8.465   9.772
 5494WAT     H116724   4.681   8.385   9.800
 5494WAT     H216725   4.687   8.528   9.721
 5495WAT      O16726   1.053   4.400   7.058
 5495WAT     H116727   1.028   4.460   6.981
 5495WAT     H216728   1.105   4.322   7.023
 5496WAT      O16729   3.840   5.246   3.862
 5496WAT     H116730   3.796   5.156   3.857
 5496WAT     H216731   3.939   5.233   3.872
 5497WAT      O16732   3.718   6.088   5.257
 5497WAT     H116733   3.705   6.114   5.353
 5497WAT     H216734   3.813   6.104   5.230
 5498WAT      O16735   9.432   4.990   1.413
 5498WAT     H116736   9.393   5.027   1.329
 5498WAT     H216737   9.530   5.009   1.415
 5499WAT      O16738   2.529   7.233   8.617
 5499WAT     H116739   2.603   7.173   8.587
 5499WAT     H216740   2.442   7.197   8.583
 5500WAT      O16741   1.102   6.114   9.847
 5500WAT     H116742   1.162   6.054   9.900
 5500WAT     H216743   1.158   6.178   9.793
 5501WAT      O16744   8.127   9.207   2.777
 5501WAT     H116745   8.031   9.181   2.773
 5501WAT     H216746   8.172   9.157   2.851
 5502WAT      O16747   8.403   9.154   2.091
 5502WAT     H116748   8.374   9.078   2.033
 5502WAT     H216749   8.337   9.166   2.165
 5503WAT      O16750   0.600   6.247   3.095
 5503WAT     H116751   0.580   6.288   3.006
 5503WAT     H216752   0.613   6.148   3.084
 5504WAT      O16753   1.504   7.176   2.737
 5504WAT     H116754   1.545   7.216   2.819
 5504WAT     H216755   1.417   7.133   2.762
 5505WAT      O16756   6.782   6.995   2.460
 5505WAT     H116757   6.831   6.964   2.541
 5505WAT     H216758   6.693   6.949   2.455
 5506WAT      O16759   3.724   3.325   9.421
 5506WAT     H116760   3.753   3.237   9.383
 5506WAT     H216761   3.631   3.317   9.456
 5507WAT      O16762   6.921   6.227   7.097
 5507WAT     H116763   6.976   6.212   7.179
 5507WAT     H216764   6.951   6.164   7.025
 5508WAT      O16765   1.538   5.218   6.817
 5508WAT     H116766   1.508   5.313   6.822
 5508WAT     H216767   1.505   5.169   6.898
 5509WAT      O16768   9.178   5.356   6.473
 5509WAT     H116769   9.257   5.408   6.504
 5509WAT     H216770   9.094   5.399   6.507
 5510WAT      O16771   2.314   9.702   7.805
 5510WAT     H116772   2.410   9.708   7.779
 5510WAT     H216773   2.287   9.785   7.854
 5511WAT      O16774   8.152   1.656   1.013
 5511WAT     H116775   8.067   1.610   0.989
 5511WAT     H216776   8.184   1.623   1.102
 5512WAT      O16777   1.506   1.416   6.610
 5512WAT     H116778   1.449   1.401   6.530
 5512WAT     H216779   1.555   1.331   6.633
 5513WAT      O16780   5.631   4.242   1.664
 5513WAT     H116781   5.661   4.315   1.602
 5513WAT     H216782   5.653   4.153   1.623
 5514WAT      O16783   2.244   6.846   4.775
 5514WAT     H116784   2.316   6.913   4.793
 5514WAT     H216785   2.282   6.770   4.723
 5515WAT      O16786   1.273   2.198   4.427
 5515WAT     H116787   1.271   2.286   4.475
 5515WAT     H216788   1.181   2.176   4.394
 5516WAT      O16789   8.652   9.392   2.086
 5516WAT     H116790   8.688   9.479   2.123
 5516WAT     H216791   8.554   9.386   2.105
 5517WAT      O16792   9.717   4.735   8.250
 5517WAT     H116793   9.748   4.821   8.211
 5517WAT     H216794   9.730   4.661   8.183
 5518WAT      O16795   2.820   2.142   4.365
 5518WAT     H116796   2.793   2.089   4.284
 5518WAT     H216797   2.812   2.084   4.447
 5519WAT      O16798   4.833   3.236   5.584
 5519WAT     H116799   4.825   3.198   5.677
 5519WAT     H216800   4.782   3.321   5.578
 5520WAT      O16801   5.400   7.564   1.177
 5520WAT     H116802   5.336   7.504   1.129
 5520WAT     H216803   5.348   7.623   1.240
 5521WAT      O16804   0.495   4.334   6.471
 5521WAT     H116805   0.465   4.281   6.391
 5521WAT     H216806   0.422   4.334   6.540
 5522WAT      O16807   5.181   8.194   5.195
 5522WAT     H116808   5.131   8.279   5.207
 5522WAT     H216809   5.269   8.212   5.151
 5523WAT      O16810   1.927   9.318   2.372
 5523WAT     H116811   1.963   9.243   2.427
 5523WAT     H216812   1.887   9.282   2.287
 5524WAT      O16813   3.468   7.148   5.995
 5524WAT     H116814   3.433   7.215   5.930
 5524WAT     H216815   3.475   7.189   6.085
 5525WAT      O16816   4.773   0.578   2.991
 5525WAT     H116817   4.865   0.611   3.014
 5525WAT     H216818   4.728   0.544   3.074
 5526WAT      O16819   4.055   5.917   5.887
 5526WAT     H116820   4.150   5.887   5.890
 5526WAT     H216821   3.997   5.840   5.860
 5527WAT      O16822   8.884   9.332   9.047
 5527WAT     H116823   8.972   9.292   9.073
 5527WAT     H216824   8.861   9.302   8.954
 5528WAT      O16825   3.783   3.004   4.925
 5528WAT     H116826   3.880   3.013   4.949
 5528WAT     H216827   3.771   3.026   4.828
 5529WAT      O16828   7.892   0.683   7.940
 5529WAT     H116829   7.922   0.587   7.946
 5529WAT     H216830   7.793   0.685   7.925
 5530WAT      O16831   9.601   8.296   7.245
 5530WAT     H116832   9.647   8.362   7.185
 5530WAT     H216833   9.555   8.227   7.189
 5531WAT      O16834   2.574   2.485   0.775
 5531WAT     H116835   2.642   2.510   0.844
 5531WAT     H216836   2.530   2.399   0.801
 5532WAT      O16837   0.069   2.077   3.664
 5532WAT     H116838  -0.013   2.132   3.645
 5532WAT     H216839   0.059   2.033   3.754
 5533WAT      O16840   0.067   7.000   7.321
 5533WAT     H116841   0.105   6.972   7.409
 5533WAT     H216842   0.132   6.980   7.248
 5534WAT      O16843   0.651   8.595   0.169
 5534WAT     H116844   0.615   8.507   0.201
 5534WAT     H216845   0.610   8.669   0.223
 5535WAT      O16846   7.167   6.676   8.532
 5535WAT     H116847   7.110   6.666   8.614
 5535WAT     H216848   7.263   6.685   8.559
 5536WAT      O16849   7.424   0.815   2.234
 5536WAT     H116850   7.332   0.832   2.198
 5536WAT     H216851   7.425   0.831   2.333
 5537WAT      O16852   2.004   3.682   5.410
 5537WAT     H116853   2.087   3.626   5.415
 5537WAT     H216854   2.016   3.764   5.466
 5538WAT      O16855   4.322   8.482   8.441
 5538WAT     H116856   4.410   8.523   8.464
 5538WAT     H216857   4.265   8.549   8.394
 5539WAT      O16858   7.762   7.916   9.195
 5539WAT     H116859   7.777   7.997   9.251
 5539WAT     H216860   7.777   7.834   9.249
 5540WAT      O16861   1.997   3.480   2.624
 5540WAT     H116862   1.901   3.504   2.633
 5540WAT     H216863   2.040   3.540   2.557
 5541WAT      O16864   0.419   1.171   3.291
 5541WAT     H116865   0.460   1.225   3.218
 5541WAT     H216866   0.491   1.132   3.348
 5542WAT      O16867   5.029   6.919   7.095
 5542WAT     H116868   5.052   6.842   7.036
 5542WAT     H216869   5.031   7.004   7.042
 5543WAT      O16870   9.558   0.893   3.127
 5543WAT     H116871   9.650   0.910   3.092
 5543WAT     H216872   9.496   0.872   3.052
 5544WAT      O16873   1.320   1.139   6.674
 5544WAT     H116874   1.270   1.158   6.589
 5544WAT     H216875   1.315   1.041   6.695
 5545WAT      O16876   1.533   7.004   7.452
 5545WAT     H116877   1.515   6.921   7.505
 5545WAT     H216878   1.567   6.978   7.361
 5546WAT      O16879   2.955   5.886   3.371
 5546WAT     H116880   2.964   5.897   3.470
 5546WAT     H216881   2.891   5.812   3.352
 5547WAT      O16882   3.300   8.542   1.342
 5547WAT     H116883   3.369   8.565   1.273
 5547WAT     H216884   3.212   8.528   1.297
 5548WAT      O16885   6.850   6.408   6.907
 5548WAT     H116886   6.927   6.455   6.864
 5548WAT     H216887   6.884   6.344   6.975
 5549WAT      O16888   1.795   2.771   6.201
 5549WAT     H116889   1.822   2.808   6.290
 5549WAT     H216890   1.840   2.822   6.128
 5550WAT      O16891   5.977   2.045   2.617
 5550WAT     H116892   5.941   1.998   2.537
 5550WAT     H216893   5.901   2.077   2.674
 5551WAT      O16894   4.837   2.571   0.996
 5551WAT     H116895   4.891   2.534   0.920
 5551WAT     H216896   4.898   2.605   1.067
 5552WAT      O16897   8.937   5.928   5.746
 5552WAT     H116898   8.985   6.001   5.697
 5552WAT     H216899   8.977   5.840   5.722
 5553WAT      O16900   5.469   3.279   4.104
 5553WAT     H116901   5.505   3.321   4.188
 5553WAT     H216902   5.545   3.249   4.046
 5554WAT      O16903   2.375   8.825   2.364
 5554WAT     H116904   2.341   8.909   2.406
 5554WAT     H216905   2.459   8.797   2.410
 5555WAT      O16906   8.314   8.943   7.831
 5555WAT     H116907   8.379   9.009   7.870
 5555WAT     H216908   8.327   8.937   7.732
 5556WAT      O16909   9.770   3.209   1.559
 5556WAT     H116910   9.751   3.111   1.561
 5556WAT     H216911   9.798   3.240   1.649
 5557WAT      O16912   3.510   0.540   9.589
 5557WAT     H116913   3.455   0.603   9.535
 5557WAT     H216914   3.451   0.472   9.633
 5558WAT      O16915   0.599   3.346   4.520
 5558WAT     H116916   0.515   3.347   4.466
 5558WAT     H216917   0.605   3.261   4.572
 5559WAT      O16918   8.538   6.418   1.337
 5559WAT     H116919   8.574   6.343   1.282
 5559WAT     H216920   8.490   6.381   1.417
 5560WAT      O16921   5.247   5.523   5.718
 5560WAT     H116922   5.193   5.602   5.690
 5560WAT     H216923   5.243   5.453   5.647
 5561WAT      O16924   8.958   7.410   3.937
 5561WAT     H116925   9.052   7.402   3.969
 5561WAT     H216926   8.896   7.377   4.009
 5562WAT      O16927   7.854   5.236   0.002
 5562WAT     H116928   7.775   5.198   0.050
 5562WAT     H216929   7.830   5.325  -0.037
 5563WAT      O16930   3.676   4.946   7.719
 5563WAT     H116931   3.725   4.918   7.636
 5563WAT     H216932   3.661   4.867   7.777
 5564WAT      O16933   3.722   5.210   9.739
 5564WAT     H116934   3.769   5.160   9.666
 5564WAT     H216935   3.788   5.237   9.809
 5565WAT      O16936   2.638   3.501   4.343
 5565WAT     H116937   2.707   3.433   4.369
 5565WAT     H216938   2.609   3.551   4.425
 5566WAT      O16939   0.896   3.224   0.782
 5566WAT     H116940   0.916   3.182   0.871
 5566WAT     H216941   0.871   3.320   0.796
 5567WAT      O16942   6.556   6.509   4.250
 5567WAT     H116943   6.516   6.442   4.312
 5567WAT     H216944   6.587   6.589   4.302
 5568WAT      O16945   5.697   4.773   9.720
 5568WAT     H116946   5.638   4.695   9.740
 5568WAT     H216947   5.709   4.828   9.803
 5569WAT      O16948   4.835   1.460   0.539
 5569WAT     H116949   4.808   1.454   0.443
 5569WAT     H216950   4.846   1.556   0.564
 5570WAT      O16951   5.696   2.455   2.369
 5570WAT     H116952   5.699   2.414   2.277
 5570WAT     H216953   5.611   2.427   2.415
 5571WAT      O16954   4.026   8.981   2.384
 5571WAT     H116955   3.949   9.044   2.394
 5571WAT     H216956   3.992   8.887   2.381
 5572WAT      O16957   5.563   1.023   7.784
 5572WAT     H116958   5.538   1.081   7.862
 5572WAT     H216959   5.504   1.045   7.706
 5573WAT      O16960   1.516   9.122   1.385
 5573WAT     H116961   1.610   9.130   1.419
 5573WAT     H216962   1.508   9.170   1.298
 5574WAT      O16963   1.002   8.889   3.628
 5574WAT     H116964   0.998   8.943   3.544
 5574WAT     H216965   0.911   8.886   3.671
 5575WAT      O16966   1.760   8.363   2.735
 5575WAT     H116967   1.813   8.288   2.776
 5575WAT     H216968   1.779   8.448   2.784
 5576WAT      O16969   8.717   2.803   0.577
 5576WAT     H116970   8.748   2.885   0.626
 5576WAT     H216971   8.624   2.781   0.605
 5577WAT      O16972   1.041   4.054   6.851
 5577WAT     H116973   1.087   3.994   6.786
 5577WAT     H216974   1.109   4.107   6.902
 5578WAT      O16975   2.678   3.598   1.091
 5578WAT     H116976   2.580   3.580   1.101
 5578WAT     H216977   2.698   3.691   1.123
 5579WAT      O16978   8.986   0.262   4.626
 5579WAT     H116979   8.957   0.351   4.661
 5579WAT     H216980   8.944   0.247   4.536
 5580WAT      O16981   8.684   0.576   2.221
 5580WAT     H116982   8.605   0.570   2.282
 5580WAT     H216983   8.767   0.588   2.274
 5581WAT      O16984   6.455   1.961   5.564
 5581WAT     H116985   6.502   2.049   5.563
 5581WAT     H216986   6.403   1.951   5.648
 5582WAT      O16987   1.987   3.277   7.983
 5582WAT     H116988   1.912   3.302   8.045
 5582WAT     H216989   2.071   3.322   8.014
 5583WAT      O16990   4.024   5.514   9.582
 5583WAT     H116991   4.025   5.605   9.542
 5583WAT     H216992   3.994   5.447   9.514
 5584WAT      O16993   9.178   5.467   3.439
 5584WAT     H116994   9.274   5.444   3.428
 5584WAT     H216995   9.167   5.529   3.517
 5585WAT      O16996   4.905   5.001   6.830
 5585WAT     H116997   4.835   5.011   6.759
 5585WAT     H216998   4.982   4.948   6.794
 5586WAT      O16999   3.034   2.237   0.417
 5586WAT     H117000   2.971   2.307   0.453
 5586WAT     H217001   3.111   2.226   0.480
 5587WAT      O17002   3.902   8.572   6.047
 5587WAT     H117003   3.947   8.523   5.972
 5587WAT     H217004   3.916   8.670   6.036
 5588WAT      O17005   5.414   9.278   4.655
 5588WAT     H117006   5.479   9.299   4.728
 5588WAT     H217007   5.464   9.265   4.569
 5589WAT      O17008   1.178   3.869   4.431
 5589WAT     H117009   1.080   3.881   4.411
 5589WAT     H217010   1.199   3.914   4.518
 5590WAT      O17011   8.116   5.853   2.022
 5590WAT     H117012   8.068   5.932   1.984
 5590WAT     H217013   8.213   5.858   1.999
 5591WAT      O17014   4.407   7.260   0.947
 5591WAT     H117015   4.312   7.283   0.923
 5591WAT     H217016   4.467   7.283   0.871
 5592WAT      O17017   9.104   2.775   5.366
 5592WAT     H117018   9.019   2.827   5.364
 5592WAT     H217019   9.152   2.793   5.453
 5593WAT      O17020   3.168   0.718   9.073
 5593WAT     H117021   3.100   0.723   9.146
 5593WAT     H217022   3.253   0.680   9.109
 5594WAT      O17023   6.311   8.673   2.764
 5594WAT     H117024   6.254   8.628   2.696
 5594WAT     H217025   6.273   8.658   2.855
 5595WAT      O17026   5.510   8.398   2.977
 5595WAT     H117027   5.509   8.448   3.063
 5595WAT     H217028   5.595   8.417   2.927
 5596WAT      O17029   8.116   4.248   9.668
 5596WAT     H117030   8.132   4.297   9.753
 5596WAT     H217031   8.167   4.161   9.670
 5597WAT      O17032   1.052   1.937   8.990
 5597WAT     H117033   1.114   1.896   8.923
 5597WAT     H217034   1.051   2.037   8.978
 5598WAT      O17035   1.996   4.780   8.308
 5598WAT     H117036   1.992   4.863   8.253
 5598WAT     H217037   1.903   4.750   8.331
 5599WAT      O17038   1.799   5.769   8.956
 5599WAT     H117039   1.729   5.740   8.890
 5599WAT     H217040   1.784   5.865   8.979
 5600WAT      O17041   0.330   1.821   0.194
 5600WAT     H117042   0.426   1.850   0.200
 5600WAT     H217043   0.277   1.867   0.265
 5601WAT      O17044   0.490   5.255   9.457
 5601WAT     H117045   0.425   5.180   9.443
 5601WAT     H217046   0.570   5.220   9.506
 5602WAT      O17047   1.352   0.717   7.299
 5602WAT     H117048   1.297   0.746   7.220
 5602WAT     H217049   1.370   0.795   7.358
 5603WAT      O17050   0.474   3.827   4.278
 5603WAT     H117051   0.392   3.782   4.243
 5603WAT     H217052   0.551   3.806   4.219
 5604WAT      O17053   1.544   7.346   0.813
 5604WAT     H117054   1.533   7.379   0.906
 5604WAT     H217055   1.513   7.416   0.748
 5605WAT      O17056   3.229   1.059   7.132
 5605WAT     H117057   3.143   1.055   7.183
 5605WAT     H217058   3.264   0.967   7.119
 5606WAT      O17059   4.106   9.205   8.006
 5606WAT     H117060   4.200   9.186   7.977
 5606WAT     H217061   4.088   9.158   8.093
 5607WAT      O17062   2.520   3.727   4.807
 5607WAT     H117063   2.465   3.663   4.860
 5607WAT     H217064   2.462   3.799   4.770
 5608WAT      O17065   5.220   1.943   7.720
 5608WAT     H117066   5.260   1.917   7.808
 5608WAT     H217067   5.166   1.866   7.684
 5609WAT      O17068   4.249   9.768   0.922
 5609WAT     H117069   4.180   9.839   0.934
 5609WAT     H217070   4.204   9.680   0.906
 5610WAT      O17071   5.935   7.132   2.516
 5610WAT     H117072   5.879   7.074   2.456
 5610WAT     H217073   5.884   7.214   2.541
 5611WAT      O17074   4.481   5.556   2.676
 5611WAT     H117075   4.463   5.458   2.675
 5611WAT     H217076   4.579   5.573   2.662
 5612WAT      O17077   4.371   7.972   3.871
 5612WAT     H117078   4.282   7.988   3.913
 5612WAT     H217079   4.359   7.936   3.779
 5613WAT      O17080   3.988   4.510   6.544
 5613WAT     H117081   4.029   4.424   6.575
 5613WAT     H217082   3.889   4.504   6.553
 5614WAT      O17083   5.954   0.764   8.370
 5614WAT     H117084   5.953   0.727   8.463
 5614WAT     H217085   6.037   0.733   8.323
 5615WAT      O17086   7.112   9.010   6.537
 5615WAT     H117087   7.203   8.969   6.528
 5615WAT     H217088   7.119   9.094   6.590
 5616WAT      O17089   2.031   4.438   9.612
 5616WAT     H117090   1.954   4.383   9.644
 5616WAT     H217091   2.099   4.447   9.685
 5617WAT      O17092   4.322   3.605   2.946
 5617WAT     H117093   4.356   3.589   3.038
 5617WAT     H217094   4.342   3.525   2.889
 5618WAT      O17095   6.867   7.158   9.202
 5618WAT     H117096   6.947   7.141   9.260
 5618WAT     H217097   6.891   7.226   9.133
 5619WAT      O17098   9.519   0.037   9.639
 5619WAT     H117099   9.479   0.040   9.730
 5619WAT     H217100   9.480   0.111   9.584
 5620WAT      O17101   5.507   3.427   0.938
 5620WAT     H117102   5.465   3.502   0.887
 5620WAT     H217103   5.435   3.370   0.978
 5621WAT      O17104   2.802   9.341   2.215
 5621WAT     H117105   2.892   9.323   2.177
 5621WAT     H217106   2.733   9.289   2.163
 5622WAT      O17107   2.593   8.694   8.209
 5622WAT     H117108   2.557   8.601   8.220
 5622WAT     H217109   2.517   8.759   8.212
 5623WAT      O17110   8.334   2.982   1.651
 5623WAT     H117111   8.245   3.010   1.687
 5623WAT     H217112   8.332   2.986   1.551
 5624WAT      O17113   1.270   6.213   9.433
 5624WAT     H117114   1.199   6.160   9.387
 5624WAT     H217115   1.310   6.278   9.369
 5625WAT      O17116   8.780   7.799   3.653
 5625WAT     H117117   8.795   7.704   3.681
 5625WAT     H217118   8.855   7.855   3.687
 5626WAT      O17119   1.804   3.678   1.447
 5626WAT     H117120   1.873   3.663   1.518
 5626WAT     H217121   1.825   3.622   1.367
 5627WAT      O17122   3.366   2.478   3.090
 5627WAT     H117123   3.318   2.480   3.002
 5627WAT     H217124   3.330   2.402   3.145
 5628WAT      O17125   3.726   0.712   0.684
 5628WAT     H117126   3.819   0.694   0.653
 5628WAT     H217127   3.677   0.763   0.614
 5629WAT      O17128   4.448   9.653   1.804
 5629WAT     H117129   4.384   9.598   1.750
 5629WAT     H217130   4.542   9.633   1.776
 5630WAT      O17131   9.077   2.765   6.551
 5630WAT     H117132   9.129   2.780   6.635
 5630WAT     H217133   8.999   2.827   6.549
 5631WAT      O17134   0.641   8.552   3.874
 5631WAT     H117135   0.735   8.536   3.907
 5631WAT     H217136   0.642   8.561   3.775
 5632WAT      O17137   0.238   3.258   8.888
 5632WAT     H117138   0.270   3.348   8.857
 5632WAT     H217139   0.179   3.269   8.968
 5633WAT      O17140   7.387   8.484   8.741
 5633WAT     H117141   7.321   8.416   8.773
 5633WAT     H217142   7.413   8.543   8.817
 5634WAT      O17143   2.100   5.616   7.998
 5634WAT     H117144   2.196   5.591   7.989
 5634WAT     H217145   2.078   5.689   7.934
 5635WAT      O17146   1.998   1.391   2.199
 5635WAT     H117147   1.984   1.298   2.167
 5635WAT     H217148   1.985   1.395   2.299
 5636WAT      O17149   4.116   5.727   2.397
 5636WAT     H117150   4.095   5.654   2.332
 5636WAT     H217151   4.171   5.690   2.472
 5637WAT      O17152   7.229   2.029   5.441
 5637WAT     H117153   7.276   2.112   5.411
 5637WAT     H217154   7.200   1.977   5.361
 5638WAT      O17155   6.122   2.504   7.424
 5638WAT     H117156   6.186   2.574   7.394
 5638WAT     H217157   6.071   2.470   7.345
 5639WAT      O17158   0.663   9.477   7.972
 5639WAT     H117159   0.723   9.525   8.036
 5639WAT     H217160   0.599   9.420   8.023
 5640WAT      O17161   2.597   5.563   6.325
 5640WAT     H117162   2.503   5.557   6.292
 5640WAT     H217163   2.600   5.624   6.404
 5641WAT      O17164   5.254   7.734   0.330
 5641WAT     H117165   5.177   7.672   0.317
 5641WAT     H217166   5.306   7.705   0.411
 5642WAT      O17167   0.381   5.220   4.971
 5642WAT     H117168   0.313   5.271   4.919
 5642WAT     H217169   0.457   5.195   4.910
 5643WAT      O17170   5.354   1.313   0.869
 5643WAT     H117171   5.358   1.411   0.885
 5643WAT     H217172   5.288   1.294   0.796
 5644WAT      O17173   6.552   5.522   1.777
 5644WAT     H117174   6.514   5.525   1.685
 5644WAT     H217175   6.515   5.598   1.831
 5645WAT      O17176   7.898   2.411   2.040
 5645WAT     H117177   7.917   2.327   1.989
 5645WAT     H217178   7.973   2.428   2.105
 5646WAT      O17179   5.522   6.967   6.020
 5646WAT     H117180   5.526   6.867   6.015
 5646WAT     H217181   5.566   7.006   5.939
 5647WAT      O17182   4.103   6.401   1.551
 5647WAT     H117183   4.063   6.309   1.554
 5647WAT     H217184   4.035   6.467   1.583
 5648WAT      O17185   2.120   5.493   7.280
 5648WAT     H117186   2.120   5.427   7.205
 5648WAT     H217187   2.130   5.586   7.243
 5649WAT      O17188   8.482   1.754   0.253
 5649WAT     H117189   8.546   1.787   0.322
 5649WAT     H217190   8.392   1.741   0.295
 5650WAT      O17191   4.186   7.540   8.633
 5650WAT     H117192   4.134   7.462   8.598
 5650WAT     H217193   4.259   7.507   8.693
 5651WAT      O17194   8.745   1.279   8.935
 5651WAT     H117195   8.735   1.360   8.876
 5651WAT     H217196   8.732   1.306   9.030
 5652WAT      O17197   8.646   0.030   7.008
 5652WAT     H117198   8.643   0.020   7.108
 5652WAT     H217199   8.738   0.008   6.976
 5653WAT      O17200   0.379   6.690   6.851
 5653WAT     H117201   0.342   6.598   6.842
 5653WAT     H217202   0.427   6.715   6.767
 5654WAT      O17203   7.832   3.202   9.846
 5654WAT     H117204   7.917   3.251   9.864
 5654WAT     H217205   7.838   3.110   9.886
 5655WAT      O17206   0.964   2.395   8.001
 5655WAT     H117207   1.001   2.374   8.092
 5655WAT     H217208   0.927   2.312   7.960
 5656WAT      O17209   6.872   6.873   6.430
 5656WAT     H117210   6.830   6.841   6.515
 5656WAT     H217211   6.970   6.889   6.445
 5657WAT      O17212   8.054   5.622   2.697
 5657WAT     H117213   8.084   5.573   2.779
 5657WAT     H217214   8.116   5.698   2.679
 5658WAT      O17215   1.962   1.546   7.928
 5658WAT     H117216   2.037   1.530   7.992
 5658WAT     H217217   1.965   1.476   7.856
 5659WAT      O17218   2.662   4.045   7.054
 5659WAT     H117219   2.655   4.074   7.149
 5659WAT     H217220   2.734   4.097   7.008
 5660WAT      O17221   7.607   3.488   1.255
 5660WAT     H117222   7.592   3.585   1.268
 5660WAT     H217223   7.704   3.467   1.270
 5661WAT      O17224   9.532   6.996   2.574
 5661WAT     H117225   9.617   6.949   2.550
 5661WAT     H217226   9.456   6.955   2.524
 5662WAT      O17227   0.254   0.327   5.144
 5662WAT     H117228   0.167   0.278   5.147
 5662WAT     H217229   0.244   0.409   5.087
 5663WAT      O17230   6.616   2.104   0.544
 5663WAT     H117231   6.685   2.120   0.474
 5663WAT     H217232   6.587   2.009   0.542
 5664WAT      O17233   5.960   8.916   4.855
 5664WAT     H117234   6.032   8.847   4.860
 5664WAT     H217235   5.899   8.906   4.934
 5665WAT      O17236   9.751   6.049   3.588
 5665WAT     H117237   9.811   5.969   3.589
 5665WAT     H217238   9.667   6.028   3.637
 5666WAT      O17239   6.919   5.224   0.504
 5666WAT     H117240   7.013   5.238   0.533
 5666WAT     H217241   6.893   5.297   0.441
 5667WAT      O17242   5.300   0.391   5.497
 5667WAT     H117243   5.362   0.444   5.554
 5667WAT     H217244   5.260   0.317   5.552
 5668WAT      O17245   8.483   0.689   0.600
 5668WAT     H117246   8.393   0.645   0.597
 5668WAT     H217247   8.554   0.620   0.615
 5669WAT      O17248   1.869   2.058   7.681
 5669WAT     H117249   1.869   2.157   7.690
 5669WAT     H217250   1.824   2.016   7.760
 5670WAT      O17251   4.146   8.086   8.205
 5670WAT     H117252   4.115   8.005   8.256
 5670WAT     H217253   4.211   8.058   8.135
 5671WAT      O17254   0.798   7.506   7.826
 5671WAT     H117255   0.751   7.422   7.798
 5671WAT     H217256   0.865   7.532   7.756
 5672WAT      O17257   8.314   6.036   7.709
 5672WAT     H117258   8.296   6.129   7.679
 5672WAT     H217259   8.272   6.021   7.799
 5673WAT      O17260   5.158   1.764   1.053
 5673WAT     H117261   5.244   1.803   1.019
 5673WAT     H217262   5.148   1.671   1.017
 5674WAT      O17263   6.339   6.578   2.811
 5674WAT     H117264   6.390   6.663   2.824
 5674WAT     H217265   6.319   6.538   2.901
 5675WAT      O17266   4.982   8.330   0.672
 5675WAT     H117267   4.991   8.352   0.769
 5675WAT     H217268   5.067   8.289   0.639
 5676WAT      O17269   1.316   6.234   4.910
 5676WAT     H117270   1.369   6.318   4.925
 5676WAT     H217271   1.225   6.258   4.876
 5677WAT      O17272   5.202   2.989   8.411
 5677WAT     H117273   5.301   2.975   8.402
 5677WAT     H217274   5.175   3.069   8.357
 5678WAT      O17275   8.535   6.661   3.424
 5678WAT     H117276   8.497   6.709   3.345
 5678WAT     H217277   8.625   6.699   3.446
 5679WAT      O17278   9.635   2.414   5.189
 5679WAT     H117279   9.701   2.341   5.176
 5679WAT     H217280   9.637   2.444   5.285
 5680WAT      O17281   0.121   1.774   0.004
 5680WAT     H117282   0.190   1.802   0.070
 5680WAT     H217283   0.121   1.674  -0.005
 5681WAT      O17284   9.311   6.825   0.635
 5681WAT     H117285   9.389   6.861   0.584
 5681WAT     H217286   9.238   6.800   0.572
 5682WAT      O17287   1.201   8.157   9.175
 5682WAT     H117288   1.246   8.229   9.121
 5682WAT     H217289   1.249   8.146   9.262
 5683WAT      O17290   5.553   7.618   0.597
 5683WAT     H117291   5.455   7.627   0.613
 5683WAT     H217292   5.574   7.637   0.501
 5684WAT      O17293   1.442   0.549   8.575
 5684WAT     H117294   1.541   0.539   8.587
 5684WAT     H217295   1.398   0.556   8.664
 5685WAT      O17296   1.014   8.619   8.272
 5685WAT     H117297   1.052   8.602   8.181
 5685WAT     H217298   1.052   8.552   8.337
 5686WAT      O17299   5.010   9.115   4.768
 5686WAT     H117300   4.925   9.084   4.812
 5686WAT     H217301   4.989   9.189   4.704
 5687WAT      O17302   4.807   7.689   4.345
 5687WAT     H117303   4.708   7.700   4.341
 5687WAT     H217304   4.850   7.777   4.363
 5688WAT      O17305   5.305   3.772   7.605
 5688WAT     H117306   5.282   3.835   7.679
 5688WAT     H217307   5.393   3.797   7.566
 5689WAT      O17308   2.477   1.529   5.026
 5689WAT     H117309   2.537   1.448   5.028
 5689WAT     H217310   2.533   1.612   5.027
 5690WAT      O17311   9.372   9.288   9.181
 5690WAT     H117312   9.400   9.198   9.213
 5690WAT     H217313   9.443   9.355   9.205
 5691WAT      O17314   3.336   6.128   1.267
 5691WAT     H117315   3.395   6.087   1.198
 5691WAT     H217316   3.241   6.101   1.251
 5692WAT      O17317   8.792   2.696   1.512
 5692WAT     H117318   8.839   2.653   1.435
 5692WAT     H217319   8.712   2.641   1.537
 5693WAT      O17320   6.902   0.164   4.382
 5693WAT     H117321   6.981   0.108   4.405
 5693WAT     H217322   6.928   0.261   4.385
 5694WAT      O17323   8.122   0.688   4.671
 5694WAT     H117324   8.027   0.661   4.682
 5694WAT     H217325   8.177   0.608   4.645
 5695WAT      O17326   7.958   5.787   1.195
 5695WAT     H117327   7.975   5.747   1.285
 5695WAT     H217328   7.988   5.723   1.124
 5696WAT      O17329   6.816   5.989   6.695
 5696WAT     H117330   6.894   6.044   6.724
 5696WAT     H217331   6.828   5.895   6.726
 5697WAT      O17332   6.776   4.285   1.498
 5697WAT     H117333   6.760   4.310   1.403
 5697WAT     H217334   6.695   4.239   1.535
 5698WAT      O17335   5.459   9.420   8.345
 5698WAT     H117336   5.532   9.387   8.404
 5698WAT     H217337   5.461   9.520   8.344
 5699WAT      O17338   1.669   5.108   5.495
 5699WAT     H117339   1.679   5.161   5.411
 5699WAT     H217340   1.657   5.170   5.572
 5700WAT      O17341   6.321   3.803   3.373
 5700WAT     H117342   6.362   3.886   3.337
 5700WAT     H217343   6.244   3.826   3.432
 5701WAT      O17344   6.505   7.579   4.744
 5701WAT     H117345   6.543   7.637   4.816
 5701WAT     H217346   6.408   7.599   4.731
 5702WAT      O17347   4.643   4.090   1.636
 5702WAT     H117348   4.606   4.028   1.567
 5702WAT     H217349   4.735   4.061   1.660
 5703WAT      O17350   5.790   0.977   1.936
 5703WAT     H117351   5.811   0.918   2.015
 5703WAT     H217352   5.691   0.989   1.929
 5704WAT      O17353   1.044   4.060   6.378
 5704WAT     H117354   1.087   4.145   6.348
 5704WAT     H217355   0.954   4.051   6.334
 5705WAT      O17356   7.849   2.913   1.172
 5705WAT     H117357   7.859   2.963   1.258
 5705WAT     H217358   7.753   2.888   1.159
 5706WAT      O17359   9.755   2.360   8.221
 5706WAT     H117360   9.832   2.422   8.205
 5706WAT     H217361   9.695   2.360   8.141
 5707WAT      O17362   4.445   4.647   5.022
 5707WAT     H117363   4.454   4.553   4.989
 5707WAT     H217364   4.436   4.646   5.122
 5708WAT      O17365   9.357   2.202   8.094
 5708WAT     H117366   9.262   2.178   8.072
 5708WAT     H217367   9.412   2.119   8.100
 5709WAT      O17368   5.057   1.512   3.895
 5709WAT     H117369   5.109   1.445   3.947
 5709WAT     H217370   4.962   1.481   3.886
 5710WAT      O17371   2.012   6.699   8.198
 5710WAT     H117372   1.984   6.646   8.278
 5710WAT     H217373   1.960   6.784   8.195
 5711WAT      O17374   3.944   8.406   4.796
 5711WAT     H117375   3.970   8.468   4.871
 5711WAT     H217376   3.869   8.348   4.827
 5712WAT      O17377   4.210   1.900   9.662
 5712WAT     H117378   4.135   1.925   9.601
 5712WAT     H217379   4.228   1.802   9.653
 5713WAT      O17380   0.860   5.712   2.508
 5713WAT     H117381   0.816   5.754   2.428
 5713WAT     H217382   0.862   5.613   2.497
 5714WAT      O17383   9.459   7.815   1.541
 5714WAT     H117384   9.426   7.834   1.633
 5714WAT     H217385   9.506   7.726   1.540
 5715WAT      O17386   9.285   0.295   0.255
 5715WAT     H117387   9.311   0.296   0.351
 5715WAT     H217388   9.239   0.209   0.233
 5716WAT      O17389   8.009   8.474   5.392
 5716WAT     H117390   7.910   8.470   5.398
 5716WAT     H217391   8.048   8.385   5.414
 5717WAT      O17392   6.280   5.033   1.667
 5717WAT     H117393   6.330   4.950   1.692
 5717WAT     H217394   6.300   5.105   1.732
 5718WAT      O17395   2.167   2.246   1.365
 5718WAT     H117396   2.236   2.176   1.383
 5718WAT     H217397   2.104   2.253   1.443
 5719WAT      O17398   2.087   4.578   3.091
 5719WAT     H117399   2.162   4.617   3.144
 5719WAT     H217400   2.119   4.560   2.998
 5720WAT      O17401   7.304   3.130   0.983
 5720WAT     H117402   7.212   3.093   0.991
 5720WAT     H217403   7.302   3.229   1.001
 5721WAT      O17404   7.716   9.144   8.844
 5721WAT     H117405   7.734   9.062   8.791
 5721WAT     H217406   7.718   9.224   8.783
 5722WAT      O17407   7.932   3.272   6.936
 5722WAT     H117408   7.969   3.257   6.844
 5722WAT     H217409   7.956   3.196   6.995
 5723WAT      O17410   9.084   7.304   4.738
 5723WAT     H117411   9.008   7.249   4.771
 5723WAT     H217412   9.140   7.334   4.815
 5724WAT      O17413   7.169   7.073   0.243
 5724WAT     H117414   7.229   7.140   0.286
 5724WAT     H217415   7.105   7.037   0.310
 5725WAT      O17416   2.847   6.038   9.295
 5725WAT     H117417   2.759   6.014   9.254
 5725WAT     H217418   2.832   6.098   9.373
 5726WAT      O17419   6.341   1.028   6.401
 5726WAT     H117420   6.410   1.095   6.425
 5726WAT     H217421   6.319   1.036   6.303
 5727WAT      O17422   6.851   8.493   8.051
 5727WAT     H117423   6.942   8.531   8.035
 5727WAT     H217424   6.842   8.407   8.001
 5728WAT      O17425   5.216   5.137   3.533
 5728WAT     H117426   5.204   5.123   3.632
 5728WAT     H217427   5.136   5.184   3.496
 5729WAT      O17428   9.327   8.255   0.743
 5729WAT     H117429   9.351   8.311   0.664
 5729WAT     H217430   9.327   8.159   0.717
 5730WAT      O17431   5.816   9.567   1.366
 5730WAT     H117432   5.899   9.584   1.313
 5730WAT     H217433   5.789   9.650   1.414
 5731WAT      O17434   3.900   9.239   1.478
 5731WAT     H117435   3.868   9.291   1.557
 5731WAT     H217436   3.888   9.292   1.395
 5732WAT      O17437   5.057   2.461   0.336
 5732WAT     H117438   5.116   2.428   0.263
 5732WAT     H217439   5.044   2.388   0.404
 5733WAT      O17440   0.723   2.604   3.217
 5733WAT     H117441   0.782   2.633   3.142
 5733WAT     H217442   0.648   2.670   3.227
 5734WAT      O17443   5.041   2.879   8.106
 5734WAT     H117444   5.013   2.969   8.140
 5734WAT     H217445   5.141   2.873   8.105
 5735WAT      O17446   7.000   1.868   9.338
 5735WAT     H117447   6.995   1.968   9.345
 5735WAT     H217448   6.950   1.838   9.256
 5736WAT      O17449   8.642   7.760   9.194
 5736WAT     H117450   8.566   7.802   9.145
 5736WAT     H217451   8.664   7.815   9.274
 5737WAT      O17452   3.292   4.609   2.083
 5737WAT     H117453   3.322   4.683   2.143
 5737WAT     H217454   3.281   4.525   2.135
 5738WAT      O17455   6.136   6.415   2.632
 5738WAT     H117456   6.110   6.454   2.543
 5738WAT     H217457   6.204   6.474   2.676
 5739WAT      O17458   1.864   1.955   2.356
 5739WAT     H117459   1.906   2.002   2.278
 5739WAT     H217460   1.876   1.856   2.345
 5740WAT      O17461   3.788   7.170   0.206
 5740WAT     H117462   3.770   7.120   0.291
 5740WAT     H217463   3.875   7.219   0.214
 5741WAT      O17464   3.406   6.362   7.348
 5741WAT     H117465   3.365   6.401   7.265
 5741WAT     H217466   3.367   6.406   7.428
 5742WAT      O17467   3.285   0.581   0.386
 5742WAT     H117468   3.197   0.620   0.412
 5742WAT     H217469   3.324   0.633   0.310
 5743WAT      O17470   9.767   9.697   0.474
 5743WAT     H117471   9.865   9.701   0.492
 5743WAT     H217472   9.723   9.779   0.511
 5744WAT      O17473   3.025   1.590   5.500
 5744WAT     H117474   2.992   1.635   5.583
 5744WAT     H217475   3.110   1.632   5.470
 5745WAT      O17476   8.259   3.360   6.265
 5745WAT     H117477   8.188   3.414   6.310
 5745WAT     H217478   8.283   3.403   6.177
 5746WAT      O17479   1.428   4.648   8.238
 5746WAT     H117480   1.475   4.653   8.150
 5746WAT     H217481   1.397   4.554   8.253
 5747WAT      O17482   4.147   6.688   4.362
 5747WAT     H117483   4.136   6.736   4.275
 5747WAT     H217484   4.160   6.591   4.345
 5748WAT      O17485   0.936   0.853   1.610
 5748WAT     H117486   0.934   0.943   1.653
 5748WAT     H217487   0.879   0.790   1.664
 5749WAT      O17488   0.810   7.122   3.561
 5749WAT     H117489   0.742   7.062   3.519
 5749WAT     H217490   0.899   7.078   3.560
 5750WAT      O17491   9.248   8.363   8.535
 5750WAT     H117492   9.176   8.431   8.545
 5750WAT     H217493   9.267   8.348   8.437
 5751WAT      O17494   0.250   1.593   2.152
 5751WAT     H117495   0.287   1.546   2.232
 5751WAT     H217496   0.201   1.527   2.095
 5752WAT      O17497   8.195   5.443   3.749
 5752WAT     H117498   8.268   5.433   3.817
 5752WAT     H217499   8.180   5.540   3.731
 5753WAT      O17500   6.663   8.883   1.407
 5753WAT     H117501   6.655   8.895   1.308
 5753WAT     H217502   6.578   8.846   1.443
 5754WAT      O17503   3.071   1.686   2.453
 5754WAT     H117504   3.044   1.712   2.546
 5754WAT     H217505   3.123   1.600   2.456
 5755WAT      O17506   4.235   9.193   5.123
 5755WAT     H117507   4.299   9.228   5.054
 5755WAT     H217508   4.142   9.199   5.088
 5756WAT      O17509   2.403   3.163   3.322
 5756WAT     H117510   2.325   3.204   3.275
 5756WAT     H217511   2.423   3.073   3.282
 5757WAT      O17512   3.008   8.228   1.926
 5757WAT     H117513   2.957   8.303   1.968
 5757WAT     H217514   2.975   8.141   1.963
 5758WAT      O17515   8.252   7.382   0.700
 5758WAT     H117516   8.267   7.463   0.756
 5758WAT     H217517   8.323   7.314   0.720
 5759WAT      O17518   6.989   3.012   3.240
 5759WAT     H117519   6.918   3.009   3.169
 5759WAT     H217520   7.011   2.919   3.269
 5760WAT      O17521   0.913   2.325   4.626
 5760WAT     H117522   0.855   2.256   4.582
 5760WAT     H217523   0.958   2.379   4.555
 5761WAT      O17524   1.046   8.140   3.892
 5761WAT     H117525   0.971   8.086   3.931
 5761WAT     H217526   1.013   8.188   3.810
 5762WAT      O17527   6.660   0.563   8.221
 5762WAT     H117528   6.589   0.506   8.179
 5762WAT     H217529   6.625   0.599   8.308
 5763WAT      O17530   4.092   0.704   0.877
 5763WAT     H117531   4.036   0.642   0.932
 5763WAT     H217532   4.074   0.798   0.905
 5764WAT      O17533   7.407   0.820   7.701
 5764WAT     H117534   7.319   0.842   7.744
 5764WAT     H217535   7.393   0.748   7.632
 5765WAT      O17536   2.063   3.293   5.391
 5765WAT     H117537   2.022   3.330   5.308
 5765WAT     H217538   2.040   3.196   5.399
 5766WAT      O17539   6.229   4.880   7.124
 5766WAT     H117540   6.163   4.836   7.063
 5766WAT     H217541   6.322   4.851   7.100
 5767WAT      O17542   0.188   5.252   5.353
 5767WAT     H117543   0.106   5.238   5.408
 5767WAT     H217544   0.195   5.349   5.329
 5768WAT      O17545   3.158   2.439   5.874
 5768WAT     H117546   3.198   2.364   5.822
 5768WAT     H217547   3.068   2.462   5.836
 5769WAT      O17548   8.202   2.323   3.011
 5769WAT     H117549   8.280   2.386   3.005
 5769WAT     H217550   8.189   2.277   2.923
 5770WAT      O17551   2.800   0.542   8.734
 5770WAT     H117552   2.753   0.470   8.684
 5770WAT     H217553   2.814   0.513   8.829
 5771WAT      O17554   1.482   4.794   8.475
 5771WAT     H117555   1.463   4.749   8.388
 5771WAT     H217556   1.513   4.727   8.541
 5772WAT      O17557   0.364   5.645   1.379
 5772WAT     H117558   0.391   5.566   1.323
 5772WAT     H217559   0.307   5.707   1.325
 5773WAT      O17560   6.781   0.195   9.191
 5773WAT     H117561   6.786   0.153   9.281
 5773WAT     H217562   6.760   0.125   9.122
 5774WAT      O17563   4.018   5.625   8.866
 5774WAT     H117564   3.960   5.665   8.936
 5774WAT     H217565   4.101   5.680   8.855
 5775WAT      O17566   2.123   1.412   8.975
 5775WAT     H117567   2.116   1.380   9.070
 5775WAT     H217568   2.079   1.346   8.914
 5776WAT      O17569   1.925   8.507   7.678
 5776WAT     H117570   1.909   8.600   7.645
 5776WAT     H217571   1.909   8.504   7.777
 5777WAT      O17572   6.472   6.655   2.186
 5777WAT     H117573   6.426   6.669   2.098
 5777WAT     H217574   6.570   6.640   2.170
 5778WAT      O17575   4.668   3.614   3.145
 5778WAT     H117576   4.745   3.646   3.201
 5778WAT     H217577   4.658   3.674   3.066
 5779WAT      O17578   4.643   9.389   4.309
 5779WAT     H117579   4.597   9.316   4.260
 5779WAT     H217580   4.576   9.446   4.356
 5780WAT      O17581   8.223   9.290   9.857
 5780WAT     H117582   8.213   9.323   9.951
 5780WAT     H217583   8.319   9.270   9.839
 5781WAT      O17584   4.009   2.062   3.945
 5781WAT     H117585   3.923   2.027   3.983
 5781WAT     H217586   3.991   2.110   3.859
 5782WAT      O17587   4.649   9.763   8.197
 5782WAT     H117588   4.601   9.699   8.258
 5782WAT     H217589   4.599   9.849   8.194
 5783WAT      O17590   1.249   1.393   4.207
 5783WAT     H117591   1.328   1.418   4.151
 5783WAT     H217592   1.271   1.312   4.262
 5784WAT      O17593   0.431   9.591   9.245
 5784WAT     H117594   0.453   9.684   9.274
 5784WAT     H217595   0.347   9.592   9.189
 5785WAT      O17596   8.712   3.219   2.989
 5785WAT     H117597   8.724   3.317   2.979
 5785WAT     H217598   8.707   3.176   2.898
 5786WAT      O17599   9.328   5.674   8.259
 5786WAT     H117600   9.379   5.642   8.179
 5786WAT     H217601   9.361   5.627   8.340
 5787WAT      O17602   9.629   0.110   1.637
 5787WAT     H117603   9.587   0.022   1.617
 5787WAT     H217604   9.700   0.130   1.570
 5788WAT      O17605   3.070   9.618   8.652
 5788WAT     H117606   3.006   9.693   8.670
 5788WAT     H217607   3.100   9.621   8.557
 5789WAT      O17608   0.654   2.139   3.986
 5789WAT     H117609   0.742   2.093   3.997
 5789WAT     H217610   0.664   2.235   4.012
 5790WAT      O17611   1.741   5.683   6.839
 5790WAT     H117612   1.778   5.727   6.757
 5790WAT     H217613   1.727   5.586   6.821
 5791WAT      O17614   7.602   9.488   1.963
 5791WAT     H117615   7.634   9.431   2.039
 5791WAT     H217616   7.682   9.523   1.912
 5792WAT      O17617   7.889   2.180   6.462
 5792WAT     H117618   7.795   2.160   6.488
 5792WAT     H217619   7.952   2.144   6.532
 5793WAT      O17620   9.211   7.054   7.099
 5793WAT     H117621   9.248   7.061   7.192
 5793WAT     H217622   9.285   7.068   7.034
 5794WAT      O17623   1.002   1.579   0.151
 5794WAT     H117624   1.029   1.592   0.056
 5794WAT     H217625   1.007   1.482   0.174
 5795WAT      O17626   3.798   5.549   3.145
 5795WAT     H117627   3.723   5.561   3.079
 5795WAT     H217628   3.865   5.485   3.108
 5796WAT      O17629   4.851   7.608   0.833
 5796WAT     H117630   4.858   7.625   0.931
 5796WAT     H217631   4.783   7.537   0.816
 5797WAT      O17632   8.523   7.020   0.296
 5797WAT     H117633   8.604   7.034   0.239
 5797WAT     H217634   8.522   6.926   0.329
 5798WAT      O17635   0.283   8.155   1.428
 5798WAT     H117636   0.376   8.158   1.391
 5798WAT     H217637   0.255   8.247   1.456
 5799WAT      O17638   7.665   6.350   5.326
 5799WAT     H117639   7.683   6.422   5.258
 5799WAT     H217640   7.594   6.381   5.389
 5800WAT      O17641   6.809   2.995   6.810
 5800WAT     H117642   6.839   3.019   6.902
 5800WAT     H217643   6.856   3.052   6.743
 5801WAT      O17644   7.709   9.494   6.037
 5801WAT     H117645   7.751   9.420   6.090
 5801WAT     H217646   7.768   9.575   6.040
 5802WAT      O17647   9.444   7.860   0.929
 5802WAT     H117648   9.445   7.777   0.986
 5802WAT     H217649   9.533   7.905   0.934
 5803WAT      O17650   1.373   4.895   1.932
 5803WAT     H117651   1.397   4.798   1.934
 5803WAT     H217652   1.448   4.946   1.891
 5804WAT      O17653   7.157   0.994   3.929
 5804WAT     H117654   7.129   0.942   4.010
 5804WAT     H217655   7.208   1.075   3.957
 5805WAT      O17656   4.537   8.124   3.008
 5805WAT     H117657   4.541   8.217   2.971
 5805WAT     H217658   4.488   8.065   2.943
 5806WAT      O17659   3.902   5.068   0.789
 5806WAT     H117660   3.841   4.999   0.828
 5806WAT     H217661   3.995   5.054   0.824
 5807WAT      O17662   4.027   5.778   2.996
 5807WAT     H117663   4.035   5.679   2.984
 5807WAT     H217664   3.985   5.818   2.914
 5808WAT      O17665   6.874   6.228   4.331
 5808WAT     H117666   6.870   6.202   4.427
 5808WAT     H217667   6.898   6.325   4.324
 5809WAT      O17668   7.832   1.909   7.987
 5809WAT     H117669   7.781   1.957   8.059
 5809WAT     H217670   7.807   1.812   7.987
 5810WAT      O17671   2.888   8.925   3.715
 5810WAT     H117672   2.972   8.954   3.670
 5810WAT     H217673   2.822   8.893   3.647
 5811WAT      O17674   5.347   8.364   8.248
 5811WAT     H117675   5.297   8.353   8.162
 5811WAT     H217676   5.303   8.311   8.320
 5812WAT      O17677   9.516   4.627   7.457
 5812WAT     H117678   9.548   4.592   7.369
 5812WAT     H217679   9.423   4.595   7.474
 5813WAT      O17680   5.355   3.300   6.583
 5813WAT     H117681   5.306   3.218   6.611
 5813WAT     H217682   5.306   3.344   6.507
 5814WAT      O17683   4.477   0.139   7.354
 5814WAT     H117684   4.483   0.212   7.422
 5814WAT     H217685   4.567   0.122   7.314
 5815WAT      O17686   5.266   7.222   0.554
 5815WAT     H117687   5.229   7.150   0.613
 5815WAT     H217688   5.196   7.290   0.534
 5816WAT      O17689   2.009   2.614   7.102
 5816WAT     H117690   1.988   2.712   7.099
 5816WAT     H217691   2.106   2.601   7.080
 5817WAT      O17692   9.639   4.976   8.415
 5817WAT     H117693   9.589   4.900   8.457
 5817WAT     H217694   9.639   4.965   8.315
 5818WAT      O17695   9.707   3.995   3.411
 5818WAT     H117696   9.704   3.912   3.356
 5818WAT     H217697   9.697   4.075   3.351
 5819WAT      O17698   2.724   7.009   3.937
 5819WAT     H117699   2.732   6.923   3.887
 5819WAT     H217700   2.694   6.991   4.030
 5820WAT      O17701   0.674   0.424   4.091
 5820WAT     H117702   0.626   0.424   4.179
 5820WAT     H217703   0.660   0.511   4.045
 5821WAT      O17704   3.705   4.894   2.479
 5821WAT     H117705   3.738   4.858   2.566
 5821WAT     H217706   3.782   4.904   2.416
 5822WAT      O17707   1.233   9.127   4.114
 5822WAT     H117708   1.185   9.043   4.090
 5822WAT     H217709   1.323   9.105   4.151
 5823WAT      O17710   2.059   0.875   1.756
 5823WAT     H117711   2.020   0.883   1.665
 5823WAT     H217712   2.134   0.810   1.755
 5824WAT      O17713   1.393   2.942   2.371
 5824WAT     H117714   1.437   2.958   2.460
 5824WAT     H217715   1.377   2.845   2.359
 5825WAT      O17716   9.102   5.849   6.277
 5825WAT     H117717   9.155   5.871   6.196
 5825WAT     H217718   9.085   5.932   6.330
 5826WAT      O17719   9.441   6.855   0.300
 5826WAT     H117720   9.397   6.814   0.220
 5826WAT     H217721   9.477   6.945   0.276
 5827WAT      O17722   7.312   1.601   5.724
 5827WAT     H117723   7.366   1.669   5.673
 5827WAT     H217724   7.233   1.646   5.766
 5828WAT      O17725   9.869   1.502   2.609
 5828WAT     H117726   9.909   1.465   2.525
 5828WAT     H217727   9.940   1.514   2.678
 5829WAT      O17728   6.863   6.460   8.362
 5829WAT     H117729   6.945   6.409   8.391
 5829WAT     H217730   6.825   6.417   8.280
 5830WAT      O17731   0.224   4.145   2.171
 5830WAT     H117732   0.175   4.090   2.104
 5830WAT     H217733   0.203   4.242   2.156
 5831WAT      O17734   1.307   9.026   5.921
 5831WAT     H117735   1.265   9.007   6.010
 5831WAT     H217736   1.340   8.941   5.880
 5832WAT      O17737   0.581   0.650   3.968
 5832WAT     H117738   0.625   0.732   3.930
 5832WAT     H217739   0.552   0.668   4.062
 5833WAT      O17740   0.516   2.912   7.180
 5833WAT     H117741   0.547   2.831   7.231
 5833WAT     H217742   0.585   2.984   7.186
 5834WAT      O17743   8.282   1.077   8.448
 5834WAT     H117744   8.334   1.017   8.509
 5834WAT     H217745   8.335   1.095   8.365
 5835WAT      O17746   8.211   3.884   2.798
 5835WAT     H117747   8.179   3.796   2.832
 5835WAT     H217748   8.170   3.902   2.708
 5836WAT      O17749   1.908   3.017   8.376
 5836WAT     H117750   1.919   2.942   8.441
 5836WAT     H217751   1.849   2.987   8.301
 5837WAT      O17752   7.975   3.065   3.707
 5837WAT     H117753   8.059   3.038   3.660
 5837WAT     H217754   7.997   3.093   3.801
 5838WAT      O17755   3.413   9.046   0.345
 5838WAT     H117756   3.466   9.022   0.264
 5838WAT     H217757   3.316   9.039   0.325
 5839WAT      O17758   5.634   3.810   4.332
 5839WAT     H117759   5.536   3.812   4.313
 5839WAT     H217760   5.651   3.751   4.412
 5840WAT      O17761   3.146   3.900   5.661
 5840WAT     H117762   3.143   3.924   5.564
 5840WAT     H217763   3.241   3.889   5.690
 5841WAT      O17764   8.664   1.948   0.741
 5841WAT     H117765   8.705   1.864   0.775
 5841WAT     H217766   8.650   2.011   0.818
 5842WAT      O17767   7.402   5.648   7.359
 5842WAT     H117768   7.479   5.586   7.344
 5842WAT     H217769   7.437   5.738   7.386
 5843WAT      O17770   9.224   3.661   6.833
 5843WAT     H117771   9.255   3.749   6.868
 5843WAT     H217772   9.188   3.606   6.907
 5844WAT      O17773   4.988   9.080   0.427
 5844WAT     H117774   4.962   8.983   0.419
 5844WAT     H217775   4.954   9.130   0.347
 5845WAT      O17776   0.974   2.730   4.591
 5845WAT     H117777   0.946   2.643   4.550
 5845WAT     H217778   0.909   2.755   4.663
 5846WAT      O17779   8.728   8.911   1.912
 5846WAT     H117780   8.741   8.898   1.814
 5846WAT     H217781   8.719   9.008   1.932
 5847WAT      O17782   1.125   5.519   1.612
 5847WAT     H117783   1.092   5.611   1.632
 5847WAT     H217784   1.074   5.481   1.535
 5848WAT      O17785   3.899   9.804   4.280
 5848WAT     H117786   3.896   9.901   4.307
 5848WAT     H217787   3.922   9.798   4.183
 5849WAT      O17788   5.069   7.335   7.228
 5849WAT     H117789   5.020   7.318   7.142
 5849WAT     H217790   5.165   7.354   7.207
 5850WAT      O17791   8.351   9.634   3.501
 5850WAT     H117792   8.375   9.726   3.533
 5850WAT     H217793   8.258   9.634   3.465
 5851WAT      O17794   2.809   6.433   0.578
 5851WAT     H117795   2.893   6.407   0.625
 5851WAT     H217796   2.801   6.382   0.492
 5852WAT      O17797   1.840   8.791   5.083
 5852WAT     H117798   1.742   8.782   5.068
 5852WAT     H217799   1.888   8.784   4.995
 5853WAT      O17800   0.643   4.341   2.038
 5853WAT     H117801   0.652   4.342   1.938
 5853WAT     H217802   0.588   4.419   2.067
 5854WAT      O17803   5.742   5.856   7.754
 5854WAT     H117804   5.713   5.760   7.754
 5854WAT     H217805   5.683   5.908   7.691
 5855WAT      O17806   3.485   8.313   5.078
 5855WAT     H117807   3.550   8.275   5.143
 5855WAT     H217808   3.422   8.242   5.048
 5856WAT      O17809   1.680   0.866   2.318
 5856WAT     H117810   1.631   0.855   2.231
 5856WAT     H217811   1.724   0.956   2.320
 5857WAT      O17812   8.552   5.607   7.631
 5857WAT     H117813   8.543   5.705   7.648
 5857WAT     H217814   8.587   5.592   7.539
 5858WAT      O17815   3.290   7.103   2.687
 5858WAT     H117816   3.260   7.084   2.594
 5858WAT     H217817   3.384   7.069   2.700
 5859WAT      O17818   6.017   3.730   6.830
 5859WAT     H117819   5.955   3.794   6.785
 5859WAT     H217820   6.069   3.779   6.900
 5860WAT      O17821   8.288   7.110   0.469
 5860WAT     H117822   8.277   7.205   0.500
 5860WAT     H217823   8.357   7.107   0.396
 5861WAT      O17824   1.114   3.914   6.610
 5861WAT     H117825   1.059   3.845   6.564
 5861WAT     H217826   1.100   4.003   6.565
 5862WAT      O17827   6.377   1.509   2.247
 5862WAT     H117828   6.407   1.413   2.250
 5862WAT     H217829   6.434   1.560   2.183
 5863WAT      O17830   1.221   6.626   0.760
 5863WAT     H117831   1.297   6.673   0.715
 5863WAT     H217832   1.142   6.625   0.698
 5864WAT      O17833   2.104   0.745   2.072
 5864WAT     H117834   2.051   0.744   2.157
 5864WAT     H217835   2.045   0.720   1.995
 5865WAT      O17836   0.492   4.951   8.254
 5865WAT     H117837   0.497   4.906   8.165
 5865WAT     H217838   0.409   4.921   8.302
 5866WAT      O17839   7.975   9.497   3.030
 5866WAT     H117840   8.029   9.452   3.101
 5866WAT     H217841   7.951   9.430   2.959
 5867WAT      O17842   9.835   0.803   2.055
 5867WAT     H117843   9.843   0.795   1.955
 5867WAT     H217844   9.906   0.863   2.089
 5868WAT      O17845   4.354   5.728   9.082
 5868WAT     H117846   4.293   5.778   9.021
 5868WAT     H217847   4.426   5.789   9.115
 5869WAT      O17848   3.579   8.071   5.434
 5869WAT     H117849   3.584   8.170   5.440
 5869WAT     H217850   3.507   8.037   5.494
 5870WAT      O17851   4.598   1.103   1.937
 5870WAT     H117852   4.504   1.078   1.960
 5870WAT     H217853   4.659   1.072   2.010
 5871WAT      O17854   2.037   5.618   5.784
 5871WAT     H117855   1.961   5.594   5.843
 5871WAT     H217856   2.097   5.538   5.774
 5872WAT      O17857   3.232   8.504   5.682
 5872WAT     H117858   3.232   8.551   5.593
 5872WAT     H217859   3.165   8.430   5.680
 5873WAT      O17860   7.525   3.787   2.014
 5873WAT     H117861   7.486   3.740   2.093
 5873WAT     H217862   7.624   3.769   2.010
 5874WAT      O17863   6.955   7.724   8.523
 5874WAT     H117864   6.995   7.644   8.479
 5874WAT     H217865   6.959   7.802   8.460
 5875WAT      O17866   0.321   7.812   1.702
 5875WAT     H117867   0.380   7.890   1.682
 5875WAT     H217868   0.227   7.844   1.714
 5876WAT      O17869   4.463   0.807   5.047
 5876WAT     H117870   4.541   0.775   5.100
 5876WAT     H217871   4.383   0.749   5.067
 5877WAT      O17872   0.848   4.447   4.135
 5877WAT     H117873   0.780   4.383   4.170
 5877WAT     H217874   0.921   4.458   4.202
 5878WAT      O17875   6.072   9.214   7.605
 5878WAT     H117876   5.992   9.246   7.555
 5878WAT     H217877   6.076   9.259   7.694
 5879WAT      O17878   2.598   6.323   5.376
 5879WAT     H117879   2.572   6.376   5.457
 5879WAT     H217880   2.582   6.378   5.294
 5880WAT      O17881   4.685   2.879   6.169
 5880WAT     H117882   4.783   2.869   6.188
 5880WAT     H217883   4.669   2.966   6.122
 5881WAT      O17884   9.299   7.713   4.610
 5881WAT     H117885   9.334   7.784   4.670
 5881WAT     H217886   9.367   7.641   4.600
 5882WAT      O17887   8.645   0.813   6.467
 5882WAT     H117888   8.741   0.819   6.496
 5882WAT     H217889   8.610   0.721   6.485
 5883WAT      O17890   0.525   8.222   6.913
 5883WAT     H117891   0.499   8.134   6.953
 5883WAT     H217892   0.622   8.220   6.887
 5884WAT      O17893   7.023   7.374   6.393
 5884WAT     H117894   7.118   7.405   6.406
 5884WAT     H217895   6.965   7.453   6.373
 5885WAT      O17896   2.672   9.736   5.040
 5885WAT     H117897   2.595   9.732   5.105
 5885WAT     H217898   2.644   9.694   4.954
 5886WAT      O17899   9.066   0.559   2.026
 5886WAT     H117900   9.143   0.582   1.966
 5886WAT     H217901   8.999   0.634   2.023
 5887WAT      O17902   2.677   4.694   4.204
 5887WAT     H117903   2.703   4.693   4.301
 5887WAT     H217904   2.578   4.706   4.197
 5888WAT      O17905   1.657   0.706   6.935
 5888WAT     H117906   1.626   0.705   7.030
 5888WAT     H217907   1.748   0.747   6.930
 5889WAT      O17908   8.127   6.272   6.539
 5889WAT     H117909   8.040   6.288   6.586
 5889WAT     H217910   8.163   6.359   6.506
 5890WAT      O17911   3.552   1.192   0.360
 5890WAT     H117912   3.629   1.231   0.309
 5890WAT     H217913   3.475   1.256   0.358
 5891WAT      O17914   4.688   0.702   5.713
 5891WAT     H117915   4.679   0.791   5.758
 5891WAT     H217916   4.766   0.653   5.750
 5892WAT      O17917   2.919   0.775   9.180
 5892WAT     H117918   2.881   0.824   9.102
 5892WAT     H217919   2.947   0.841   9.250
 5893WAT      O17920   2.941   2.123   7.972
 5893WAT     H117921   3.017   2.186   7.956
 5893WAT     H217922   2.958   2.037   7.923
 5894WAT      O17923   7.691   0.973   3.793
 5894WAT     H117924   7.711   1.030   3.872
 5894WAT     H217925   7.592   0.960   3.786
 5895WAT      O17926   1.608   7.616   2.812
 5895WAT     H117927   1.607   7.712   2.786
 5895WAT     H217928   1.571   7.561   2.738
 5896WAT      O17929   0.057   6.667   3.629
 5896WAT     H117930   0.069   6.736   3.557
 5896WAT     H217931   0.082   6.577   3.593
 5897WAT      O17932   5.956   7.280   5.514
 5897WAT     H117933   5.918   7.360   5.467
 5897WAT     H217934   6.042   7.306   5.559
 5898WAT      O17935   0.169   9.792   3.124
 5898WAT     H117936   0.251   9.801   3.180
 5898WAT     H217937   0.189   9.733   3.046
 5899WAT      O17938   1.118   7.366   1.958
 5899WAT     H117939   1.150   7.309   1.883
 5899WAT     H217940   1.020   7.352   1.971
 5900WAT      O17941   3.378   8.734   6.594
 5900WAT     H117942   3.378   8.784   6.681
 5900WAT     H217943   3.284   8.710   6.570
 5901WAT      O17944   0.279   4.121   2.434
 5901WAT     H117945   0.244   4.028   2.443
 5901WAT     H217946   0.255   4.157   2.344
 5902WAT      O17947   3.641   9.236   2.185
 5902WAT     H117948   3.621   9.187   2.100
 5902WAT     H217949   3.723   9.293   2.171
 5903WAT      O17950   3.455   1.458   3.040
 5903WAT     H117951   3.377   1.403   3.011
 5903WAT     H217952   3.439   1.494   3.132
 5904WAT      O17953   7.171   4.535   3.344
 5904WAT     H117954   7.084   4.503   3.308
 5904WAT     H217955   7.236   4.458   3.346
 5905WAT      O17956   1.617   1.045   7.824
 5905WAT     H117957   1.665   1.009   7.745
 5905WAT     H217958   1.683   1.089   7.886
 5906WAT      O17959   8.698   5.965   4.187
 5906WAT     H117960   8.773   5.899   4.182
 5906WAT     H217961   8.733   6.053   4.219
 5907WAT      O17962   7.550   0.835   2.890
 5907WAT     H117963   7.620   0.826   2.818
 5907WAT     H217964   7.579   0.906   2.955
 5908WAT      O17965   1.137   9.728   2.575
 5908WAT     H117966   1.125   9.664   2.651
 5908WAT     H217967   1.071   9.707   2.502
 5909WAT      O17968   6.668   6.059   5.395
 5909WAT     H117969   6.584   6.102   5.361
 5909WAT     H217970   6.747   6.112   5.366
 5910WAT      O17971   2.494   0.856   8.883
 5910WAT     H117972   2.546   0.830   8.964
 5910WAT     H217973   2.557   0.871   8.806
 5911WAT      O17974   2.851   1.062   2.363
 5911WAT     H117975   2.863   0.963   2.355
 5911WAT     H217976   2.762   1.082   2.403
 5912WAT      O17977   8.536   5.866   7.736
 5912WAT     H117978   8.464   5.934   7.723
 5912WAT     H217979   8.520   5.816   7.822
 5913WAT      O17980   2.091   3.616   2.382
 5913WAT     H117981   2.081   3.634   2.284
 5913WAT     H217982   2.074   3.701   2.433
 5914WAT      O17983   8.584   5.867   1.589
 5914WAT     H117984   8.576   5.820   1.501
 5914WAT     H217985   8.599   5.965   1.573
 5915WAT      O17986   8.347   7.266   3.365
 5915WAT     H117987   8.298   7.244   3.449
 5915WAT     H217988   8.312   7.352   3.328
 5916WAT      O17989   1.190   4.004   2.484
 5916WAT     H117990   1.279   4.046   2.467
 5916WAT     H217991   1.136   4.006   2.399
 5917WAT      O17992   2.665   3.312   3.935
 5917WAT     H117993   2.571   3.304   3.967
 5917WAT     H217994   2.676   3.262   3.849
 5918WAT      O17995   1.641   6.143   0.939
 5918WAT     H117996   1.605   6.208   1.006
 5918WAT     H217997   1.724   6.180   0.897
 5919WAT      O17998   8.289   6.678   4.481
 5919WAT     H117999   8.284   6.736   4.563
 5919WAT     H218000   8.383   6.647   4.468
 5920WAT      O18001   8.229   6.718   5.614
 5920WAT     H118002   8.206   6.798   5.559
 5920WAT     H218003   8.279   6.747   5.696
 5921WAT      O18004   8.866   8.697   3.488
 5921WAT     H118005   8.845   8.659   3.578
 5921WAT     H218006   8.797   8.667   3.422
 5922WAT      O18007   6.869   2.482   3.713
 5922WAT     H118008   6.785   2.535   3.698
 5922WAT     H218009   6.880   2.416   3.639
 5923WAT      O18010   1.768   7.527   8.922
 5923WAT     H118011   1.711   7.529   9.004
 5923WAT     H218012   1.712   7.499   8.844
 5924WAT      O18013   1.843   9.493   5.105
 5924WAT     H118014   1.872   9.565   5.168
 5924WAT     H218015   1.902   9.413   5.116
 5925WAT      O18016   3.077   9.479   5.378
 5925WAT     H118017   3.172   9.497   5.353
 5925WAT     H218018   3.032   9.565   5.402
 5926WAT      O18019   2.999   6.179   4.917
 5926WAT     H118020   2.902   6.155   4.918
 5926WAT     H218021   3.042   6.148   5.002
 5927WAT      O18022   4.421   1.971   4.348
 5927WAT     H118023   4.346   1.992   4.410
 5927WAT     H218024   4.449   2.054   4.299
 5928WAT      O18025   5.344   5.608   7.471
 5928WAT     H118026   5.320   5.705   7.474
 5928WAT     H218027   5.381   5.580   7.559
 5929WAT      O18028   3.834   5.502   7.612
 5929WAT     H118029   3.792   5.590   7.635
 5929WAT     H218030   3.783   5.459   7.538
 5930WAT      O18031   9.737   0.271   4.333
 5930WAT     H118032   9.767   0.248   4.240
 5930WAT     H218033   9.723   0.369   4.341
 5931WAT      O18034   3.023   4.566   8.186
 5931WAT     H118035   3.080   4.553   8.267
 5931WAT     H218036   3.078   4.553   8.103
 5932WAT      O18037   8.291   3.153   8.982
 5932WAT     H118038   8.222   3.218   9.013
 5932WAT     H218039   8.353   3.198   8.918
 5933WAT      O18040   3.731   9.336   4.430
 5933WAT     H118041   3.789   9.270   4.382
 5933WAT     H218042   3.694   9.294   4.513
 5934WAT      O18043   4.099   9.119   0.936
 5934WAT     H118044   4.032   9.047   0.951
 5934WAT     H218045   4.071   9.175   0.858
 5935WAT      O18046   4.511   9.259   7.775
 5935WAT     H118047   4.573   9.221   7.705
 5935WAT     H218048   4.424   9.282   7.733
 5936WAT      O18049   0.968   1.797   8.207
 5936WAT     H118050   1.007   1.814   8.116
 5936WAT     H218051   0.893   1.732   8.200
 5937WAT      O18052   6.985   3.305   0.348
 5937WAT     H118053   7.076   3.321   0.385
 5937WAT     H218054   6.938   3.237   0.405
 5938WAT      O18055   0.153   7.451   1.884
 5938WAT     H118056   0.127   7.356   1.901
 5938WAT     H218057   0.244   7.468   1.922
 5939WAT      O18058   6.466   8.640   3.765
 5939WAT     H118059   6.370   8.629   3.740
 5939WAT     H218060   6.473   8.696   3.848
 5940WAT      O18061   1.122   4.885   1.821
 5940WAT     H118062   1.101   4.806   1.764
 5940WAT     H218063   1.213   4.872   1.862
 5941WAT      O18064   1.336   8.509   0.421
 5941WAT     H118065   1.309   8.592   0.469
 5941WAT     H218066   1.271   8.491   0.347
 5942WAT      O18067   2.933   0.601   7.011
 5942WAT     H118068   3.018   0.586   6.960
 5942WAT     H218069   2.941   0.686   7.064
 5943WAT      O18070   4.064   7.079   5.660
 5943WAT     H118071   4.147   7.027   5.680
 5943WAT     H218072   4.085   7.177   5.660
 5944WAT      O18073   4.625   9.656   4.161
 5944WAT     H118074   4.576   9.623   4.080
 5944WAT     H218075   4.660   9.578   4.213
 5945WAT      O18076   8.055   6.719   4.337
 5945WAT     H118077   7.980   6.693   4.398
 5945WAT     H218078   8.139   6.672   4.365
 5946WAT      O18079   4.236   2.995   3.653
 5946WAT     H118080   4.288   3.012   3.737
 5946WAT     H218081   4.296   3.004   3.574
 5947WAT      O18082   8.014   9.282   5.705
 5947WAT     H118083   8.087   9.264   5.639
 5947WAT     H218084   8.026   9.375   5.742
 5948WAT      O18085   5.488   2.799   0.385
 5948WAT     H118086   5.453   2.839   0.469
 5948WAT     H218087   5.467   2.701   0.383
 5949WAT      O18088   2.216   1.754   4.525
 5949WAT     H118089   2.144   1.786   4.588
 5949WAT     H218090   2.173   1.708   4.448
 5950WAT      O18091   4.031   3.731   1.302
 5950WAT     H118092   3.932   3.720   1.290
 5950WAT     H218093   4.057   3.704   1.394
 5951WAT      O18094   7.180   8.850   8.718
 5951WAT     H118095   7.230   8.835   8.803
 5951WAT     H218096   7.083   8.862   8.738
 5952WAT      O18097   6.558   7.913   5.271
 5952WAT     H118098   6.647   7.884   5.307
 5952WAT     H218099   6.489   7.844   5.294
 5953WAT      O18100   3.001   7.721   0.349
 5953WAT     H118101   3.013   7.750   0.254
 5953WAT     H218102   3.009   7.800   0.410
 5954WAT      O18103   8.509   2.510   9.252
 5954WAT     H118104   8.470   2.553   9.171
 5954WAT     H218105   8.564   2.432   9.226
 5955WAT      O18106   4.680   8.566   2.270
 5955WAT     H118107   4.713   8.563   2.175
 5955WAT     H218108   4.665   8.473   2.303
 5956WAT      O18109   0.195   0.468   4.276
 5956WAT     H118110   0.181   0.497   4.371
 5956WAT     H218111   0.214   0.370   4.273
 5957WAT      O18112   8.069   4.177   1.983
 5957WAT     H118113   8.119   4.110   1.928
 5957WAT     H218114   8.125   4.260   1.994
 5958WAT      O18115   5.737   4.243   6.099
 5958WAT     H118116   5.826   4.287   6.097
 5958WAT     H218117   5.686   4.274   6.179
 5959WAT      O18118   9.568   0.764   4.968
 5959WAT     H118119   9.590   0.844   4.912
 5959WAT     H218120   9.651   0.711   4.984
 5960WAT      O18121   9.891   1.279   7.534
 5960WAT     H118122   9.813   1.243   7.584
 5960WAT     H218123   9.879   1.262   7.436
 5961WAT      O18124   0.095   3.227   1.048
 5961WAT     H118125   0.190   3.196   1.049
 5961WAT     H218126   0.050   3.198   1.133
 5962WAT      O18127   3.741   3.861   3.012
 5962WAT     H118128   3.739   3.950   3.056
 5962WAT     H218129   3.836   3.830   3.003
 5963WAT      O18130   7.013   3.042   7.308
 5963WAT     H118131   7.026   2.943   7.304
 5963WAT     H218132   6.991   3.069   7.402
 5964WAT      O18133   5.967   0.745   9.219
 5964WAT     H118134   5.898   0.696   9.165
 5964WAT     H218135   6.033   0.679   9.256
 5965WAT      O18136   2.993   0.655   0.442
 5965WAT     H118137   2.955   0.747   0.450
 5965WAT     H218138   2.967   0.601   0.523
 5966WAT      O18139   6.952   5.155   1.469
 5966WAT     H118140   7.030   5.177   1.528
 5966WAT     H218141   6.963   5.200   1.380
 5967WAT      O18142   4.806   6.821   7.574
 5967WAT     H118143   4.723   6.868   7.603
 5967WAT     H218144   4.802   6.725   7.602
 5968WAT      O18145   5.669   5.525   4.135
 5968WAT     H118146   5.675   5.612   4.087
 5968WAT     H218147   5.745   5.466   4.108
 5969WAT      O18148   3.985   8.131   5.495
 5969WAT     H118149   3.985   8.034   5.517
 5969WAT     H218150   4.035   8.147   5.410
 5970WAT      O18151   1.826   3.478   3.849
 5970WAT     H118152   1.901   3.412   3.840
 5970WAT     H218153   1.756   3.458   3.780
 5971WAT      O18154   3.843   0.611   8.998
 5971WAT     H118155   3.838   0.527   8.945
 5971WAT     H218156   3.828   0.689   8.937
 5972WAT      O18157   9.454   4.313   6.895
 5972WAT     H118158   9.393   4.393   6.900
 5972WAT     H218159   9.479   4.295   6.800
 5973WAT      O18160   9.617   4.925   5.947
 5973WAT     H118161   9.698   4.937   6.005
 5973WAT     H218162   9.618   4.991   5.873
 5974WAT      O18163   6.107   5.426   2.396
 5974WAT     H118164   6.023   5.425   2.451
 5974WAT     H218165   6.183   5.457   2.454
 5975WAT      O18166   1.635   8.092   2.885
 5975WAT     H118167   1.602   8.046   2.803
 5975WAT     H218168   1.732   8.114   2.874
 5976WAT      O18169   9.259   6.414   6.473
 5976WAT     H118170   9.244   6.328   6.423
 5976WAT     H218171   9.208   6.412   6.559
 5977WAT      O18172   2.331   4.132   9.077
 5977WAT     H118173   2.401   4.183   9.027
 5977WAT     H218174   2.328   4.038   9.044
 5978WAT      O18175   8.778   6.184   1.865
 5978WAT     H118176   8.794   6.119   1.939
 5978WAT     H218177   8.850   6.253   1.866
 5979WAT      O18178   6.562   9.805   8.689
 5979WAT     H118179   6.655   9.769   8.682
 5979WAT     H218180   6.549   9.876   8.619
 5980WAT      O18181   9.816   6.240   8.016
 5980WAT     H118182   9.813   6.288   7.928
 5980WAT     H218183   9.909   6.239   8.051
 5981WAT      O18184   1.838   9.714   2.736
 5981WAT     H118185   1.844   9.696   2.638
 5981WAT     H218186   1.924   9.691   2.780
 5982WAT      O18187   7.903   6.345   4.749
 5982WAT     H118188   7.937   6.251   4.745
 5982WAT     H218189   7.820   6.348   4.804
 5983WAT      O18190   9.790   1.394   8.043
 5983WAT     H118191   9.867   1.440   8.087
 5983WAT     H218192   9.716   1.381   8.109
 5984WAT      O18193   5.986   1.023   5.488
 5984WAT     H118194   6.085   1.036   5.491
 5984WAT     H218195   5.947   1.043   5.578
 5985WAT      O18196   9.876   2.433   4.861
 5985WAT     H118197   9.792   2.471   4.820
 5985WAT     H218198   9.950   2.500   4.854
 5986WAT      O18199   3.057   7.693   7.141
 5986WAT     H118200   3.095   7.657   7.055
 5986WAT     H218201   3.130   7.735   7.194
 5987WAT      O18202   6.457   6.448   4.901
 5987WAT     H118203   6.493   6.458   4.809
 5987WAT     H218204   6.368   6.403   4.897
 5988WAT      O18205   9.512   3.041   2.466
 5988WAT     H118206   9.599   2.995   2.483
 5988WAT     H218207   9.438   2.974   2.463
 5989WAT      O18208   6.757   4.180   2.701
 5989WAT     H118209   6.855   4.199   2.712
 5989WAT     H218210   6.707   4.267   2.701
 5990WAT      O18211   9.303   5.091   1.181
 5990WAT     H118212   9.311   5.000   1.140
 5990WAT     H218213   9.225   5.093   1.243
 5991WAT      O18214   5.663   3.436   9.660
 5991WAT     H118215   5.571   3.440   9.699
 5991WAT     H218216   5.664   3.482   9.571
 5992WAT      O18217   0.191   4.732   3.432
 5992WAT     H118218   0.161   4.641   3.461
 5992WAT     H218219   0.168   4.799   3.502
 5993WAT      O18220   4.948   6.921   5.642
 5993WAT     H118221   4.872   6.936   5.706
 5993WAT     H218222   4.917   6.937   5.548
 5994WAT      O18223   7.497   6.243   8.602
 5994WAT     H118224   7.553   6.162   8.582
 5994WAT     H218225   7.501   6.262   8.700
 5995WAT      O18226   2.684   6.658   0.537
 5995WAT     H118227   2.588   6.646   0.513
 5995WAT     H218228   2.730   6.569   0.535
 5996WAT      O18229   6.327   1.872   0.343
 5996WAT     H118230   6.420   1.837   0.341
 5996WAT     H218231   6.322   1.957   0.290
 5997WAT      O18232   1.246   7.717   1.190
 5997WAT     H118233   1.243   7.759   1.099
 5997WAT     H218234   1.206   7.780   1.257
 5998WAT      O18235   1.219   6.096   0.532
 5998WAT     H118236   1.264   6.093   0.621
 5998WAT     H218237   1.123   6.071   0.543
 5999WAT      O18238   6.287   2.722   7.353
 5999WAT     H118239   6.364   2.698   7.412
 5999WAT     H218240   6.272   2.821   7.356
 6000WAT      O18241   8.690   9.611   0.539
 6000WAT     H118242   8.724   9.589   0.448
 6000WAT     H218243   8.706   9.708   0.558
 6001WAT      O18244   7.710   7.564   2.644
 6001WAT     H118245   7.805   7.596   2.648
 6001WAT     H218246   7.707   7.477   2.597
 6002WAT      O18247   8.354   1.449   3.382
 6002WAT     H118248   8.374   1.501   3.299
 6002WAT     H218249   8.342   1.353   3.360
 6003WAT      O18250   6.382   3.371   0.419
 6003WAT     H118251   6.354   3.405   0.509
 6003WAT     H218252   6.364   3.273   0.413
 6004WAT      O18253   5.843   6.786   5.896
 6004WAT     H118254   5.830   6.883   5.918
 6004WAT     H218255   5.755   6.739   5.899
 6005WAT      O18256   1.330   5.671   0.111
 6005WAT     H118257   1.321   5.595   0.174
 6005WAT     H218258   1.262   5.664   0.038
 6006WAT      O18259   6.593   8.600   8.361
 6006WAT     H118260   6.666   8.667   8.374
 6006WAT     H218261   6.507   8.638   8.395
 6007WAT      O18262   7.262   4.041   5.137
 6007WAT     H118263   7.242   4.128   5.183
 6007WAT     H218264   7.320   4.059   5.057
 6008WAT      O18265   2.240   8.374   9.609
 6008WAT     H118266   2.291   8.299   9.568
 6008WAT     H218267   2.301   8.429   9.666
 6009WAT      O18268   2.802   9.595   9.630
 6009WAT     H118269   2.730   9.593   9.560
 6009WAT     H218270   2.761   9.576   9.720
 6010WAT      O18271   8.477   3.804   6.135
 6010WAT     H118272   8.406   3.837   6.197
 6010WAT     H218273   8.566   3.812   6.179
 6011WAT      O18274   2.129   7.019   7.341
 6011WAT     H118275   2.082   7.097   7.384
 6011WAT     H218276   2.144   6.948   7.409
 6012WAT      O18277   5.518   9.071   5.917
 6012WAT     H118278   5.610   9.087   5.881
 6012WAT     H218279   5.492   9.146   5.978
 6013WAT      O18280   1.962   6.953   4.342
 6013WAT     H118281   1.955   6.948   4.442
 6013WAT     H218282   2.028   6.886   4.310
 6014WAT      O18283   9.499   4.292   5.677
 6014WAT     H118284   9.537   4.242   5.756
 6014WAT     H218285   9.528   4.387   5.682
 6015WAT      O18286   2.153   2.552   9.564
 6015WAT     H118287   2.227   2.500   9.521
 6015WAT     H218288   2.075   2.556   9.501
 6016WAT      O18289   2.585   7.734   7.540
 6016WAT     H118290   2.511   7.689   7.591
 6016WAT     H218291   2.600   7.686   7.453
 6017WAT      O18292   0.215   0.090   8.602
 6017WAT     H118293   0.128   0.042   8.592
 6017WAT     H218294   0.285   0.025   8.631
 6018WAT      O18295   3.947   8.529   0.943
 6018WAT     H118296   4.004   8.609   0.921
 6018WAT     H218297   3.851   8.555   0.942
 6019WAT      O18298   2.344   8.912   9.330
 6019WAT     H118299   2.340   8.840   9.401
 6019WAT     H218300   2.252   8.926   9.293
 6020WAT      O18301   2.492   7.179   5.319
 6020WAT     H118302   2.545   7.192   5.403
 6020WAT     H218303   2.488   7.266   5.268
 6021WAT      O18304   2.889   3.555   9.224
 6021WAT     H118305   2.894   3.482   9.292
 6021WAT     H218306   2.871   3.642   9.270
 6022WAT      O18307   2.316   2.727   0.116
 6022WAT     H118308   2.411   2.699   0.110
 6022WAT     H218309   2.264   2.660   0.169
 6023WAT      O18310   3.267   1.478   5.073
 6023WAT     H118311   3.272   1.521   5.163
 6023WAT     H218312   3.246   1.381   5.083
 6024WAT      O18313   7.571   0.959   2.060
 6024WAT     H118314   7.653   0.981   2.113
 6024WAT     H218315   7.507   0.909   2.118
 6025WAT      O18316   2.929   1.125   1.311
 6025WAT     H118317   2.943   1.128   1.410
 6025WAT     H218318   2.928   1.218   1.274
 6026WAT      O18319   3.824   0.936   4.292
 6026WAT     H118320   3.767   1.001   4.241
 6026WAT     H218321   3.766   0.874   4.343
 6027WAT      O18322   9.546   1.117   5.850
 6027WAT     H118323   9.459   1.163   5.830
 6027WAT     H218324   9.563   1.046   5.782
 6028WAT      O18325   9.880   8.819   1.148
 6028WAT     H118326   9.917   8.878   1.220
 6028WAT     H218327   9.866   8.727   1.184
 6029WAT      O18328   6.201   5.713   8.361
 6029WAT     H118329   6.160   5.794   8.318
 6029WAT     H218330   6.233   5.736   8.453
 6030WAT      O18331   3.519   6.991   1.960
 6030WAT     H118332   3.613   6.980   1.929
 6030WAT     H218333   3.475   7.064   1.908
 6031WAT      O18334   0.059   1.872   3.336
 6031WAT     H118335   0.043   1.774   3.323
 6031WAT     H218336  -0.011   1.909   3.397
 6032WAT      O18337   5.036   0.585   8.730
 6032WAT     H118338   4.995   0.638   8.804
 6032WAT     H218339   4.979   0.593   8.648
 6033WAT      O18340   2.549   6.386   0.688
 6033WAT     H118341   2.635   6.407   0.641
 6033WAT     H218342   2.554   6.421   0.782
 6034WAT      O18343   3.040   8.547   1.153
 6034WAT     H118344   2.970   8.607   1.192
 6034WAT     H218345   3.110   8.603   1.109
 6035WAT      O18346   6.716   2.053   0.078
 6035WAT     H118347   6.798   2.057   0.021
 6035WAT     H218348   6.641   2.013   0.026
 6036WAT      O18349   2.708   7.178   2.699
 6036WAT     H118350   2.646   7.252   2.724
 6036WAT     H218351   2.727   7.182   2.601
 6037WAT      O18352   8.645   0.476   3.714
 6037WAT     H118353   8.701   0.395   3.697
 6037WAT     H218354   8.582   0.490   3.638
 6038WAT      O18355   1.134   7.474   4.891
 6038WAT     H118356   1.112   7.381   4.863
 6038WAT     H218357   1.056   7.534   4.871
 6039WAT      O18358   2.621   3.487   2.034
 6039WAT     H118359   2.556   3.492   1.957
 6039WAT     H218360   2.574   3.448   2.114
 6040WAT      O18361   0.903   1.974   3.224
 6040WAT     H118362   0.858   1.981   3.313
 6040WAT     H218363   0.978   1.908   3.229
 6041WAT      O18364   7.334   7.285   0.373
 6041WAT     H118365   7.360   7.378   0.350
 6041WAT     H218366   7.400   7.247   0.438
 6042WAT      O18367   6.175   3.796   9.690
 6042WAT     H118368   6.235   3.780   9.769
 6042WAT     H218369   6.152   3.893   9.686
 6043WAT      O18370   2.079   6.074   9.175
 6043WAT     H118371   2.096   6.022   9.258
 6043WAT     H218372   2.147   6.147   9.166
 6044WAT      O18373   6.093   1.058   6.612
 6044WAT     H118374   6.151   1.123   6.661
 6044WAT     H218375   6.148   1.006   6.548
 6045WAT      O18376   4.684   3.902   8.278
 6045WAT     H118377   4.667   3.890   8.375
 6045WAT     H218378   4.780   3.883   8.257
 6046WAT      O18379   5.339   2.158   6.040
 6046WAT     H118380   5.284   2.133   5.961
 6046WAT     H218381   5.397   2.081   6.067
 6047WAT      O18382   0.974   2.121   5.862
 6047WAT     H118383   0.966   2.220   5.850
 6047WAT     H218384   0.934   2.074   5.784
 6048WAT      O18385   9.222   8.195   9.495
 6048WAT     H118386   9.288   8.265   9.468
 6048WAT     H218387   9.197   8.208   9.591
 6049WAT      O18388   1.479   7.341   8.050
 6049WAT     H118389   1.557   7.364   7.991
 6049WAT     H218390   1.396   7.380   8.011
 6050WAT      O18391   3.625   1.429   3.663
 6050WAT     H118392   3.716   1.458   3.694
 6050WAT     H218393   3.599   1.345   3.710
 6051WAT      O18394   0.865   2.299   3.720
 6051WAT     H118395   0.907   2.390   3.716
 6051WAT     H218396   0.909   2.245   3.792
 6052WAT      O18397   9.065   9.688   7.681
 6052WAT     H118398   9.136   9.703   7.750
 6052WAT     H218399   9.062   9.591   7.656
 6053WAT      O18400   3.481   4.691   1.478
 6053WAT     H118401   3.399   4.660   1.429
 6053WAT     H218402   3.497   4.633   1.557
 6054WAT      O18403   2.664   0.659   6.947
 6054WAT     H118404   2.763   0.645   6.936
 6054WAT     H218405   2.643   0.670   7.044
 6055WAT      O18406   3.553   5.938   9.842
 6055WAT     H118407   3.491   5.865   9.815
 6055WAT     H218408   3.644   5.922   9.802
 6056WAT      O18409   1.791   4.031   7.107
 6056WAT     H118410   1.828   4.124   7.100
 6056WAT     H218411   1.852   3.968   7.060
 6057WAT      O18412   6.365   4.714   2.860
 6057WAT     H118413   6.320   4.800   2.837
 6057WAT     H218414   6.296   4.648   2.889
 6058WAT      O18415   0.116   7.906   7.750
 6058WAT     H118416   0.069   7.994   7.762
 6058WAT     H218417   0.198   7.904   7.807
 6059WAT      O18418   3.016   0.724   0.091
 6059WAT     H118419   2.967   0.643   0.123
 6059WAT     H218420   2.977   0.755   0.004
 6060WAT      O18421   7.905   4.345   2.743
 6060WAT     H118422   7.926   4.432   2.700
 6060WAT     H218423   7.807   4.324   2.731
 6061WAT      O18424   4.891   9.587   4.021
 6061WAT     H118425   4.921   9.680   4.000
 6061WAT     H218426   4.825   9.556   3.953
 6062WAT      O18427   3.200   1.349   2.972
 6062WAT     H118428   3.110   1.392   2.981
 6062WAT     H218429   3.194   1.272   2.909
 6063WAT      O18430   8.380   4.007   3.836
 6063WAT     H118431   8.453   3.939   3.847
 6063WAT     H218432   8.349   4.037   3.927
 6064WAT      O18433   8.048   9.228   6.736
 6064WAT     H118434   8.057   9.249   6.639
 6064WAT     H218435   8.138   9.211   6.775
 6065WAT      O18436   9.858   6.200   2.715
 6065WAT     H118437   9.799   6.188   2.795
 6065WAT     H218438   9.938   6.255   2.741
 6066WAT      O18439   4.999   9.338   9.244
 6066WAT     H118440   4.978   9.299   9.154
 6066WAT     H218441   4.936   9.412   9.265
 6067WAT      O18442   7.914   7.319   3.376
 6067WAT     H118443   7.965   7.405   3.368
 6067WAT     H218444   7.923   7.266   3.291
 6068WAT      O18445   7.403   3.777   1.762
 6068WAT     H118446   7.313   3.735   1.776
 6068WAT     H218447   7.442   3.803   1.850
 6069WAT      O18448   0.509   8.792   6.781
 6069WAT     H118449   0.529   8.746   6.868
 6069WAT     H218450   0.573   8.761   6.711
 6070WAT      O18451   7.361   5.014   0.379
 6070WAT     H118452   7.455   5.042   0.397
 6070WAT     H218453   7.359   4.915   0.363
 6071WAT      O18454   2.620   1.772   8.173
 6071WAT     H118455   2.634   1.791   8.076
 6071WAT     H218456   2.705   1.735   8.212
 6072WAT      O18457   1.499   8.283   2.653
 6072WAT     H118458   1.588   8.307   2.691
 6072WAT     H218459   1.427   8.332   2.702
 6073WAT      O18460   4.009   4.331   1.856
 6073WAT     H118461   3.937   4.370   1.913
 6073WAT     H218462   4.038   4.243   1.894
 6074WAT      O18463   6.920   0.151   3.232
 6074WAT     H118464   6.879   0.067   3.197
 6074WAT     H218465   6.913   0.152   3.332
 6075WAT      O18466   3.773   6.634   8.551
 6075WAT     H118467   3.719   6.602   8.473
 6075WAT     H218468   3.726   6.710   8.596
 6076WAT      O18469   1.151   1.692   2.285
 6076WAT     H118470   1.140   1.626   2.210
 6076WAT     H218471   1.191   1.776   2.249
 6077WAT      O18472   9.584   7.853   2.518
 6077WAT     H118473   9.528   7.869   2.600
 6077WAT     H218474   9.662   7.916   2.519
 6078WAT      O18475   8.441   7.200   0.803
 6078WAT     H118476   8.496   7.147   0.738
 6078WAT     H218477   8.499   7.271   0.845
 6079WAT      O18478   6.339   6.165   2.186
 6079WAT     H118479   6.318   6.261   2.206
 6079WAT     H218480   6.279   6.131   2.115
 6080WAT      O18481   8.865   5.494   2.151
 6080WAT     H118482   8.869   5.474   2.249
 6080WAT     H218483   8.796   5.436   2.108
 6081WAT      O18484   3.616   5.616   3.414
 6081WAT     H118485   3.603   5.520   3.387
 6081WAT     H218486   3.710   5.643   3.393
 6082WAT      O18487   3.846   1.326   0.829
 6082WAT     H118488   3.755   1.287   0.812
 6082WAT     H218489   3.845   1.377   0.915
 6083WAT      O18490   8.244   7.039   7.757
 6083WAT     H118491   8.343   7.041   7.766
 6083WAT     H218492   8.213   6.944   7.745
 6084WAT      O18493   3.834   5.896   7.017
 6084WAT     H118494   3.789   5.807   7.024
 6084WAT     H218495   3.889   5.899   6.934
 6085WAT      O18496   2.232   3.126   6.254
 6085WAT     H118497   2.141   3.133   6.295
 6085WAT     H218498   2.301   3.125   6.326
 6086WAT      O18499   1.782   7.903   5.859
 6086WAT     H118500   1.860   7.895   5.921
 6086WAT     H218501   1.758   7.812   5.824
 6087WAT      O18502   0.652   9.665   4.384
 6087WAT     H118503   0.678   9.682   4.289
 6087WAT     H218504   0.647   9.566   4.400
 6088WAT      O18505   5.500   7.578   8.226
 6088WAT     H118506   5.419   7.524   8.250
 6088WAT     H218507   5.581   7.521   8.232
 6089WAT      O18508   7.872   0.995   5.352
 6089WAT     H118509   7.853   0.897   5.353
 6089WAT     H218510   7.948   1.014   5.290
 6090WAT      O18511   1.029   6.453   9.549
 6090WAT     H118512   1.076   6.392   9.613
 6090WAT     H218513   1.020   6.407   9.461
 6091WAT      O18514   7.781   1.733   0.751
 6091WAT     H118515   7.831   1.773   0.675
 6091WAT     H218516   7.836   1.660   0.793
 6092WAT      O18517   0.604   6.865   9.045
 6092WAT     H118518   0.512   6.827   9.045
 6092WAT     H218519   0.611   6.937   8.976
 6093WAT      O18520   1.656   9.234   9.740
 6093WAT     H118521   1.747   9.270   9.722
 6093WAT     H218522   1.614   9.285   9.815
 6094WAT      O18523   1.292   8.428   5.796
 6094WAT     H118524   1.235   8.351   5.824
 6094WAT     H218525   1.235   8.510   5.788
 6095WAT      O18526   6.627   6.004   8.649
 6095WAT     H118527   6.727   6.007   8.649
 6095WAT     H218528   6.594   5.967   8.735
 6096WAT      O18529   9.502   7.212   4.704
 6096WAT     H118530   9.418   7.164   4.728
 6096WAT     H218531   9.534   7.265   4.783
 6097WAT      O18532   4.812   3.831   1.345
 6097WAT     H118533   4.907   3.862   1.341
 6097WAT     H218534   4.788   3.785   1.260
 6098WAT      O18535   8.722   6.690   9.376
 6098WAT     H118536   8.756   6.609   9.328
 6098WAT     H218537   8.699   6.761   9.310
 6099WAT      O18538   8.431   0.326   5.491
 6099WAT     H118539   8.427   0.286   5.583
 6099WAT     H218540   8.518   0.374   5.480
 6100WAT      O18541   7.690   0.480   5.887
 6100WAT     H118542   7.749   0.420   5.942
 6100WAT     H218543   7.662   0.431   5.804
 6101WAT      O18544   6.456   5.806   7.560
 6101WAT     H118545   6.419   5.881   7.504
 6101WAT     H218546   6.382   5.742   7.582
 6102WAT      O18547   1.727   8.776   5.807
 6102WAT     H118548   1.756   8.817   5.894
 6102WAT     H218549   1.680   8.846   5.752
 6103WAT      O18550   6.286   4.625   7.488
 6103WAT     H118551   6.371   4.574   7.495
 6103WAT     H218552   6.220   4.589   7.554
 6104WAT      O18553   7.417   0.443   1.887
 6104WAT     H118554   7.338   0.415   1.941
 6104WAT     H218555   7.457   0.525   1.927
 6105WAT      O18556   4.913   9.494   3.150
 6105WAT     H118557   4.987   9.528   3.092
 6105WAT     H218558   4.876   9.410   3.111
 6106WAT      O18559   0.289   1.355   5.216
 6106WAT     H118560   0.291   1.415   5.296
 6106WAT     H218561   0.289   1.411   5.133
 6107WAT      O18562   9.795   6.163   8.952
 6107WAT     H118563   9.777   6.157   9.050
 6107WAT     H218564   9.708   6.157   8.903
 6108WAT      O18565   6.168   8.317   9.170
 6108WAT     H118566   6.184   8.350   9.078
 6108WAT     H218567   6.130   8.390   9.226
 6109WAT      O18568   7.433   5.092   1.447
 6109WAT     H118569   7.412   5.007   1.399
 6109WAT     H218570   7.348   5.135   1.479
 6110WAT      O18571   0.540   1.588   6.893
 6110WAT     H118572   0.546   1.530   6.812
 6110WAT     H218573   0.612   1.562   6.957
 6111WAT      O18574   2.888   9.196   8.184
 6111WAT     H118575   2.805   9.168   8.136
 6111WAT     H218576   2.951   9.118   8.191
 6112WAT      O18577   1.666   3.568   2.384
 6112WAT     H118578   1.567   3.570   2.375
 6112WAT     H218579   1.690   3.544   2.478
 6113WAT      O18580   9.356   4.486   6.094
 6113WAT     H118581   9.322   4.425   6.022
 6113WAT     H218582   9.421   4.551   6.054
 6114WAT      O18583   1.706   0.628   1.036
 6114WAT     H118584   1.749   0.671   1.115
 6114WAT     H218585   1.607   0.639   1.040
 6115WAT      O18586   0.545   7.692   1.547
 6115WAT     H118587   0.472   7.757   1.566
 6115WAT     H218588   0.515   7.600   1.570
 6116WAT      O18589   3.899   2.403   9.393
 6116WAT     H118590   3.821   2.409   9.455
 6116WAT     H218591   3.984   2.394   9.445
 6117WAT      O18592   7.157   1.137   5.301
 6117WAT     H118593   7.059   1.150   5.291
 6117WAT     H218594   7.186   1.169   5.391
 6118WAT      O18595   3.147   3.088   2.469
 6118WAT     H118596   3.105   3.167   2.512
 6118WAT     H218597   3.079   3.016   2.458
 6119WAT      O18598   6.646   5.585   2.368
 6119WAT     H118599   6.735   5.618   2.400
 6119WAT     H218600   6.633   5.490   2.399
 6120WAT      O18601   7.157   4.574   5.727
 6120WAT     H118602   7.060   4.586   5.705
 6120WAT     H218603   7.179   4.626   5.810
 6121WAT      O18604   6.291   8.208   9.452
 6121WAT     H118605   6.238   8.290   9.474
 6121WAT     H218606   6.356   8.189   9.525
 6122WAT      O18607   8.611   1.851   2.759
 6122WAT     H118608   8.609   1.868   2.858
 6122WAT     H218609   8.572   1.761   2.740
 6123WAT      O18610   3.808   5.919   3.739
 6123WAT     H118611   3.721   5.893   3.697
 6123WAT     H218612   3.805   6.016   3.765
 6124WAT      O18613   1.509   2.751   1.248
 6124WAT     H118614   1.472   2.843   1.236
 6124WAT     H218615   1.594   2.743   1.197
 6125WAT      O18616   9.651   2.916   9.863
 6125WAT     H118617   9.656   2.996   9.923
 6125WAT     H218618   9.571   2.924   9.804
 6126WAT      O18619   9.505   6.378   3.751
 6126WAT     H118620   9.564   6.369   3.670
 6126WAT     H218621   9.511   6.472   3.785
 6127WAT      O18622   8.944   2.127   6.008
 6127WAT     H118623   8.966   2.083   6.094
 6127WAT     H218624   8.902   2.216   6.026
 6128WAT      O18625   1.514   7.168   0.115
 6128WAT     H118626   1.442   7.235   0.132
 6128WAT     H218627   1.589   7.182   0.179
 6129WAT      O18628   6.949   2.823   7.995
 6129WAT     H118629   6.880   2.768   8.041
 6129WAT     H218630   7.040   2.794   8.025
 6130WAT      O18631   6.966   5.675   7.065
 6130WAT     H118632   6.928   5.583   7.052
 6130WAT     H218633   7.066   5.670   7.062
 6131WAT      O18634   0.070   9.520   4.992
 6131WAT     H118635   0.127   9.504   5.073
 6131WAT     H218636   0.011   9.600   5.008
 6132WAT      O18637   4.760   7.833   7.531
 6132WAT     H118638   4.840   7.782   7.499
 6132WAT     H218639   4.695   7.842   7.456
 6133WAT      O18640   2.293   2.810   0.876
 6133WAT     H118641   2.347   2.875   0.822
 6133WAT     H218642   2.278   2.728   0.822
 6134WAT      O18643   9.592   3.722   8.459
 6134WAT     H118644   9.540   3.643   8.427
 6134WAT     H218645   9.558   3.751   8.548
 6135WAT      O18646   6.420   1.399   0.353
 6135WAT     H118647   6.471   1.431   0.433
 6135WAT     H218648   6.475   1.414   0.271
 6136WAT      O18649   8.178   6.358   7.106
 6136WAT     H118650   8.257   6.334   7.162
 6136WAT     H218651   8.095   6.326   7.149
 6137WAT      O18652   0.016   1.944   2.430
 6137WAT     H118653   0.033   2.022   2.490
 6137WAT     H218654   0.097   1.926   2.374
 6138WAT      O18655   0.144   5.220   3.050
 6138WAT     H118656   0.103   5.263   2.969
 6138WAT     H218657   0.224   5.167   3.022
 6139WAT      O18658   1.543   1.910   0.218
 6139WAT     H118659   1.605   1.972   0.171
 6139WAT     H218660   1.591   1.863   0.291
 6140WAT      O18661   9.710   2.628   4.504
 6140WAT     H118662   9.718   2.529   4.499
 6140WAT     H218663   9.789   2.665   4.552
 6141WAT      O18664   0.411   2.537   4.170
 6141WAT     H118665   0.434   2.609   4.104
 6141WAT     H218666   0.330   2.487   4.138
 6142WAT      O18667   6.279   4.572   4.791
 6142WAT     H118668   6.265   4.666   4.824
 6142WAT     H218669   6.196   4.539   4.747
 6143WAT      O18670   3.422   6.562   9.596
 6143WAT     H118671   3.412   6.536   9.692
 6143WAT     H218672   3.357   6.635   9.575
 6144WAT      O18673   4.569   8.519   3.307
 6144WAT     H118674   4.474   8.532   3.277
 6144WAT     H218675   4.570   8.473   3.396
 6145WAT      O18676   6.838   4.002   7.343
 6145WAT     H118677   6.743   3.994   7.374
 6145WAT     H218678   6.862   4.098   7.333
 6146WAT      O18679   6.158   5.561   6.759
 6146WAT     H118680   6.173   5.495   6.686
 6146WAT     H218681   6.080   5.619   6.736
 6147WAT      O18682   4.113   6.426   7.842
 6147WAT     H118683   4.073   6.516   7.822
 6147WAT     H218684   4.154   6.390   7.759
 6148WAT      O18685   7.527   1.547   2.132
 6148WAT     H118686   7.438   1.513   2.160
 6148WAT     H218687   7.516   1.613   2.058
 6149WAT      O18688   8.773   1.499   2.251
 6149WAT     H118689   8.714   1.577   2.275
 6149WAT     H218690   8.751   1.469   2.159
 6150WAT      O18691   7.812   7.589   4.883
 6150WAT     H118692   7.812   7.533   4.800
 6150WAT     H218693   7.773   7.679   4.863
 6151WAT      O18694   6.607   2.315   7.445
 6151WAT     H118695   6.658   2.368   7.377
 6151WAT     H218696   6.658   2.233   7.469
 6152WAT      O18697   1.194   4.810   2.272
 6152WAT     H118698   1.247   4.728   2.251
 6152WAT     H218699   1.226   4.886   2.215
 6153WAT      O18700   5.940   9.782   3.342
 6153WAT     H118701   6.033   9.749   3.324
 6153WAT     H218702   5.875   9.735   3.283
 6154WAT      O18703   5.069   7.681   6.883
 6154WAT     H118704   5.038   7.725   6.967
 6154WAT     H218705   5.120   7.746   6.827
 6155WAT      O18706   1.407   0.693   9.214
 6155WAT     H118707   1.464   0.621   9.174
 6155WAT     H218708   1.310   0.671   9.201
 6156WAT      O18709   2.789   9.003   7.755
 6156WAT     H118710   2.835   9.063   7.690
 6156WAT     H218711   2.704   9.046   7.786
 6157WAT      O18712   9.429   8.736   5.932
 6157WAT     H118713   9.504   8.692   5.881
 6157WAT     H218714   9.395   8.673   6.001
 6158WAT      O18715   9.562   0.452   5.924
 6158WAT     H118716   9.644   0.417   5.879
 6158WAT     H218717   9.588   0.498   6.010
 6159WAT      O18718   1.466   4.328   9.318
 6159WAT     H118719   1.425   4.364   9.401
 6159WAT     H218720   1.442   4.231   9.308
 6160WAT      O18721   8.552   8.020   2.735
 6160WAT     H118722   8.598   8.009   2.647
 6160WAT     H218723   8.610   7.982   2.808
 6161WAT      O18724   8.503   1.012   2.664
 6161WAT     H118725   8.554   1.078   2.609
 6161WAT     H218726   8.460   0.945   2.603
 6162WAT      O18727   4.095   9.414   4.821
 6162WAT     H118728   4.037   9.373   4.892
 6162WAT     H218729   4.080   9.366   4.735
 6163WAT      O18730   1.064   2.294   1.699
 6163WAT     H118731   1.119   2.219   1.736
 6163WAT     H218732   0.989   2.257   1.645
 6164WAT      O18733   9.384   4.132   3.471
 6164WAT     H118734   9.468   4.128   3.525
 6164WAT     H218735   9.327   4.208   3.502
 6165WAT      O18736   2.244   6.549   5.258
 6165WAT     H118737   2.301   6.625   5.227
 6165WAT     H218738   2.254   6.537   5.357
 6166WAT      O18739   9.795   2.570   5.845
 6166WAT     H118740   9.835   2.643   5.788
 6166WAT     H218741   9.817   2.587   5.941
 6167WAT      O18742   8.674   4.255   3.360
 6167WAT     H118743   8.631   4.171   3.395
 6167WAT     H218744   8.606   4.329   3.359
 6168WAT      O18745   9.688   0.329   9.348
 6168WAT     H118746   9.760   0.383   9.305
 6168WAT     H218747   9.630   0.288   9.277
 6169WAT      O18748   4.338   3.213   4.402
 6169WAT     H118749   4.327   3.308   4.374
 6169WAT     H218750   4.252   3.177   4.436
 6170WAT      O18751   2.623   2.434   0.499
 6170WAT     H118752   2.605   2.449   0.596
 6170WAT     H218753   2.541   2.397   0.455
 6171WAT      O18754   6.850   4.611   9.875
 6171WAT     H118755   6.895   4.693   9.909
 6171WAT     H218756   6.754   4.630   9.856
 6172WAT      O18757   3.571   5.102   2.626
 6172WAT     H118758   3.587   5.084   2.723
 6172WAT     H218759   3.622   5.036   2.571
 6173WAT      O18760   5.002   0.628   0.113
 6173WAT     H118761   5.033   0.546   0.160
 6173WAT     H218762   4.926   0.669   0.164
 6174WAT      O18763   4.405   1.825   5.011
 6174WAT     H118764   4.360   1.814   5.099
 6174WAT     H218765   4.456   1.911   5.010
 6175WAT      O18766   7.297   5.005   2.569
 6175WAT     H118767   7.381   5.047   2.535
 6175WAT     H218768   7.271   5.047   2.656
 6176WAT      O18769   9.261   0.770   9.621
 6176WAT     H118770   9.234   0.698   9.557
 6176WAT     H218771   9.189   0.781   9.690
 6177WAT      O18772   3.876   3.803   8.201
 6177WAT     H118773   3.870   3.709   8.169
 6177WAT     H218774   3.925   3.858   8.133
 6178WAT      O18775   1.467   6.944   0.450
 6178WAT     H118776   1.454   7.043   0.461
 6178WAT     H218777   1.467   6.922   0.352
 6179WAT      O18778   7.305   4.837   2.945
 6179WAT     H118779   7.311   4.811   3.042
 6179WAT     H218780   7.209   4.850   2.920
 6180WAT      O18781   8.475   2.330   7.689
 6180WAT     H118782   8.455   2.317   7.592
 6180WAT     H218783   8.413   2.398   7.728
 6181WAT      O18784   5.091   8.133   2.813
 6181WAT     H118785   5.013   8.078   2.784
 6181WAT     H218786   5.121   8.191   2.737
 6182WAT      O18787   3.536   1.053   9.674
 6182WAT     H118788   3.609   1.058   9.742
 6182WAT     H218789   3.493   1.143   9.664
 6183WAT      O18790   2.661   2.945   4.466
 6183WAT     H118791   2.695   3.037   4.484
 6183WAT     H218792   2.708   2.907   4.387
 6184WAT      O18793   4.264   4.609   1.145
 6184WAT     H118794   4.271   4.642   1.051
 6184WAT     H218795   4.245   4.511   1.145
 6185WAT      O18796   8.908   7.313   0.895
 6185WAT     H118797   8.962   7.235   0.928
 6185WAT     H218798   8.906   7.384   0.965
 6186WAT      O18799   0.268   5.996   8.180
 6186WAT     H118800   0.218   5.951   8.253
 6186WAT     H218801   0.364   5.968   8.182
 6187WAT      O18802   6.875   2.920   0.504
 6187WAT     H118803   6.872   2.820   0.501
 6187WAT     H218804   6.895   2.951   0.597
 6188WAT      O18805   4.502   0.116   1.739
 6188WAT     H118806   4.531   0.027   1.703
 6188WAT     H218807   4.443   0.102   1.818
 6189WAT      O18808   1.610   3.134   8.832
 6189WAT     H118809   1.549   3.107   8.907
 6189WAT     H218810   1.562   3.123   8.745
 6190WAT      O18811   7.747   8.794   5.447
 6190WAT     H118812   7.673   8.750   5.499
 6190WAT     H218813   7.831   8.791   5.501
 6191WAT      O18814   3.356   0.125   0.526
 6191WAT     H118815   3.420   0.190   0.567
 6191WAT     H218816   3.396   0.034   0.529
 6192WAT      O18817   3.973   8.189   6.753
 6192WAT     H118818   4.040   8.137   6.699
 6192WAT     H218819   3.968   8.282   6.718
 6193WAT      O18820   9.017   5.704   9.496
 6193WAT     H118821   9.092   5.676   9.555
 6193WAT     H218822   9.054   5.731   9.407
 6194WAT      O18823   7.217   1.003   3.136
 6194WAT     H118824   7.237   0.978   3.041
 6194WAT     H218825   7.285   1.068   3.169
 6195WAT      O18826   7.763   6.676   3.825
 6195WAT     H118827   7.717   6.725   3.898
 6195WAT     H218828   7.778   6.738   3.747
 6196WAT      O18829   9.575   6.919   7.685
 6196WAT     H118830   9.642   6.913   7.759
 6196WAT     H218831   9.606   6.987   7.618
 6197WAT      O18832   6.836   9.356   6.492
 6197WAT     H118833   6.933   9.375   6.482
 6197WAT     H218834   6.797   9.329   6.404
 6198WAT      O18835   1.456   7.381   7.603
 6198WAT     H118836   1.542   7.355   7.648
 6198WAT     H218837   1.451   7.480   7.595
 6199WAT      O18838   8.653   5.080   2.910
 6199WAT     H118839   8.565   5.052   2.872
 6199WAT     H218840   8.726   5.050   2.849
 6200WAT      O18841   4.811   3.096   4.183
 6200WAT     H118842   4.713   3.118   4.193
 6200WAT     H218843   4.843   3.128   4.094
 6201WAT      O18844   6.933   7.085   7.459
 6201WAT     H118845   6.950   7.100   7.557
 6201WAT     H218846   6.896   6.993   7.445
 6202WAT      O18847   8.780   4.824   7.805
 6202WAT     H118848   8.728   4.829   7.890
 6202WAT     H218849   8.858   4.887   7.809
 6203WAT      O18850   8.524   0.624   0.023
 6203WAT     H118851   8.525   0.604  -0.075
 6203WAT     H218852   8.579   0.705   0.041
 6204WAT      O18853   4.965   9.757   3.681
 6204WAT     H118854   4.896   9.807   3.733
 6204WAT     H218855   4.927   9.728   3.593
 6205WAT      O18856   3.301   3.342   0.327
 6205WAT     H118857   3.388   3.337   0.376
 6205WAT     H218858   3.226   3.357   0.393
 6206WAT      O18859   8.784   6.886   5.231
 6206WAT     H118860   8.831   6.904   5.145
 6206WAT     H218861   8.850   6.854   5.299
 6207WAT      O18862   1.713   1.425   2.970
 6207WAT     H118863   1.704   1.523   2.988
 6207WAT     H218864   1.627   1.391   2.932
 6208WAT      O18865   2.427   5.518   3.125
 6208WAT     H118866   2.340   5.488   3.086
 6208WAT     H218867   2.449   5.462   3.205
 6209WAT      O18868   4.168   7.792   9.393
 6209WAT     H118869   4.087   7.741   9.421
 6209WAT     H218870   4.217   7.825   9.474
 6210WAT      O18871   7.501   9.536   5.288
 6210WAT     H118872   7.445   9.464   5.247
 6210WAT     H218873   7.580   9.554   5.229
 6211WAT      O18874   8.845   6.517   4.311
 6211WAT     H118875   8.769   6.454   4.325
 6211WAT     H218876   8.927   6.465   4.287
 6212WAT      O18877   6.527   4.208   9.223
 6212WAT     H118878   6.532   4.143   9.299
 6212WAT     H218879   6.618   4.242   9.201
 6213WAT      O18880   9.422   1.687   2.672
 6213WAT     H118881   9.509   1.689   2.622
 6213WAT     H218882   9.355   1.744   2.624
 6214WAT      O18883   6.449   6.680   6.952
 6214WAT     H118884   6.450   6.598   7.010
 6214WAT     H218885   6.356   6.717   6.949
 6215WAT      O18886   4.437   1.448   3.945
 6215WAT     H118887   4.442   1.355   3.982
 6215WAT     H218888   4.474   1.512   4.012
 6216WAT      O18889   3.931   1.540   7.082
 6216WAT     H118890   3.840   1.566   7.113
 6216WAT     H218891   3.987   1.622   7.069
 6217WAT      O18892   4.570   7.075   9.571
 6217WAT     H118893   4.608   6.992   9.531
 6217WAT     H218894   4.486   7.100   9.524
 6218WAT      O18895   0.747   8.964   0.285
 6218WAT     H118896   0.690   9.045   0.299
 6218WAT     H218897   0.800   8.946   0.368
 6219WAT      O18898   4.438   8.850   9.246
 6219WAT     H118899   4.416   8.930   9.302
 6219WAT     H218900   4.385   8.853   9.161
 6220WAT      O18901   9.364   5.113   9.240
 6220WAT     H118902   9.406   5.028   9.274
 6220WAT     H218903   9.275   5.092   9.199
 6221WAT      O18904   6.812   6.652   0.737
 6221WAT     H118905   6.868   6.570   0.736
 6221WAT     H218906   6.717   6.627   0.755
 6222WAT      O18907   0.515   1.256   1.535
 6222WAT     H118908   0.532   1.243   1.437
 6222WAT     H218909   0.441   1.322   1.547
 6223WAT      O18910   7.977   5.592   6.546
 6223WAT     H118911   7.920   5.577   6.466
 6223WAT     H218912   8.069   5.559   6.529
 6224WAT      O18913   4.377   2.957   0.163
 6224WAT     H118914   4.282   2.943   0.133
 6224WAT     H218915   4.425   3.010   0.094
 6225WAT      O18916   1.793   3.988   2.154
 6225WAT     H118917   1.719   3.972   2.087
 6225WAT     H218918   1.777   3.932   2.235
 6226WAT      O18919   5.059   9.586   7.490
 6226WAT     H118920   5.014   9.599   7.578
 6226WAT     H218921   5.142   9.531   7.503
 6227WAT      O18922   5.849   0.800   4.338
 6227WAT     H118923   5.910   0.762   4.407
 6227WAT     H218924   5.880   0.892   4.312
 6228WAT      O18925   4.803   9.410   1.975
 6228WAT     H118926   4.788   9.499   2.019
 6228WAT     H218927   4.724   9.387   1.919
 6229WAT      O18928   2.627   2.340   9.466
 6229WAT     H118929   2.625   2.253   9.514
 6229WAT     H218930   2.722   2.370   9.453
 6230WAT      O18931   6.396   8.660   5.476
 6230WAT     H118932   6.353   8.575   5.506
 6230WAT     H218933   6.467   8.686   5.540
 6231WAT      O18934   7.799   6.750   6.606
 6231WAT     H118935   7.796   6.664   6.658
 6231WAT     H218936   7.889   6.792   6.617
 6232WAT      O18937   2.179   7.389   6.642
 6232WAT     H118938   2.167   7.290   6.638
 6232WAT     H218939   2.144   7.423   6.730
 6233WAT      O18940   0.958   5.901   3.231
 6233WAT     H118941   0.934   5.954   3.149
 6233WAT     H218942   0.928   5.806   3.219
 6234WAT      O18943   2.024   2.001   5.286
 6234WAT     H118944   2.041   1.974   5.381
 6234WAT     H218945   1.934   1.967   5.258
 6235WAT      O18946   7.735   6.167   8.237
 6235WAT     H118947   7.707   6.076   8.270
 6235WAT     H218948   7.662   6.233   8.255
 6236WAT      O18949   4.233   9.344   8.373
 6236WAT     H118950   4.306   9.286   8.337
 6236WAT     H218951   4.272   9.428   8.409
 6237WAT      O18952   7.574   8.709   4.112
 6237WAT     H118953   7.664   8.695   4.154
 6237WAT     H218954   7.555   8.633   4.049
 6238WAT      O18955   7.395   1.739   5.964
 6238WAT     H118956   7.428   1.707   6.052
 6238WAT     H218957   7.437   1.685   5.891
 6239WAT      O18958   6.472   7.686   9.361
 6239WAT     H118959   6.539   7.668   9.434
 6239WAT     H218960   6.463   7.785   9.349
 6240WAT      O18961   1.360   6.693   6.514
 6240WAT     H118962   1.368   6.593   6.509
 6240WAT     H218963   1.381   6.724   6.606
 6241WAT      O18964   7.366   7.826   5.409
 6241WAT     H118965   7.308   7.810   5.329
 6241WAT     H218966   7.349   7.756   5.477
 6242WAT      O18967   8.072   6.685   4.073
 6242WAT     H118968   8.050   6.703   4.168
 6242WAT     H218969   8.137   6.608   4.068
 6243WAT      O18970   1.212   8.270   9.518
 6243WAT     H118971   1.277   8.203   9.483
 6243WAT     H218972   1.122   8.252   9.480
 6244WAT      O18973   1.042   7.494   6.805
 6244WAT     H118974   1.009   7.523   6.716
 6244WAT     H218975   1.111   7.559   6.839
 6245WAT      O18976   4.096  -0.002   7.168
 6245WAT     H118977   4.192   0.025   7.160
 6245WAT     H218978   4.039   0.079   7.183
 6246WAT      O18979   3.531   1.142   6.488
 6246WAT     H118980   3.612   1.107   6.534
 6246WAT     H218981   3.508   1.232   6.524
 6247WAT      O18982   3.190   9.340   1.359
 6247WAT     H118983   3.172   9.289   1.443
 6247WAT     H218984   3.105   9.355   1.310
 6248WAT      O18985   7.741   0.674   0.823
 6248WAT     H118986   7.747   0.659   0.922
 6248WAT     H218987   7.812   0.620   0.777
 6249WAT      O18988   5.503   3.938   7.075
 6249WAT     H118989   5.418   3.914   7.121
 6249WAT     H218990   5.492   3.929   6.976
 6250WAT      O18991   8.888   2.243   7.498
 6250WAT     H118992   8.871   2.153   7.537
 6250WAT     H218993   8.879   2.312   7.570
 6251WAT      O18994   6.015   0.245   3.479
 6251WAT     H118995   6.012   0.155   3.523
 6251WAT     H218996   6.010   0.233   3.379
 6252WAT      O18997   6.701   4.702   8.393
 6252WAT     H118998   6.771   4.735   8.330
 6252WAT     H218999   6.716   4.604   8.411
 6253WAT      O19000   7.948   9.141   3.765
 6253WAT     H119001   7.982   9.204   3.694
 6253WAT     H219002   7.870   9.089   3.730
 6254WAT      O19003   6.292   4.994   2.802
 6254WAT     H119004   6.237   5.038   2.731
 6254WAT     H219005   6.264   5.029   2.892
 6255WAT      O19006   6.381   6.422   9.699
 6255WAT     H119007   6.474   6.451   9.679
 6255WAT     H219008   6.380   6.324   9.720
 6256WAT      O19009   5.609   9.073   2.106
 6256WAT     H119010   5.669   9.065   2.026
 6256WAT     H219011   5.664   9.084   2.188
 6257WAT      O19012   8.866   2.888   0.044
 6257WAT     H119013   8.897   2.951   0.116
 6257WAT     H219014   8.782   2.924   0.003
 6258WAT      O19015   6.861   7.384   0.779
 6258WAT     H119016   6.914   7.318   0.726
 6258WAT     H219017   6.806   7.439   0.716
 6259WAT      O19018   0.167   4.780   4.213
 6259WAT     H119019   0.265   4.795   4.199
 6259WAT     H219020   0.128   4.737   4.132
 6260WAT      O19021   9.505   3.200   2.253
 6260WAT     H119022   9.488   3.134   2.326
 6260WAT     H219023   9.565   3.273   2.288
 6261WAT      O19024   5.505   9.519   7.289
 6261WAT     H119025   5.547   9.533   7.379
 6261WAT     H219026   5.464   9.604   7.257
 6262WAT      O19027   3.993   7.715   7.351
 6262WAT     H119028   3.973   7.618   7.344
 6262WAT     H219029   3.987   7.743   7.447
 6263WAT      O19030   2.821   3.024   7.448
 6263WAT     H119031   2.841   3.065   7.537
 6263WAT     H219032   2.888   3.056   7.381
 6264WAT      O19033   0.717   1.348   9.564
 6264WAT     H119034   0.655   1.387   9.496
 6264WAT     H219035   0.762   1.421   9.614
 6265WAT      O19036   8.073   6.911   6.301
 6265WAT     H119037   8.015   6.938   6.378
 6265WAT     H219038   8.038   6.827   6.260
 6266WAT      O19039   6.626   4.294   3.610
 6266WAT     H119040   6.633   4.392   3.625
 6266WAT     H219041   6.558   4.255   3.673
 6267WAT      O19042   0.400   5.829   5.572
 6267WAT     H119043   0.480   5.807   5.516
 6267WAT     H219044   0.418   5.805   5.667
 6268WAT      O19045   4.043   7.546   3.803
 6268WAT     H119046   3.998   7.626   3.843
 6268WAT     H219047   3.974   7.489   3.757
 6269WAT      O19048   8.279   9.832   2.519
 6269WAT     H119049   8.342   9.798   2.448
 6269WAT     H219050   8.234   9.915   2.486
 6270WAT      O19051   2.503   0.125   7.199
 6270WAT     H119052   2.475   0.221   7.203
 6270WAT     H219053   2.589   0.114   7.249
 6271WAT      O19054   2.879   6.891   7.733
 6271WAT     H119055   2.961   6.947   7.737
 6271WAT     H219056   2.884   6.830   7.653
 6272WAT      O19057   4.548   1.490   7.247
 6272WAT     H119058   4.589   1.523   7.332
 6272WAT     H219059   4.580   1.397   7.228
 6273WAT      O19060   8.945   0.434   7.709
 6273WAT     H119061   8.864   0.396   7.664
 6273WAT     H219062   8.973   0.518   7.662
 6274WAT      O19063   4.102   4.855   2.998
 6274WAT     H119064   4.010   4.816   2.999
 6274WAT     H219065   4.144   4.842   3.088
 6275WAT      O19066   7.487   0.713   5.927
 6275WAT     H119067   7.445   0.803   5.916
 6275WAT     H219068   7.583   0.724   5.954
 6276WAT      O19069   1.875   2.330   7.672
 6276WAT     H119070   1.967   2.351   7.639
 6276WAT     H219071   1.867   2.357   7.768
 6277WAT      O19072   9.678   5.947   7.908
 6277WAT     H119073   9.654   5.860   7.865
 6277WAT     H219074   9.731   5.931   7.991
 6278WAT      O19075   0.317   3.375   2.089
 6278WAT     H119076   0.220   3.360   2.073
 6278WAT     H219077   0.351   3.306   2.153
 6279WAT      O19078   6.191   2.710   0.838
 6279WAT     H119079   6.260   2.647   0.801
 6279WAT     H219080   6.168   2.778   0.769
 6280WAT      O19081   1.301   7.017   8.459
 6280WAT     H119082   1.341   7.046   8.372
 6280WAT     H219083   1.261   6.926   8.449
 6281WAT      O19084   9.403   1.855   1.706
 6281WAT     H119085   9.386   1.771   1.654
 6281WAT     H219086   9.499   1.859   1.733
 6282WAT      O19087   7.220   1.419   5.914
 6282WAT     H119088   7.143   1.472   5.949
 6282WAT     H219089   7.256   1.462   5.831
 6283WAT      O19090   6.611   5.412   7.202
 6283WAT     H119091   6.543   5.341   7.186
 6283WAT     H219092   6.628   5.420   7.300
 6284WAT      O19093   3.027   3.452   8.482
 6284WAT     H119094   3.000   3.407   8.397
 6284WAT     H219095   2.946   3.490   8.527
 6285WAT      O19096   7.911   9.819   0.429
 6285WAT     H119097   7.823   9.851   0.464
 6285WAT     H219098   7.985   9.858   0.485
 6286WAT      O19099   7.226   2.827   9.082
 6286WAT     H119100   7.141   2.858   9.124
 6286WAT     H219101   7.207   2.748   9.023
 6287WAT      O19102   3.687   7.906   2.573
 6287WAT     H119103   3.618   7.977   2.561
 6287WAT     H219104   3.670   7.832   2.508
 6288WAT      O19105   1.004   2.427   2.385
 6288WAT     H119106   1.038   2.371   2.461
 6288WAT     H219107   0.949   2.502   2.421
 6289WAT      O19108   8.434   6.556   8.358
 6289WAT     H119109   8.417   6.636   8.300
 6289WAT     H219110   8.356   6.543   8.419
 6290WAT      O19111   8.786   7.525   1.621
 6290WAT     H119112   8.734   7.551   1.539
 6290WAT     H219113   8.723   7.495   1.692
 6291WAT      O19114   3.336   8.850   0.530
 6291WAT     H119115   3.299   8.917   0.595
 6291WAT     H219116   3.387   8.898   0.459
 6292WAT      O19117   4.386   4.469   6.769
 6292WAT     H119118   4.379   4.464   6.669
 6292WAT     H219119   4.455   4.404   6.801
 6293WAT      O19120   2.588   3.852   4.468
 6293WAT     H119121   2.657   3.808   4.525
 6293WAT     H219122   2.498   3.838   4.507
 6294WAT      O19123   9.851   0.386   4.957
 6294WAT     H119124   9.884   0.306   5.007
 6294WAT     H219125   9.789   0.439   5.015
 6295WAT      O19126   4.980   5.272   3.470
 6295WAT     H119127   4.885   5.249   3.449
 6295WAT     H219128   4.983   5.349   3.533
 6296WAT      O19129   8.225   4.988   9.553
 6296WAT     H119130   8.313   5.032   9.570
 6296WAT     H219131   8.152   5.047   9.585
 6297WAT      O19132   1.643   2.341   1.595
 6297WAT     H119133   1.576   2.288   1.646
 6297WAT     H219134   1.731   2.339   1.643
 6298WAT      O19135   2.435   3.837   0.978
 6298WAT     H119136   2.348   3.875   1.010
 6298WAT     H219137   2.453   3.871   0.886
 6299WAT      O19138   6.958   8.627   5.291
 6299WAT     H119139   6.874   8.653   5.245
 6299WAT     H219140   6.936   8.587   5.380
 6300WAT      O19141   5.234   1.209   5.604
 6300WAT     H119142   5.143   1.241   5.633
 6300WAT     H219143   5.297   1.214   5.681
 6301WAT      O19144   9.835   8.481   4.195
 6301WAT     H119145   9.878   8.459   4.107
 6301WAT     H219146   9.803   8.575   4.194
 6302WAT      O19147   6.576   3.899   1.536
 6302WAT     H119148   6.539   3.991   1.545
 6302WAT     H219149   6.508   3.832   1.565
 6303WAT      O19150   4.084   1.441   5.961
 6303WAT     H119151   4.136   1.526   5.955
 6303WAT     H219152   4.117   1.376   5.893
 6304WAT      O19153   1.241   5.359   8.629
 6304WAT     H119154   1.221   5.262   8.619
 6304WAT     H219155   1.163   5.413   8.599
 6305WAT      O19156   0.412   5.159   0.320
 6305WAT     H119157   0.441   5.208   0.403
 6305WAT     H219158   0.340   5.212   0.274
 6306WAT      O19159   0.096   9.543   2.401
 6306WAT     H119160   0.175   9.591   2.438
 6306WAT     H219161   0.120   9.447   2.384
 6307WAT      O19162   1.338   6.095   6.668
 6307WAT     H119163   1.261   6.145   6.707
 6307WAT     H219164   1.319   6.073   6.572
 6308WAT      O19165   5.497   7.756   5.163
 6308WAT     H119166   5.474   7.732   5.069
 6308WAT     H219167   5.490   7.855   5.175
 6309WAT      O19168   7.125   1.089   1.825
 6309WAT     H119169   7.144   1.088   1.923
 6309WAT     H219170   7.051   1.026   1.804
 6310WAT      O19171   2.505   3.492   5.515
 6310WAT     H119172   2.576   3.563   5.519
 6310WAT     H219173   2.549   3.403   5.502
 6311WAT      O19174   4.680   1.559   3.345
 6311WAT     H119175   4.771   1.569   3.305
 6311WAT     H219176   4.644   1.468   3.322
 6312WAT      O19177   0.202   5.302   0.213
 6312WAT     H119178   0.174   5.382   0.267
 6312WAT     H219179   0.121   5.249   0.189
 6313WAT      O19180   9.082   1.872   6.676
 6313WAT     H119181   9.159   1.936   6.677
 6313WAT     H219182   9.072   1.829   6.765
 6314WAT      O19183   6.043   1.443   4.440
 6314WAT     H119184   5.947   1.421   4.419
 6314WAT     H219185   6.067   1.530   4.396
 6315WAT      O19186   7.238   8.025   7.197
 6315WAT     H119187   7.229   8.115   7.155
 6315WAT     H219188   7.248   7.956   7.126
 6316WAT      O19189   0.737   3.256   9.485
 6316WAT     H119190   0.747   3.292   9.392
 6316WAT     H219191   0.692   3.324   9.542
 6317WAT      O19192   5.478   5.087   0.303
 6317WAT     H119193   5.460   5.052   0.211
 6317WAT     H219194   5.576   5.099   0.315
 6318WAT      O19195   9.067   2.791   1.573
 6318WAT     H119196   9.076   2.866   1.639
 6318WAT     H219197   8.971   2.762   1.569
 6319WAT      O19198   6.724   0.758   7.757
 6319WAT     H119199   6.785   0.789   7.685
 6319WAT     H219200   6.741   0.808   7.841
 6320WAT      O19201   3.130   8.065   2.654
 6320WAT     H119202   3.067   8.010   2.708
 6320WAT     H219203   3.184   8.005   2.595
 6321WAT      O19204   9.165   3.975   0.214
 6321WAT     H119205   9.175   4.055   0.155
 6321WAT     H219206   9.256   3.943   0.241
 6322WAT      O19207   3.298   5.879   3.712
 6322WAT     H119208   3.322   5.783   3.700
 6322WAT     H219209   3.322   5.908   3.804
 6323WAT      O19210   2.399   1.656   0.321
 6323WAT     H119211   2.314   1.652   0.269
 6323WAT     H219212   2.461   1.584   0.289
 6324WAT      O19213   3.457   7.722   9.345
 6324WAT     H119214   3.537   7.780   9.358
 6324WAT     H219215   3.375   7.772   9.376
 6325WAT      O19216   9.783   9.473   0.111
 6325WAT     H119217   9.703   9.503   0.163
 6325WAT     H219218   9.813   9.547   0.050
 6326WAT      O19219   4.717   5.463   0.074
 6326WAT     H119220   4.621   5.440   0.084
 6326WAT     H219221   4.770   5.419   0.146
 6327WAT      O19222   5.249   7.002   7.750
 6327WAT     H119223   5.170   7.049   7.709
 6327WAT     H219224   5.224   6.907   7.769
 6328WAT      O19225   5.562   3.444   4.320
 6328WAT     H119226   5.513   3.515   4.370
 6328WAT     H219227   5.607   3.383   4.386
 6329WAT      O19228   2.861   7.216   8.238
 6329WAT     H119229   2.951   7.205   8.278
 6329WAT     H219230   2.816   7.127   8.230
 6330WAT      O19231   6.949   8.762   0.674
 6330WAT     H119232   7.041   8.750   0.712
 6330WAT     H219233   6.925   8.859   0.674
 6331WAT      O19234   8.809   8.992   9.893
 6331WAT     H119235   8.771   9.045   9.817
 6331WAT     H219236   8.898   9.031   9.919
 6332WAT      O19237   2.726   9.547  -0.001
 6332WAT     H119238   2.669   9.466  -0.011
 6332WAT     H219239   2.796   9.530   0.068
 6333WAT      O19240   8.100   6.752   5.069
 6333WAT     H119241   8.192   6.760   5.109
 6333WAT     H219242   8.046   6.688   5.123
 6334WAT      O19243   3.518   0.296   7.032
 6334WAT     H119244   3.453   0.372   7.031
 6334WAT     H219245   3.579   0.304   6.953
 6335WAT      O19246   8.474   6.274   5.698
 6335WAT     H119247   8.477   6.364   5.741
 6335WAT     H219248   8.387   6.229   5.721
 6336WAT      O19249   3.157   0.920   2.373
 6336WAT     H119250   3.083   0.854   2.385
 6336WAT     H219251   3.119   1.010   2.352
 6337WAT      O19252   9.221   3.640   5.700
 6337WAT     H119253   9.283   3.717   5.686
 6337WAT     H219254   9.128   3.667   5.678
 6338WAT      O19255   1.477   5.722   0.504
 6338WAT     H119256   1.430   5.708   0.591
 6338WAT     H219257   1.468   5.818   0.477
 6339WAT      O19258   8.961   8.112   2.965
 6339WAT     H119259   9.048   8.148   2.998
 6339WAT     H219260   8.887   8.173   2.991
 6340WAT      O19261   7.502   9.796   8.992
 6340WAT     H119262   7.528   9.857   8.918
 6340WAT     H219263   7.560   9.815   9.072
 6341WAT      O19264   8.140   9.064   6.358
 6341WAT     H119265   8.083   9.056   6.276
 6341WAT     H219266   8.145   8.975   6.404
 6342WAT      O19267   1.228   1.182   2.234
 6342WAT     H119268   1.137   1.178   2.191
 6342WAT     H219269   1.298   1.169   2.164
 6343WAT      O19270   7.055   3.562   0.691
 6343WAT     H119271   6.955   3.558   0.695
 6343WAT     H219272   7.084   3.653   0.661
 6344WAT      O19273   5.135   4.636   8.177
 6344WAT     H119274   5.041   4.670   8.177
 6344WAT     H219275   5.196   4.710   8.204
 6345WAT      O19276   1.181   0.404   4.717
 6345WAT     H119277   1.154   0.309   4.703
 6345WAT     H219278   1.240   0.434   4.642
 6346WAT      O19279   2.194   4.471   6.588
 6346WAT     H119280   2.132   4.427   6.523
 6346WAT     H219281   2.149   4.549   6.630
 6347WAT      O19282   2.491   6.386   1.676
 6347WAT     H119283   2.465   6.387   1.772
 6347WAT     H219284   2.418   6.428   1.621
 6348WAT      O19285   5.791   5.414   8.297
 6348WAT     H119286   5.875   5.448   8.339
 6348WAT     H219287   5.717   5.417   8.364
 6349WAT      O19288   9.598   1.794   7.046
 6349WAT     H119289   9.626   1.865   6.982
 6349WAT     H219290   9.533   1.833   7.112
 6350WAT      O19291   0.086   5.188   2.339
 6350WAT     H119292   0.126   5.127   2.270
 6350WAT     H219293   0.002   5.146   2.375
 6351WAT      O19294   5.183   5.074   9.387
 6351WAT     H119295   5.265   5.035   9.428
 6351WAT     H219296   5.194   5.079   9.287
 6352WAT      O19297   5.978   8.467   9.314
 6352WAT     H119298   5.958   8.484   9.217
 6352WAT     H219299   5.909   8.405   9.352
 6353WAT      O19300   9.248   6.898   0.905
 6353WAT     H119301   9.247   6.878   0.807
 6353WAT     H219302   9.343   6.906   0.936
 6354WAT      O19303   5.979   2.461   7.130
 6354WAT     H119304   5.942   2.378   7.087
 6354WAT     H219305   5.909   2.502   7.189
 6355WAT      O19306   0.075   0.317   1.886
 6355WAT     H119307   0.070   0.222   1.917
 6355WAT     H219308   0.163   0.356   1.913
 6356WAT      O19309   0.208   1.577   1.501
 6356WAT     H119310   0.207   1.490   1.549
 6356WAT     H219311   0.302   1.610   1.493
 6357WAT      O19312   3.445   5.550   8.075
 6357WAT     H119313   3.467   5.645   8.097
 6357WAT     H219314   3.379   5.548   8.000
 6358WAT      O19315   0.819   0.446   2.861
 6358WAT     H119316   0.841   0.500   2.779
 6358WAT     H219317   0.720   0.448   2.877
 6359WAT      O19318   1.456   3.136   1.701
 6359WAT     H119319   1.412   3.195   1.634
 6359WAT     H219320   1.413   3.046   1.700
 6360WAT      O19321   6.886   1.030   5.991
 6360WAT     H119322   6.968   0.987   5.952
 6360WAT     H219323   6.906   1.124   6.016
 6361WAT      O19324   3.237   2.170   0.564
 6361WAT     H119325   3.256   2.151   0.660
 6361WAT     H219326   3.264   2.092   0.508
 6362WAT      O19327   2.974   6.465   2.805
 6362WAT     H119328   2.920   6.530   2.858
 6362WAT     H219329   3.067   6.500   2.795
 6363WAT      O19330   0.712   6.801   2.749
 6363WAT     H119331   0.636   6.857   2.781
 6363WAT     H219332   0.783   6.798   2.819
 6364WAT      O19333   8.232   2.885   9.244
 6364WAT     H119334   8.311   2.940   9.218
 6364WAT     H219335   8.231   2.873   9.343
 6365WAT      O19336   7.576   7.365   5.925
 6365WAT     H119337   7.652   7.337   5.866
 6365WAT     H219338   7.592   7.331   6.018
 6366WAT      O19339   0.364   3.126   0.989
 6366WAT     H119340   0.329   3.052   1.045
 6366WAT     H219341   0.457   3.149   1.018
 6367WAT      O19342   7.779   5.851   4.916
 6367WAT     H119343   7.730   5.809   4.992
 6367WAT     H219344   7.874   5.822   4.918
 6368WAT      O19345   2.507   3.010   1.218
 6368WAT     H119346   2.481   3.083   1.282
 6368WAT     H219347   2.567   2.945   1.264
 6369WAT      O19348   7.453   2.524   2.954
 6369WAT     H119349   7.429   2.481   3.042
 6369WAT     H219350   7.379   2.585   2.926
 6370WAT      O19351   5.182   9.601   7.850
 6370WAT     H119352   5.090   9.617   7.812
 6370WAT     H219353   5.216   9.512   7.819
 6371WAT      O19354   0.118   7.641   7.120
 6371WAT     H119355   0.143   7.718   7.177
 6371WAT     H219356   0.076   7.570   7.176
 6372WAT      O19357   1.328   2.892   9.307
 6372WAT     H119358   1.409   2.933   9.267
 6372WAT     H219359   1.354   2.819   9.370
 6373WAT      O19360   8.274   9.151   4.606
 6373WAT     H119361   8.294   9.199   4.520
 6373WAT     H219362   8.236   9.216   4.672
 6374WAT      O19363   0.493   8.768   3.394
 6374WAT     H119364   0.591   8.764   3.413
 6374WAT     H219365   0.443   8.783   3.479
 6375WAT      O19366   2.832   5.225   0.579
 6375WAT     H119367   2.860   5.198   0.671
 6375WAT     H219368   2.911   5.223   0.518
 6376WAT      O19369   1.050   4.643   1.691
 6376WAT     H119370   1.063   4.618   1.787
 6376WAT     H219371   0.991   4.575   1.647
 6377WAT      O19372   8.137   0.441   7.653
 6377WAT     H119373   8.115   0.377   7.727
 6377WAT     H219374   8.088   0.414   7.570
 6378WAT      O19375   2.265   0.092   3.252
 6378WAT     H119376   2.237   0.179   3.292
 6378WAT     H219377   2.363   0.092   3.235
 6379WAT      O19378   5.809   3.289   1.577
 6379WAT     H119379   5.710   3.291   1.584
 6379WAT     H219380   5.845   3.381   1.587
 6380WAT      O19381   7.491   5.635   6.993
 6380WAT     H119382   7.518   5.731   6.999
 6380WAT     H219383   7.543   5.582   7.061
 6381WAT      O19384   7.771   9.035   8.365
 6381WAT     H119385   7.723   8.976   8.301
 6381WAT     H219386   7.858   9.064   8.325
 6382WAT      O19387   8.609   4.137   6.985
 6382WAT     H119388   8.568   4.222   6.952
 6382WAT     H219389   8.668   4.099   6.914
 6383WAT      O19390   4.818   6.855   9.116
 6383WAT     H119391   4.744   6.903   9.164
 6383WAT     H219392   4.807   6.867   9.018
 6384WAT      O19393   4.560   5.029   5.548
 6384WAT     H119394   4.503   5.108   5.524
 6384WAT     H219395   4.505   4.946   5.545
 6385WAT      O19396   6.086   0.280   6.607
 6385WAT     H119397   6.139   0.204   6.571
 6385WAT     H219398   6.147   0.346   6.651
 6386WAT      O19399   9.275   1.515   8.587
 6386WAT     H119400   9.213   1.577   8.637
 6386WAT     H219401   9.249   1.421   8.605
 6387WAT      O19402   4.722   8.794   2.385
 6387WAT     H119403   4.763   8.859   2.321
 6387WAT     H219404   4.727   8.701   2.346
 6388WAT      O19405   4.144   9.389   3.154
 6388WAT     H119406   4.193   9.423   3.074
 6388WAT     H219407   4.053   9.356   3.126
 6389WAT      O19408   5.405   5.536   0.196
 6389WAT     H119409   5.439   5.473   0.126
 6389WAT     H219410   5.441   5.510   0.285
 6390WAT      O19411   0.742   5.323   8.753
 6390WAT     H119412   0.814   5.284   8.810
 6390WAT     H219413   0.754   5.422   8.747
 6391WAT      O19414   1.778   5.405   6.187
 6391WAT     H119415   1.708   5.470   6.218
 6391WAT     H219416   1.862   5.420   6.238
 6392WAT      O19417   6.087   6.336   9.637
 6392WAT     H119418   6.183   6.308   9.635
 6392WAT     H219419   6.075   6.419   9.583
 6393WAT      O19420   6.224   2.492   9.252
 6393WAT     H119421   6.138   2.508   9.301
 6393WAT     H219422   6.287   2.443   9.312
 6394WAT      O19423   5.423   2.504   2.119
 6394WAT     H119424   5.441   2.590   2.168
 6394WAT     H219425   5.482   2.500   2.038
 6395WAT      O19426   1.271   9.150   9.049
 6395WAT     H119427   1.197   9.108   9.103
 6395WAT     H219428   1.233   9.190   8.966
 6396WAT      O19429   3.680   8.272   8.586
 6396WAT     H119430   3.771   8.232   8.573
 6396WAT     H219431   3.623   8.253   8.507
 6397WAT      O19432   2.600   3.613   0.156
 6397WAT     H119433   2.608   3.676   0.234
 6397WAT     H219434   2.534   3.542   0.178
 6398WAT      O19435   0.683   0.653   2.107
 6398WAT     H119436   0.697   0.580   2.040
 6398WAT     H219437   0.593   0.644   2.148
 6399WAT      O19438   8.502   8.133   1.171
 6399WAT     H119439   8.407   8.103   1.156
 6399WAT     H219440   8.542   8.159   1.083
 6400WAT      O19441   1.891   4.552   8.776
 6400WAT     H119442   1.939   4.604   8.847
 6400WAT     H219443   1.852   4.616   8.710
 6401WAT      O19444   6.679   9.419   1.683
 6401WAT     H119445   6.666   9.510   1.645
 6401WAT     H219446   6.691   9.353   1.610
 6402WAT      O19447   9.379   8.406   3.460
 6402WAT     H119448   9.332   8.349   3.393
 6402WAT     H219449   9.313   8.450   3.519
 6403WAT      O19450   1.781   2.439   0.808
 6403WAT     H119451   1.732   2.514   0.763
 6403WAT     H219452   1.757   2.437   0.905
 6404WAT      O19453   1.137   0.270   6.977
 6404WAT     H119454   1.108   0.304   7.067
 6404WAT     H219455   1.216   0.322   6.945
 6405WAT      O19456   0.243   2.362   7.311
 6405WAT     H119457   0.160   2.307   7.318
 6405WAT     H219458   0.260   2.409   7.398
 6406WAT      O19459   5.975   0.533   2.626
 6406WAT     H119460   5.903   0.597   2.598
 6406WAT     H219461   6.064   0.579   2.621
 6407WAT      O19462   8.766   3.486   6.815
 6407WAT     H119463   8.679   3.475   6.863
 6407WAT     H219464   8.750   3.493   6.717
 6408WAT      O19465   1.531   4.269   7.105
 6408WAT     H119466   1.608   4.304   7.157
 6408WAT     H219467   1.565   4.226   7.021
 6409WAT      O19468   6.537   4.081   2.270
 6409WAT     H119469   6.598   4.011   2.307
 6409WAT     H219470   6.465   4.037   2.216
 6410WAT      O19471   3.165   6.660   8.538
 6410WAT     H119472   3.226   6.722   8.587
 6410WAT     H219473   3.072   6.695   8.541
 6411WAT      O19474   7.962   3.508   8.034
 6411WAT     H119475   8.025   3.585   8.023
 6411WAT     H219476   7.885   3.536   8.091
 6412WAT      O19477   2.581   0.215   8.258
 6412WAT     H119478   2.604   0.132   8.206
 6412WAT     H219479   2.661   0.275   8.261
 6413WAT      O19480   1.981   9.239   8.173
 6413WAT     H119481   2.012   9.315   8.230
 6413WAT     H219482   1.909   9.270   8.111
 6414WAT      O19483   6.088   2.658   1.624
 6414WAT     H119484   6.070   2.711   1.707
 6414WAT     H219485   6.008   2.662   1.564
 6415WAT      O19486   6.684   6.303   6.069
 6415WAT     H119487   6.623   6.350   6.133
 6415WAT     H219488   6.635   6.230   6.023
 6416WAT      O19489   7.976   0.154   6.794
 6416WAT     H119490   7.942   0.174   6.701
 6416WAT     H219491   8.030   0.070   6.792
 6417WAT      O19492   8.685   8.057   8.697
 6417WAT     H119493   8.597   8.075   8.742
 6417WAT     H219494   8.681   8.087   8.602
 6418WAT      O19495   6.178   2.925   6.043
 6418WAT     H119496   6.105   2.889   6.100
 6418WAT     H219497   6.196   2.861   5.968
 6419WAT      O19498   5.276   7.688   1.856
 6419WAT     H119499   5.333   7.685   1.774
 6419WAT     H219500   5.231   7.599   1.868
 6420WAT      O19501   0.477   8.561   2.561
 6420WAT     H119502   0.495   8.597   2.469
 6420WAT     H219503   0.379   8.557   2.577
 6421WAT      O19504   1.339   3.902   1.956
 6421WAT     H119505   1.259   3.931   2.009
 6421WAT     H219506   1.320   3.814   1.913
 6422WAT      O19507   1.048   4.096   5.323
 6422WAT     H119508   0.952   4.072   5.337
 6422WAT     H219509   1.106   4.019   5.349
 6423WAT      O19510   0.377   2.920   1.161
 6423WAT     H119511   0.461   2.892   1.207
 6423WAT     H219512   0.328   2.838   1.129
 6424WAT      O19513   5.448   3.929   4.907
 6424WAT     H119514   5.478   3.870   4.832
 6424WAT     H219515   5.516   4.001   4.922
 6425WAT      O19516   4.055   7.135   1.666
 6425WAT     H119517   4.034   7.228   1.635
 6425WAT     H219518   3.972   7.079   1.662
 6426WAT      O19519   8.300   0.616   0.188
 6426WAT     H119520   8.239   0.540   0.165
 6426WAT     H219521   8.374   0.620   0.120
 6427WAT      O19522   8.475   3.063   9.659
 6427WAT     H119523   8.544   2.998   9.690
 6427WAT     H219524   8.387   3.040   9.701
 6428WAT      O19525   4.730   4.034   9.028
 6428WAT     H119526   4.683   3.997   9.108
 6428WAT     H219527   4.663   4.049   8.954
 6429WAT      O19528   3.391   5.159   3.306
 6429WAT     H119529   3.318   5.092   3.316
 6429WAT     H219530   3.459   5.125   3.241
 6430WAT      O19531   5.429   2.222   3.951
 6430WAT     H119532   5.478   2.285   3.890
 6430WAT     H219533   5.447   2.246   4.046
 6431WAT      O19534   3.032   8.732   8.611
 6431WAT     H119535   3.067   8.751   8.519
 6431WAT     H219536   3.009   8.635   8.618
 6432WAT      O19537   6.984   3.503   5.335
 6432WAT     H119538   7.069   3.468   5.296
 6432WAT     H219539   7.002   3.546   5.424
 6433WAT      O19540   4.651   7.416   0.825
 6433WAT     H119541   4.588   7.491   0.845
 6433WAT     H219542   4.610   7.353   0.759
 6434WAT      O19543   8.690   5.520   0.565
 6434WAT     H119544   8.677   5.425   0.594
 6434WAT     H219545   8.787   5.537   0.549
 6435WAT      O19546   0.632   2.054   4.533
 6435WAT     H119547   0.608   1.989   4.461
 6435WAT     H219548   0.669   2.137   4.491
 6436WAT      O19549   4.421   6.984   5.718
 6436WAT     H119550   4.445   7.080   5.699
 6436WAT     H219551   4.486   6.947   5.785
 6437WAT      O19552   0.115   5.561   8.285
 6437WAT     H119553   0.207   5.523   8.294
 6437WAT     H219554   0.102   5.632   8.354
 6438WAT      O19555   3.717   4.839   1.536
 6438WAT     H119556   3.793   4.777   1.518
 6438WAT     H219557   3.632   4.798   1.505
 6439WAT      O19558   0.878   5.938   2.980
 6439WAT     H119559   0.951   6.006   2.970
 6439WAT     H219560   0.885   5.871   2.906
 6440WAT      O19561   0.422   5.493   3.609
 6440WAT     H119562   0.422   5.414   3.670
 6440WAT     H219563   0.389   5.464   3.519
 6441WAT      O19564   9.720   5.644   4.806
 6441WAT     H119565   9.789   5.687   4.749
 6441WAT     H219566   9.664   5.715   4.850
 6442WAT      O19567   5.074   1.479   1.067
 6442WAT     H119568   5.128   1.448   1.146
 6442WAT     H219569   4.994   1.530   1.099
 6443WAT      O19570   2.522   2.157   9.288
 6443WAT     H119571   2.550   2.230   9.350
 6443WAT     H219572   2.567   2.072   9.315
 6444WAT      O19573   6.681   2.623   8.933
 6444WAT     H119574   6.718   2.531   8.943
 6444WAT     H219575   6.754   2.691   8.941
 6445WAT      O19576   2.944   7.639   4.211
 6445WAT     H119577   2.995   7.561   4.248
 6445WAT     H219578   2.869   7.605   4.154
 6446WAT      O19579   8.894   0.558   8.634
 6446WAT     H119580   8.856   0.640   8.591
 6446WAT     H219581   8.909   0.487   8.565
 6447WAT      O19582   9.200   0.853   8.904
 6447WAT     H119583   9.258   0.809   8.972
 6447WAT     H219584   9.206   0.952   8.914
 6448WAT      O19585   9.361   2.378   5.121
 6448WAT     H119586   9.381   2.284   5.093
 6448WAT     H219587   9.447   2.424   5.145
 6449WAT      O19588   0.286   0.251   4.062
 6449WAT     H119589   0.378   0.224   4.033
 6449WAT     H219590   0.257   0.194   4.139
 6450WAT      O19591   7.161   4.106   7.369
 6450WAT     H119592   7.244   4.118   7.316
 6450WAT     H219593   7.104   4.188   7.361
 6451WAT      O19594   9.487   8.491   1.191
 6451WAT     H119595   9.404   8.528   1.233
 6451WAT     H219596   9.465   8.455   1.100
 6452WAT      O19597   4.131   0.422   2.312
 6452WAT     H119598   4.171   0.348   2.257
 6452WAT     H219599   4.073   0.383   2.383
 6453WAT      O19600   7.972   2.570   5.955
 6453WAT     H119601   7.959   2.477   5.989
 6453WAT     H219602   7.966   2.570   5.855
 6454WAT      O19603   5.928   7.282   8.978
 6454WAT     H119604   5.975   7.335   8.906
 6454WAT     H219605   5.915   7.340   9.058
 6455WAT      O19606   2.372   5.432   0.249
 6455WAT     H119607   2.438   5.435   0.174
 6455WAT     H219608   2.292   5.488   0.225
 6456WAT      O19609   6.035   3.061   3.319
 6456WAT     H119610   6.077   3.132   3.262
 6456WAT     H219611   6.056   2.971   3.280
 6457WAT      O19612   3.693   5.903   9.491
 6457WAT     H119613   3.733   5.857   9.570
 6457WAT     H219614   3.635   5.979   9.522
 6458WAT      O19615   9.296   9.533   5.700
 6458WAT     H119616   9.388   9.557   5.730
 6458WAT     H219617   9.289   9.541   5.601
 6459WAT      O19618   2.486   1.913   6.941
 6459WAT     H119619   2.506   1.890   6.846
 6459WAT     H219620   2.571   1.934   6.989
 6460WAT      O19621   1.649   1.951   1.786
 6460WAT     H119622   1.647   1.908   1.696
 6460WAT     H219623   1.632   1.881   1.856
 6461WAT      O19624   6.006   2.520   3.433
 6461WAT     H119625   6.078   2.488   3.372
 6461WAT     H219626   5.917   2.503   3.391
 6462WAT      O19627   1.429   5.081   5.931
 6462WAT     H119628   1.512   5.028   5.911
 6462WAT     H219629   1.389   5.048   6.017
 6463WAT      O19630   5.377   5.687   8.386
 6463WAT     H119631   5.476   5.690   8.405
 6463WAT     H219632   5.363   5.673   8.288
 6464WAT      O19633   6.656   7.140   9.360
 6464WAT     H119634   6.739   7.159   9.307
 6464WAT     H219635   6.594   7.219   9.354
 6465WAT      O19636   0.411   7.758   9.665
 6465WAT     H119637   0.418   7.852   9.699
 6465WAT     H219638   0.347   7.755   9.589
 6466WAT      O19639   5.807   8.269   9.425
 6466WAT     H119640   5.832   8.218   9.342
 6466WAT     H219641   5.866   8.240   9.500
 6467WAT      O19642   9.553   2.691   5.329
 6467WAT     H119643   9.589   2.626   5.262
 6467WAT     H219644   9.502   2.642   5.399
 6468WAT      O19645   1.010   1.707   9.111
 6468WAT     H119646   1.036   1.795   9.071
 6468WAT     H219647   1.092   1.655   9.134
 6469WAT      O19648   8.925   3.777   1.480
 6469WAT     H119649   8.927   3.706   1.409
 6469WAT     H219650   8.874   3.744   1.559
 6470WAT      O19651   3.012   6.802   1.952
 6470WAT     H119652   3.031   6.852   1.868
 6470WAT     H219653   3.097   6.763   1.988
 6471WAT      O19654   8.529   0.405   8.260
 6471WAT     H119655   8.539   0.470   8.186
 6471WAT     H219656   8.564   0.316   8.232
 6472WAT      O19657   3.916   5.048   1.955
 6472WAT     H119658   3.929   5.043   1.856
 6472WAT     H219659   3.820   5.028   1.977
 6473WAT      O19660   4.116   6.639   3.133
 6473WAT     H119661   4.020   6.655   3.160
 6473WAT     H219662   4.132   6.676   3.042
 6474WAT      O19663   2.411   8.715   7.044
 6474WAT     H119664   2.330   8.702   7.102
 6474WAT     H219665   2.404   8.657   6.963
 6475WAT      O19666   6.685   2.792   1.245
 6475WAT     H119667   6.783   2.804   1.257
 6475WAT     H219668   6.652   2.853   1.174
 6476WAT      O19669   6.535   2.008   3.639
 6476WAT     H119670   6.479   2.090   3.624
 6476WAT     H219671   6.565   1.972   3.550
 6477WAT      O19672   4.435   8.226   3.270
 6477WAT     H119673   4.514   8.215   3.209
 6477WAT     H219674   4.458   8.191   3.361
 6478WAT      O19675   8.168   0.748   1.096
 6478WAT     H119676   8.146   0.793   1.010
 6478WAT     H219677   8.252   0.694   1.085
 6479WAT      O19678   6.663   6.135   4.154
 6479WAT     H119679   6.727   6.059   4.139
 6479WAT     H219680   6.694   6.189   4.233
 6480WAT      O19681   7.550   5.137   8.221
 6480WAT     H119682   7.452   5.119   8.226
 6480WAT     H219683   7.593   5.110   8.308
 6481WAT      O19684   5.130   2.106   0.037
 6481WAT     H119685   5.177   2.126   0.123
 6481WAT     H219686   5.181   2.146  -0.040
 6482WAT      O19687   4.750   6.861   8.859
 6482WAT     H119688   4.798   6.868   8.772
 6482WAT     H219689   4.688   6.939   8.869
 6483WAT      O19690   2.646   9.059   0.558
 6483WAT     H119691   2.744   9.074   0.541
 6483WAT     H219692   2.594   9.090   0.479
 6484WAT      O19693   1.215   6.393   8.499
 6484WAT     H119694   1.199   6.309   8.446
 6484WAT     H219695   1.298   6.438   8.464
 6485WAT      O19696   1.241   7.677   8.411
 6485WAT     H119697   1.150   7.671   8.370
 6485WAT     H219698   1.263   7.773   8.430
 6486WAT      O19699   6.481   2.829   0.385
 6486WAT     H119700   6.571   2.858   0.353
 6486WAT     H219701   6.462   2.737   0.351
 6487WAT      O19702   3.865   2.609   8.807
 6487WAT     H119703   3.803   2.555   8.863
 6487WAT     H219704   3.930   2.657   8.866
 6488WAT      O19705   4.557   0.217   3.482
 6488WAT     H119706   4.636   0.179   3.433
 6488WAT     H219707   4.520   0.147   3.544
 6489WAT      O19708   6.717   2.635   3.399
 6489WAT     H119709   6.689   2.657   3.493
 6489WAT     H219710   6.681   2.704   3.337
 6490WAT      O19711   3.252   0.747   6.677
 6490WAT     H119712   3.306   0.703   6.605
 6490WAT     H219713   3.202   0.824   6.639
 6491WAT      O19714   7.858   9.650   2.289
 6491WAT     H119715   7.808   9.590   2.353
 6491WAT     H219716   7.795   9.681   2.218
 6492WAT      O19717   5.980   9.040   5.576
 6492WAT     H119718   5.949   8.966   5.635
 6492WAT     H219719   5.917   9.118   5.584
 6493WAT      O19720   4.644   8.247   4.551
 6493WAT     H119721   4.650   8.302   4.634
 6493WAT     H219722   4.614   8.304   4.475
 6494WAT      O19723   9.202   1.892   8.354
 6494WAT     H119724   9.274   1.883   8.423
 6494WAT     H219725   9.157   1.981   8.363
 6495WAT      O19726   6.988   5.821   9.677
 6495WAT     H119727   6.898   5.848   9.643
 6495WAT     H219728   7.014   5.733   9.636
 6496WAT      O19729   4.515   7.627   0.906
 6496WAT     H119730   4.521   7.643   1.004
 6496WAT     H219731   4.433   7.670   0.870
 6497WAT      O19732   1.773   0.572   6.017
 6497WAT     H119733   1.763   0.473   6.019
 6497WAT     H219734   1.712   0.610   5.947
 6498WAT      O19735   5.530   8.606   6.414
 6498WAT     H119736   5.431   8.615   6.397
 6498WAT     H219737   5.553   8.509   6.423
 6499WAT      O19738   4.807   5.019   3.599
 6499WAT     H119739   4.883   4.972   3.553
 6499WAT     H219740   4.748   5.061   3.530
 6500WAT      O19741   9.861   3.318   0.259
 6500WAT     H119742   9.902   3.394   0.310
 6500WAT     H219743   9.916   3.299   0.178
 6501WAT      O19744   8.577   5.656   6.664
 6501WAT     H119745   8.634   5.733   6.635
 6501WAT     H219746   8.481   5.683   6.659
 6502WAT      O19747   1.086   8.927   7.420
 6502WAT     H119748   1.167   8.973   7.384
 6502WAT     H219749   1.014   8.995   7.436
 6503WAT      O19750   1.568   9.314   0.497
 6503WAT     H119751   1.469   9.331   0.496
 6503WAT     H219752   1.600   9.314   0.591
 6504WAT      O19753   2.570   2.916   6.266
 6504WAT     H119754   2.557   2.989   6.199
 6504WAT     H219755   2.625   2.950   6.342
 6505WAT      O19756   6.945   1.165   4.635
 6505WAT     H119757   6.862   1.109   4.644
 6505WAT     H219758   6.952   1.226   4.714
 6506WAT      O19759   5.421   6.195   0.700
 6506WAT     H119760   5.400   6.283   0.660
 6506WAT     H219761   5.353   6.128   0.672
 6507WAT      O19762   1.981   2.554   6.626
 6507WAT     H119763   1.921   2.500   6.685
 6507WAT     H219764   2.046   2.493   6.581
 6508WAT      O19765   8.048   8.003   9.345
 6508WAT     H119766   8.125   8.052   9.304
 6508WAT     H219767   7.967   8.063   9.345
 6509WAT      O19768   4.897   6.528   5.960
 6509WAT     H119769   4.895   6.445   6.016
 6509WAT     H219770   4.915   6.607   6.018
 6510WAT      O19771   5.711   1.092   9.579
 6510WAT     H119772   5.731   1.015   9.519
 6510WAT     H219773   5.789   1.110   9.638
 6511WAT      O19774   5.674   3.796   5.966
 6511WAT     H119775   5.631   3.810   5.877
 6511WAT     H219776   5.759   3.745   5.955
 6512WAT      O19777   8.696   8.739   8.159
 6512WAT     H119778   8.739   8.826   8.137
 6512WAT     H219779   8.610   8.756   8.207
 6513WAT      O19780   3.931   4.857   6.714
 6513WAT     H119781   4.002   4.894   6.773
 6513WAT     H219782   3.965   4.777   6.664
 6514WAT      O19783   1.972   3.643   1.674
 6514WAT     H119784   2.044   3.587   1.715
 6514WAT     H219785   1.891   3.641   1.733
 6515WAT      O19786   6.614   5.825   0.612
 6515WAT     H119787   6.610   5.784   0.703
 6515WAT     H219788   6.579   5.919   0.616
 6516WAT      O19789   8.500   2.768   1.686
 6516WAT     H119790   8.578   2.789   1.746
 6516WAT     H219791   8.451   2.852   1.664
 6517WAT      O19792   0.833   0.536   0.511
 6517WAT     H119793   0.826   0.622   0.562
 6517WAT     H219794   0.750   0.482   0.526
 6518WAT      O19795   1.455   8.260   5.307
 6518WAT     H119796   1.473   8.184   5.369
 6518WAT     H219797   1.359   8.287   5.313
 6519WAT      O19798   1.848   8.556   5.195
 6519WAT     H119799   1.855   8.650   5.162
 6519WAT     H219800   1.851   8.554   5.295
 6520WAT      O19801   3.862   8.510   2.571
 6520WAT     H119802   3.907   8.423   2.588
 6520WAT     H219803   3.794   8.527   2.642
 6521WAT      O19804   5.517   7.489   6.895
 6521WAT     H119805   5.499   7.562   6.829
 6521WAT     H219806   5.565   7.526   6.975
 6522WAT      O19807   1.761   6.977   4.758
 6522WAT     H119808   1.835   6.948   4.698
 6522WAT     H219809   1.799   7.017   4.841
 6523WAT      O19810   8.378   5.833   1.933
 6523WAT     H119811   8.468   5.821   1.976
 6523WAT     H219812   8.384   5.804   1.837
 6524WAT      O19813   3.663   3.002   7.090
 6524WAT     H119814   3.648   3.098   7.114
 6524WAT     H219815   3.757   2.976   7.112
 6525WAT      O19816   0.986   0.242   2.132
 6525WAT     H119817   0.970   0.315   2.066
 6525WAT     H219818   1.079   0.250   2.168
 6526WAT      O19819   8.912   1.502   1.422
 6526WAT     H119820   8.859   1.428   1.463
 6526WAT     H219821   9.006   1.497   1.454
 6527WAT      O19822   0.646   1.014   7.698
 6527WAT     H119823   0.554   0.975   7.709
 6527WAT     H219824   0.715   0.944   7.714
 6528WAT      O19825   9.317   1.897   9.132
 6528WAT     H119826   9.301   1.938   9.042
 6528WAT     H219827   9.244   1.924   9.194
 6529WAT      O19828   1.368   9.816   8.397
 6529WAT     H119829   1.275   9.828   8.365
 6529WAT     H219830   1.371   9.830   8.496
 6530WAT      O19831   2.692   9.208   7.958
 6530WAT     H119832   2.626   9.282   7.970
 6530WAT     H219833   2.645   9.120   7.962
 6531WAT      O19834   8.160   4.753   9.577
 6531WAT     H119835   8.190   4.847   9.565
 6531WAT     H219836   8.075   4.751   9.630
 6532WAT      O19837   2.410   1.672   9.446
 6532WAT     H119838   2.408   1.772   9.441
 6532WAT     H219839   2.421   1.635   9.354
 6533WAT      O19840   4.476   4.821   8.873
 6533WAT     H119841   4.482   4.870   8.960
 6533WAT     H219842   4.383   4.784   8.861
 6534WAT      O19843   2.021   7.127   1.278
 6534WAT     H119844   1.942   7.107   1.336
 6534WAT     H219845   2.067   7.209   1.311
 6535WAT      O19846   9.450   0.802   1.172
 6535WAT     H119847   9.529   0.809   1.111
 6535WAT     H219848   9.481   0.808   1.267
 6536WAT      O19849   1.272   8.504   7.414
 6536WAT     H119850   1.286   8.603   7.410
 6536WAT     H219851   1.355   8.460   7.448
 6537WAT      O19852   5.950   8.693   7.534
 6537WAT     H119853   5.861   8.707   7.579
 6537WAT     H219854   5.981   8.780   7.495
 6538WAT      O19855   2.844   0.969   8.955
 6538WAT     H119856   2.811   0.898   8.892
 6538WAT     H219857   2.784   1.049   8.950
 6539WAT      O19858   7.298   1.370   0.474
 6539WAT     H119859   7.208   1.335   0.502
 6539WAT     H219860   7.351   1.392   0.556
 6540WAT      O19861   6.839   4.258   0.764
 6540WAT     H119862   6.893   4.263   0.848
 6540WAT     H219863   6.896   4.224   0.689
 6541WAT      O19864   4.651   8.474   6.643
 6541WAT     H119865   4.655   8.506   6.737
 6541WAT     H219866   4.706   8.534   6.584
 6542WAT      O19867   0.244   5.136   3.561
 6542WAT     H119868   0.301   5.139   3.478
 6542WAT     H219869   0.162   5.192   3.547
 6543WAT      O19870   8.762   9.633   2.144
 6543WAT     H119871   8.772   9.668   2.237
 6543WAT     H219872   8.845   9.655   2.092
 6544WAT      O19873   2.878   4.851   8.538
 6544WAT     H119874   2.916   4.915   8.605
 6544WAT     H219875   2.804   4.799   8.580
 6545WAT      O19876   8.680   1.924   5.213
 6545WAT     H119877   8.682   2.007   5.267
 6545WAT     H219878   8.770   1.909   5.171
 6546WAT      O19879   1.335   6.841   3.730
 6546WAT     H119880   1.262   6.864   3.794
 6546WAT     H219881   1.295   6.805   3.646
 6547WAT      O19882   8.893   6.208   4.617
 6547WAT     H119883   8.831   6.133   4.641
 6547WAT     H219884   8.864   6.292   4.664
 6548WAT      O19885   0.207   5.862   2.244
 6548WAT     H119886   0.284   5.882   2.305
 6548WAT     H219887   0.206   5.927   2.168
 6549WAT      O19888   5.392   8.132   8.700
 6549WAT     H119889   5.452   8.062   8.660
 6549WAT     H219890   5.333   8.169   8.628
 6550WAT      O19891   2.657   6.835   6.779
 6550WAT     H119892   2.676   6.777   6.700
 6550WAT     H219893   2.564   6.818   6.811
 6551WAT      O19894   8.544   8.832   9.061
 6551WAT     H119895   8.620   8.817   9.125
 6551WAT     H219896   8.581   8.842   8.968
 6552WAT      O19897   4.676   5.768   2.534
 6552WAT     H119898   4.735   5.698   2.493
 6552WAT     H219899   4.585   5.764   2.493
 6553WAT      O19900   8.763   4.593   4.984
 6553WAT     H119901   8.807   4.670   4.940
 6553WAT     H219902   8.765   4.513   4.924
 6554WAT      O19903   6.753   7.779   6.334
 6554WAT     H119904   6.675   7.748   6.281
 6554WAT     H219905   6.828   7.712   6.326
 6555WAT      O19906   7.098   1.706   1.722
 6555WAT     H119907   7.169   1.660   1.670
 6555WAT     H219908   7.069   1.789   1.674
 6556WAT      O19909   9.126   0.104   9.658
 6556WAT     H119910   9.138   0.021   9.713
 6556WAT     H219911   9.093   0.078   9.567
 6557WAT      O19912   7.398   0.377   3.300
 6557WAT     H119913   7.453   0.325   3.235
 6557WAT     H219914   7.301   0.368   3.276
 6558WAT      O19915   5.134   9.062   2.878
 6558WAT     H119916   5.152   8.963   2.877
 6558WAT     H219917   5.210   9.110   2.836
 6559WAT      O19918   0.890   4.852   9.879
 6559WAT     H119919   0.904   4.846   9.780
 6559WAT     H219920   0.968   4.900   9.920
 6560WAT      O19921   1.339   8.522   9.778
 6560WAT     H119922   1.333   8.543   9.681
 6560WAT     H219923   1.426   8.477   9.797
 6561WAT      O19924   6.407   4.236   3.755
 6561WAT     H119925   6.329   4.190   3.713
 6561WAT     H219926   6.432   4.188   3.839
 6562WAT      O19927   1.700   9.690   7.318
 6562WAT     H119928   1.732   9.715   7.410
 6562WAT     H219929   1.601   9.707   7.312
 6563WAT      O19930   9.247   9.771   5.067
 6563WAT     H119931   9.300   9.796   4.986
 6563WAT     H219932   9.160   9.729   5.039
 6564WAT      O19933   9.659   2.079   4.998
 6564WAT     H119934   9.703   2.145   5.059
 6564WAT     H219935   9.693   1.987   5.017
 6565WAT      O19936   2.681   9.473   6.641
 6565WAT     H119937   2.778   9.488   6.656
 6565WAT     H219938   2.638   9.557   6.609
 6566WAT      O19939   0.974   0.427   6.825
 6566WAT     H119940   0.966   0.496   6.897
 6566WAT     H219941   1.037   0.355   6.854
 6567WAT      O19942   4.117   9.719   7.828
 6567WAT     H119943   4.127   9.700   7.731
 6567WAT     H219944   4.113   9.633   7.879
 6568WAT      O19945   6.300   6.438   8.946
 6568WAT     H119946   6.241   6.515   8.967
 6568WAT     H219947   6.250   6.352   8.957
 6569WAT      O19948   0.896   3.866   9.561
 6569WAT     H119949   0.819   3.877   9.624
 6569WAT     H219950   0.941   3.778   9.579
 6570WAT      O19951   4.047   6.379   3.102
 6570WAT     H119952   4.048   6.341   3.009
 6570WAT     H219953   4.091   6.469   3.102
 6571WAT      O19954   3.892   0.111   3.016
 6571WAT     H119955   3.894   0.064   3.104
 6571WAT     H219956   3.930   0.203   3.026
 6572WAT      O19957   6.353   2.947   3.494
 6572WAT     H119958   6.400   3.020   3.543
 6572WAT     H219959   6.332   2.872   3.557
 6573WAT      O19960   2.461   3.971   6.398
 6573WAT     H119961   2.458   4.056   6.450
 6573WAT     H219962   2.555   3.937   6.394
 6574WAT      O19963   8.232   2.029   7.082
 6574WAT     H119964   8.222   1.984   6.993
 6574WAT     H219965   8.149   2.080   7.103
 6575WAT      O19966   3.918   6.692   4.589
 6575WAT     H119967   3.824   6.692   4.553
 6575WAT     H219968   3.982   6.704   4.514
 6576WAT      O19969   2.707   5.652   2.461
 6576WAT     H119970   2.610   5.649   2.436
 6576WAT     H219971   2.750   5.565   2.437
 6577WAT      O19972   8.984   1.359   9.766
 6577WAT     H119973   8.968   1.271   9.812
 6577WAT     H219974   8.900   1.413   9.767
 6578WAT      O19975   8.547   7.504   3.154
 6578WAT     H119976   8.622   7.539   3.097
 6578WAT     H219977   8.512   7.419   3.114
 6579WAT      O19978   2.997   9.031   0.886
 6579WAT     H119979   3.006   8.974   0.968
 6579WAT     H219980   2.909   9.078   0.888
 6580WAT      O19981   7.701   3.203   9.603
 6580WAT     H119982   7.671   3.298   9.606
 6580WAT     H219983   7.752   3.182   9.687
 6581WAT      O19984   3.645   5.375   0.289
 6581WAT     H119985   3.620   5.416   0.377
 6581WAT     H219986   3.735   5.408   0.261
 6582WAT      O19987   1.655   3.033   4.279
 6582WAT     H119988   1.636   3.024   4.377
 6582WAT     H219989   1.624   3.122   4.247
 6583WAT      O19990   0.783   1.576   6.579
 6583WAT     H119991   0.862   1.638   6.580
 6583WAT     H219992   0.765   1.547   6.485
 6584WAT      O19993   4.890   3.908   5.969
 6584WAT     H119994   4.805   3.877   5.926
 6584WAT     H219995   4.877   4.001   6.003
 6585WAT      O19996   0.957   3.759   5.535
 6585WAT     H119997   1.040   3.792   5.489
 6585WAT     H219998   0.931   3.671   5.496
 6586WAT      O19999   0.308   6.546   8.243
 6586WAT     H120000   0.290   6.460   8.292
 6586WAT     H220001   0.240   6.556   8.170
 6587WAT      O20002   6.952   3.438   6.203
 6587WAT     H120003   6.895   3.396   6.131
 6587WAT     H220004   7.033   3.382   6.218
 6588WAT      O20005   5.750   7.873   4.545
 6588WAT     H120006   5.815   7.809   4.503
 6588WAT     H220007   5.669   7.823   4.575
 6589WAT      O20008   4.026   9.520   6.418
 6589WAT     H120009   3.931   9.503   6.446
 6589WAT     H220010   4.027   9.567   6.330
 6590WAT      O20011   3.655   5.691   1.048
 6590WAT     H120012   3.601   5.704   0.965
 6590WAT     H220013   3.593   5.686   1.127
 6591WAT      O20014   2.689   2.994   0.025
 6591WAT     H120015   2.697   3.088   0.058
 6591WAT     H220016   2.607   2.952   0.062
 6592WAT      O20017   5.159   3.068   7.003
 6592WAT     H120018   5.251   3.060   7.042
 6592WAT     H220019   5.096   3.009   7.053
 6593WAT      O20020   8.301   3.756   0.411
 6593WAT     H120021   8.356   3.678   0.383
 6593WAT     H220022   8.260   3.799   0.330
 6594WAT      O20023   4.439   8.056   9.618
 6594WAT     H120024   4.389   8.142   9.624
 6594WAT     H220025   4.464   8.037   9.523
 6595WAT      O20026   6.402   2.914   0.623
 6595WAT     H120027   6.426   2.855   0.546
 6595WAT     H220028   6.407   2.860   0.708
 6596WAT      O20029   3.492   6.745   1.635
 6596WAT     H120030   3.517   6.740   1.731
 6596WAT     H220031   3.458   6.836   1.613
 6597WAT      O20032   4.378   8.230   5.387
 6597WAT     H120033   4.328   8.314   5.369
 6597WAT     H220034   4.475   8.244   5.370
 6598WAT      O20035   5.150   5.889   3.157
 6598WAT     H120036   5.169   5.865   3.062
 6598WAT     H220037   5.224   5.856   3.215
 6599WAT      O20038   7.167   8.243   8.727
 6599WAT     H120039   7.103   8.166   8.732
 6599WAT     H220040   7.142   8.311   8.797
 6600WAT      O20041   2.010   3.928   3.633
 6600WAT     H120042   2.038   3.923   3.729
 6600WAT     H220043   2.091   3.939   3.575
 6601WAT      O20044   1.541   5.429   0.959
 6601WAT     H120045   1.511   5.428   0.863
 6601WAT     H220046   1.478   5.375   1.014
 6602WAT      O20047   6.958   0.412   4.418
 6602WAT     H120048   7.034   0.462   4.460
 6602WAT     H220049   6.886   0.477   4.392
 6603WAT      O20050   2.902   5.506   5.867
 6603WAT     H120051   2.938   5.574   5.931
 6603WAT     H220052   2.874   5.552   5.782
 6604WAT      O20053   6.715   2.185   3.733
 6604WAT     H120054   6.750   2.225   3.649
 6604WAT     H220055   6.640   2.122   3.711
 6605WAT      O20056   1.602   7.810   8.217
 6605WAT     H120057   1.605   7.766   8.306
 6605WAT     H220058   1.695   7.822   8.182
 6606WAT      O20059   2.776   2.564   0.940
 6606WAT     H120060   2.807   2.658   0.922
 6606WAT     H220061   2.855   2.504   0.947
 6607WAT      O20062   5.273   5.607   8.110
 6607WAT     H120063   5.269   5.509   8.092
 6607WAT     H220064   5.182   5.647   8.097
 6608WAT      O20065   4.566   7.761   4.644
 6608WAT     H120066   4.524   7.735   4.731
 6608WAT     H220067   4.553   7.688   4.577
 6609WAT      O20068   9.578   2.448   9.877
 6609WAT     H120069   9.483   2.458   9.906
 6609WAT     H220070   9.621   2.373   9.926
 6610WAT      O20071   0.806   6.439   4.900
 6610WAT     H120072   0.849   6.479   4.981
 6610WAT     H220073   0.873   6.382   4.852
 6611WAT      O20074   8.644   5.554   3.885
 6611WAT     H120075   8.691   5.634   3.923
 6611WAT     H220076   8.645   5.558   3.786
 6612WAT      O20077   8.384   0.895   8.179
 6612WAT     H120078   8.428   0.984   8.166
 6612WAT     H220079   8.286   0.908   8.189
 6613WAT      O20080   2.694   2.009   4.663
 6613WAT     H120081   2.786   2.047   4.662
 6613WAT     H220082   2.650   2.029   4.751
 6614WAT      O20083   9.157   8.078   8.273
 6614WAT     H120084   9.226   8.010   8.248
 6614WAT     H220085   9.142   8.076   8.371
 6615WAT      O20086   9.374   6.674   9.557
 6615WAT     H120087   9.366   6.606   9.629
 6615WAT     H220088   9.458   6.727   9.570
 6616WAT      O20089   1.008   0.900   3.828
 6616WAT     H120090   0.994   0.811   3.786
 6616WAT     H220091   1.102   0.930   3.813
 6617WAT      O20092   5.364   4.243   1.756
 6617WAT     H120093   5.463   4.251   1.745
 6617WAT     H220094   5.344   4.171   1.823
 6618WAT      O20095   0.161   1.460   4.568
 6618WAT     H120096   0.234   1.394   4.553
 6618WAT     H220097   0.189   1.525   4.639
 6619WAT      O20098   4.062   6.625   8.899
 6619WAT     H120099   4.066   6.555   8.829
 6619WAT     H220100   3.981   6.610   8.957
 6620WAT      O20101   7.565   2.939   4.431
 6620WAT     H120102   7.478   2.893   4.413
 6620WAT     H220103   7.638   2.891   4.384
 6621WAT      O20104   1.654   0.820   9.526
 6621WAT     H120105   1.663   0.726   9.496
 6621WAT     H220106   1.737   0.871   9.504
 6622WAT      O20107   7.022   9.471   4.405
 6622WAT     H120108   7.090   9.401   4.426
 6622WAT     H220109   7.057   9.531   4.333
 6623WAT      O20110   8.526   8.992   2.355
 6623WAT     H120111   8.439   8.962   2.315
 6623WAT     H220112   8.597   8.924   2.336
 6624WAT      O20113   0.119   0.858   4.674
 6624WAT     H120114   0.180   0.860   4.753
 6624WAT     H220115   0.085   0.951   4.656
 6625WAT      O20116   8.733   5.490   8.230
 6625WAT     H120117   8.830   5.506   8.212
 6625WAT     H220118   8.704   5.406   8.184
 6626WAT      O20119   2.496   6.044   3.523
 6626WAT     H120120   2.589   6.081   3.512
 6626WAT     H220121   2.493   5.988   3.606
 6627WAT      O20122   0.487   7.620   7.027
 6627WAT     H120123   0.539   7.632   6.943
 6627WAT     H220124   0.460   7.524   7.036
 6628WAT      O20125   3.310   3.864   6.929
 6628WAT     H120126   3.250   3.789   6.959
 6628WAT     H220127   3.293   3.945   6.985
 6629WAT      O20128   4.293   9.081   0.504
 6629WAT     H120129   4.254   8.989   0.514
 6629WAT     H220130   4.328   9.112   0.592
 6630WAT      O20131   9.279   0.132   5.904
 6630WAT     H120132   9.364   0.081   5.921
 6630WAT     H220133   9.230   0.090   5.828
 6631WAT      O20134   1.315   2.899   4.400
 6631WAT     H120135   1.385   2.933   4.462
 6631WAT     H220136   1.268   2.822   4.442
 6632WAT      O20137   3.582   6.344   8.587
 6632WAT     H120138   3.655   6.377   8.646
 6632WAT     H220139   3.507   6.410   8.585
 6633WAT      O20140   1.777   6.757   7.838
 6633WAT     H120141   1.762   6.738   7.741
 6633WAT     H220142   1.764   6.855   7.855
 6634WAT      O20143   3.921   0.587   2.185
 6634WAT     H120144   3.981   0.512   2.213
 6634WAT     H220145   3.832   0.577   2.229
 6635WAT      O20146   3.124   2.778   5.307
 6635WAT     H120147   3.190   2.783   5.382
 6635WAT     H220148   3.081   2.688   5.306
 6636WAT      O20149   9.324   2.295   2.317
 6636WAT     H120150   9.364   2.387   2.314
 6636WAT     H220151   9.304   2.264   2.225
 6637WAT      O20152   1.240   6.240   7.699
 6637WAT     H120153   1.316   6.254   7.763
 6637WAT     H220154   1.155   6.268   7.742
 6638WAT      O20155   3.247   6.467   1.252
 6638WAT     H120156   3.198   6.380   1.253
 6638WAT     H220157   3.297   6.478   1.338
 6639WAT      O20158   5.480   0.697   0.979
 6639WAT     H120159   5.442   0.748   0.902
 6639WAT     H220160   5.543   0.626   0.946
 6640WAT      O20161   2.043   8.315   6.777
 6640WAT     H120162   2.108   8.311   6.701
 6640WAT     H220163   1.985   8.396   6.768
 6641WAT      O20164   1.564   7.607   7.861
 6641WAT     H120165   1.663   7.608   7.874
 6641WAT     H220166   1.525   7.694   7.890
 6642WAT      O20167   5.769   0.901   9.398
 6642WAT     H120168   5.814   0.853   9.323
 6642WAT     H220169   5.787   0.854   9.484
 6643WAT      O20170   8.589   1.911   3.789
 6643WAT     H120171   8.628   1.915   3.880
 6643WAT     H220172   8.600   1.819   3.751
 6644WAT      O20173   8.199   7.204   4.696
 6644WAT     H120174   8.279   7.149   4.719
 6644WAT     H220175   8.166   7.252   4.777
 6645WAT      O20176   9.473   3.434   8.357
 6645WAT     H120177   9.521   3.486   8.286
 6645WAT     H220178   9.374   3.447   8.346
 6646WAT      O20179   4.881   3.276   4.410
 6646WAT     H120180   4.924   3.203   4.357
 6646WAT     H220181   4.790   3.295   4.374
 6647WAT      O20182   9.527   9.063   9.226
 6647WAT     H120183   9.597   9.064   9.298
 6647WAT     H220184   9.559   9.009   9.149
 6648WAT      O20185   3.102   9.188   1.553
 6648WAT     H120186   3.008   9.221   1.557
 6648WAT     H220187   3.116   9.116   1.621
 6649WAT      O20188   4.386   0.404   0.003
 6649WAT     H120189   4.401   0.493   0.047
 6649WAT     H220190   4.467   0.347   0.016
 6650WAT      O20191   5.706   7.578   3.576
 6650WAT     H120192   5.722   7.520   3.496
 6650WAT     H220193   5.621   7.551   3.620
 6651WAT      O20194   1.990   2.660   1.164
 6651WAT     H120195   2.010   2.758   1.160
 6651WAT     H220196   1.912   2.639   1.105
 6652WAT      O20197   6.349   4.751   3.743
 6652WAT     H120198   6.335   4.652   3.744
 6652WAT     H220199   6.432   4.773   3.691
 6653WAT      O20200   5.521   7.829   0.996
 6653WAT     H120201   5.567   7.916   0.982
 6653WAT     H220202   5.562   7.759   0.938
 6654WAT      O20203   9.345   5.372   9.314
 6654WAT     H120204   9.386   5.284   9.293
 6654WAT     H220205   9.359   5.394   9.411
 6655WAT      O20206   2.988   1.385   1.318
 6655WAT     H120207   2.929   1.447   1.371
 6655WAT     H220208   3.079   1.425   1.310
 6656WAT      O20209   8.105   1.121   5.773
 6656WAT     H120210   8.141   1.124   5.866
 6656WAT     H220211   8.052   1.204   5.754
 6657WAT      O20212   6.597   4.303   0.677
 6657WAT     H120213   6.690   4.287   0.711
 6657WAT     H220214   6.542   4.344   0.749
 6658WAT      O20215   2.830   4.530   4.016
 6658WAT     H120216   2.879   4.605   3.971
 6658WAT     H220217   2.765   4.567   4.081
 6659WAT      O20218   2.250   5.389   7.679
 6659WAT     H120219   2.179   5.449   7.642
 6659WAT     H220220   2.218   5.294   7.677
 6660WAT      O20221   8.270   4.741   1.965
 6660WAT     H120222   8.328   4.688   2.026
 6660WAT     H220223   8.207   4.798   2.018
 6661WAT      O20224   0.695   2.218   2.075
 6661WAT     H120225   0.635   2.259   2.144
 6661WAT     H220226   0.784   2.264   2.076
 6662WAT      O20227   9.843   1.459   4.394
 6662WAT     H120228   9.926   1.451   4.449
 6662WAT     H220229   9.785   1.532   4.430
 6663WAT      O20230   3.862   1.499   3.765
 6663WAT     H120231   3.960   1.502   3.743
 6663WAT     H220232   3.848   1.438   3.843
 6664WAT      O20233   1.389   8.152   7.714
 6664WAT     H120234   1.318   8.083   7.706
 6664WAT     H220235   1.479   8.109   7.706
 6665WAT      O20236   1.778   0.076   1.566
 6665WAT     H120237   1.723   0.153   1.598
 6665WAT     H220238   1.784   0.007   1.638
 6666WAT      O20239   5.591   1.261   5.352
 6666WAT     H120240   5.596   1.360   5.340
 6666WAT     H220241   5.645   1.234   5.432
 6667WAT      O20242   4.715   9.082   8.998
 6667WAT     H120243   4.727   9.100   8.900
 6667WAT     H220244   4.618   9.079   9.020
 6668WAT      O20245   3.727   9.664   7.876
 6668WAT     H120246   3.648   9.707   7.832
 6668WAT     H220247   3.785   9.734   7.918
 6669WAT      O20248   6.541   4.614   4.853
 6669WAT     H120249   6.450   4.574   4.842
 6669WAT     H220250   6.608   4.563   4.800
 6670WAT      O20251   5.277   4.012   7.218
 6670WAT     H120252   5.223   3.928   7.217
 6670WAT     H220253   5.240   4.075   7.286
 6671WAT      O20254   5.965   3.597   9.327
 6671WAT     H120255   5.985   3.499   9.320
 6671WAT     H220256   5.937   3.632   9.238
 6672WAT      O20257   3.980   1.024   5.456
 6672WAT     H120258   3.938   1.046   5.544
 6672WAT     H220259   4.018   0.932   5.459
 6673WAT      O20260   8.366   8.470   4.953
 6673WAT     H120261   8.439   8.537   4.937
 6673WAT     H220262   8.296   8.479   4.882
 6674WAT      O20263   5.118   2.558   8.312
 6674WAT     H120264   5.025   2.536   8.340
 6674WAT     H220265   5.162   2.614   8.382
 6675WAT      O20266   4.890   7.227   5.349
 6675WAT     H120267   4.985   7.230   5.318
 6675WAT     H220268   4.888   7.219   5.448
 6676WAT      O20269   0.330   9.417   8.111
 6676WAT     H120270   0.346   9.469   8.195
 6676WAT     H220271   0.232   9.418   8.090
 6677WAT      O20272   0.855   8.951   4.475
 6677WAT     H120273   0.816   8.908   4.556
 6677WAT     H220274   0.797   9.027   4.446
 6678WAT      O20275   4.283   6.406   1.743
 6678WAT     H120276   4.214   6.391   1.673
 6678WAT     H220277   4.372   6.423   1.700
 6679WAT      O20278   1.679   7.380   5.911
 6679WAT     H120279   1.728   7.327   5.979
 6679WAT     H220280   1.737   7.395   5.831
 6680WAT      O20281   7.938   8.114   7.710
 6680WAT     H120282   7.987   8.046   7.764
 6680WAT     H220283   7.846   8.126   7.747
 6681WAT      O20284   8.625   8.586   6.986
 6681WAT     H120285   8.639   8.593   6.887
 6681WAT     H220286   8.558   8.515   7.006
 6682WAT      O20287   7.832   3.427   7.781
 6682WAT     H120288   7.866   3.361   7.713
 6682WAT     H220289   7.872   3.406   7.870
 6683WAT      O20290   5.864   6.217   6.406
 6683WAT     H120291   5.931   6.226   6.479
 6683WAT     H220292   5.897   6.151   6.338
 6684WAT      O20293   8.259   9.476   9.456
 6684WAT     H120294   8.206   9.426   9.387
 6684WAT     H220295   8.210   9.474   9.543
 6685WAT      O20296   6.531   3.268   3.194
 6685WAT     H120297   6.595   3.328   3.146
 6685WAT     H220298   6.479   3.215   3.127
 6686WAT      O20299   2.226   7.732   0.366
 6686WAT     H120300   2.313   7.686   0.352
 6686WAT     H220301   2.194   7.772   0.280
 6687WAT      O20302   6.514   6.480   1.764
 6687WAT     H120303   6.464   6.396   1.743
 6687WAT     H220304   6.591   6.460   1.825
 6688WAT      O20305   8.446   0.886   9.587
 6688WAT     H120306   8.390   0.948   9.533
 6688WAT     H220307   8.510   0.838   9.528
 6689WAT      O20308   0.292   8.840   2.923
 6689WAT     H120309   0.340   8.850   3.011
 6689WAT     H220310   0.226   8.766   2.930
 6690WAT      O20311   5.300   1.681   8.100
 6690WAT     H120312   5.391   1.693   8.059
 6690WAT     H220313   5.309   1.670   8.199
 6691WAT      O20314   5.380   0.162   1.650
 6691WAT     H120315   5.415   0.124   1.735
 6691WAT     H220316   5.427   0.120   1.572
 6692WAT      O20317   1.971   6.307   8.039
 6692WAT     H120318   2.060   6.279   8.003
 6692WAT     H220319   1.948   6.398   8.004
 6693WAT      O20320   2.758   7.384   3.809
 6693WAT     H120321   2.804   7.301   3.840
 6693WAT     H220322   2.787   7.404   3.715
 6694WAT      O20323   8.597   6.292   2.236
 6694WAT     H120324   8.541   6.344   2.300
 6694WAT     H220325   8.667   6.352   2.196
 6695WAT      O20326   8.120   4.455   5.584
 6695WAT     H120327   8.193   4.491   5.527
 6695WAT     H220328   8.038   4.511   5.573
 6696WAT      O20329   4.035   3.136   7.550
 6696WAT     H120330   4.072   3.141   7.643
 6696WAT     H220331   3.983   3.219   7.530
 6697WAT      O20332   3.859   2.605   8.377
 6697WAT     H120333   3.933   2.635   8.437
 6697WAT     H220334   3.775   2.597   8.429
 6698WAT      O20335   3.465   6.030   1.059
 6698WAT     H120336   3.406   6.060   0.984
 6698WAT     H220337   3.560   6.045   1.035
 6699WAT      O20338   3.982   9.612   6.899
 6699WAT     H120339   4.008   9.614   6.803
 6699WAT     H220340   3.962   9.704   6.931
 6700WAT      O20341   5.478   9.187   5.478
 6700WAT     H120342   5.396   9.135   5.501
 6700WAT     H220343   5.480   9.272   5.530
 6701WAT      O20344   0.731   7.864   3.671
 6701WAT     H120345   0.757   7.831   3.580
 6701WAT     H220346   0.811   7.862   3.731
 6702WAT      O20347   9.390   1.564   6.539
 6702WAT     H120348   9.291   1.580   6.541
 6702WAT     H220349   9.436   1.635   6.591
 6703WAT      O20350   3.481   5.230   3.867
 6703WAT     H120351   3.442   5.148   3.824
 6703WAT     H220352   3.458   5.230   3.964
 6704WAT      O20353   3.322   4.566   1.278
 6704WAT     H120354   3.279   4.491   1.227
 6704WAT     H220355   3.300   4.653   1.235
 6705WAT      O20356   3.579   7.659   3.157
 6705WAT     H120357   3.535   7.582   3.110
 6705WAT     H220358   3.678   7.647   3.154
 6706WAT      O20359   4.175   7.913   0.380
 6706WAT     H120360   4.260   7.884   0.336
 6706WAT     H220361   4.118   7.962   0.314
 6707WAT      O20362   1.363   3.725   7.464
 6707WAT     H120363   1.456   3.697   7.489
 6707WAT     H220364   1.304   3.644   7.459
 6708WAT      O20365   1.739   7.924   2.525
 6708WAT     H120366   1.792   7.895   2.605
 6708WAT     H220367   1.801   7.958   2.455
 6709WAT      O20368   8.911   7.174   5.292
 6709WAT     H120369   8.887   7.081   5.318
 6709WAT     H220370   8.863   7.239   5.352
 6710WAT      O20371   0.286   8.677   5.998
 6710WAT     H120372   0.276   8.648   6.093
 6710WAT     H220373   0.341   8.609   5.949
 6711WAT      O20374   5.106   7.429   5.425
 6711WAT     H120375   5.072   7.516   5.390
 6711WAT     H220376   5.136   7.372   5.349
 6712WAT      O20377   1.234   4.816   6.645
 6712WAT     H120378   1.193   4.749   6.583
 6712WAT     H220379   1.233   4.779   6.738
 6713WAT      O20380   0.703   9.078   0.918
 6713WAT     H120381   0.724   8.983   0.897
 6713WAT     H220382   0.605   9.090   0.927
 6714WAT      O20383   0.709   2.018   5.013
 6714WAT     H120384   0.672   2.013   4.920
 6714WAT     H220385   0.635   2.002   5.079
 6715WAT      O20386   5.756   0.490   2.811
 6715WAT     H120387   5.709   0.407   2.783
 6715WAT     H220388   5.830   0.510   2.748
 6716WAT      O20389   5.466   2.623   6.530
 6716WAT     H120390   5.437   2.621   6.626
 6716WAT     H220391   5.447   2.535   6.487
 6717WAT      O20392   3.605   8.556   3.517
 6717WAT     H120393   3.705   8.544   3.515
 6717WAT     H220394   3.569   8.516   3.601
 6718WAT      O20395   3.166   2.434   8.893
 6718WAT     H120396   3.178   2.499   8.818
 6718WAT     H220397   3.076   2.392   8.887
 6719WAT      O20398   0.106   3.252   3.485
 6719WAT     H120399   0.010   3.237   3.461
 6719WAT     H220400   0.116   3.252   3.584
 6720WAT      O20401   8.400   3.167   6.498
 6720WAT     H120402   8.384   3.220   6.415
 6720WAT     H220403   8.460   3.089   6.477
 6721WAT      O20404   3.074   2.557   8.017
 6721WAT     H120405   3.095   2.614   8.096
 6721WAT     H220406   3.016   2.481   8.045
 6722WAT      O20407   4.495   3.626   7.588
 6722WAT     H120408   4.399   3.623   7.615
 6722WAT     H220409   4.529   3.533   7.575
 6723WAT      O20410   6.475   0.039   2.796
 6723WAT     H120411   6.449   0.020   2.891
 6723WAT     H220412   6.552   0.103   2.795
 6724WAT      O20413   1.956   4.543   5.262
 6724WAT     H120414   1.928   4.447   5.267
 6724WAT     H220415   2.030   4.553   5.196
 6725WAT      O20416   8.158   4.420   9.011
 6725WAT     H120417   8.174   4.475   8.929
 6725WAT     H220418   8.245   4.402   9.057
 6726WAT      O20419   0.636   4.173   7.128
 6726WAT     H120420   0.659   4.237   7.055
 6726WAT     H220421   0.701   4.183   7.204
 6727WAT      O20422   9.855   5.968   8.682
 6727WAT     H120423   9.842   5.994   8.778
 6727WAT     H220424   9.793   5.893   8.659
 6728WAT      O20425   5.462   3.452   3.593
 6728WAT     H120426   5.529   3.427   3.662
 6728WAT     H220427   5.384   3.388   3.598
 6729WAT      O20428   3.709   1.706   0.960
 6729WAT     H120429   3.673   1.619   0.927
 6729WAT     H220430   3.735   1.696   1.056
 6730WAT      O20431   8.407   6.790   0.021
 6730WAT     H120432   8.399   6.889   0.029
 6730WAT     H220433   8.494   6.760   0.061
 6731WAT      O20434   7.716   9.446   9.367
 6731WAT     H120435   7.642   9.460   9.432
 6731WAT     H220436   7.794   9.504   9.392
 6732WAT      O20437   0.341   2.337   9.709
 6732WAT     H120438   0.250   2.298   9.727
 6732WAT     H220439   0.406   2.263   9.696
 6733WAT      O20440   6.865   3.870   3.863
 6733WAT     H120441   6.795   3.885   3.933
 6733WAT     H220442   6.894   3.774   3.865
 6734WAT      O20443   9.745   8.151   5.318
 6734WAT     H120444   9.726   8.223   5.384
 6734WAT     H220445   9.672   8.083   5.320
 6735WAT      O20446   7.998   6.329   1.467
 6735WAT     H120447   7.920   6.344   1.527
 6735WAT     H220448   7.997   6.398   1.394
 6736WAT      O20449   1.606   7.783   1.901
 6736WAT     H120450   1.688   7.731   1.877
 6736WAT     H220451   1.551   7.799   1.818
 6737WAT      O20452   7.363   5.880   0.484
 6737WAT     H120453   7.351   5.840   0.575
 6737WAT     H220454   7.449   5.847   0.444
 6738WAT      O20455   5.326   3.432   9.565
 6738WAT     H120456   5.355   3.393   9.652
 6738WAT     H220457   5.362   3.377   9.490
 6739WAT      O20458   2.269   1.823   8.732
 6739WAT     H120459   2.323   1.893   8.779
 6739WAT     H220460   2.330   1.765   8.677
 6740WAT      O20461   2.975   0.978   3.516
 6740WAT     H120462   3.054   0.985   3.455
 6740WAT     H220463   2.991   0.906   3.583
 6741WAT      O20464   7.297   7.946   2.147
 6741WAT     H120465   7.211   7.931   2.196
 6741WAT     H220466   7.343   7.858   2.132
 6742WAT      O20467   3.440   1.595   6.120
 6742WAT     H120468   3.384   1.558   6.193
 6742WAT     H220469   3.534   1.564   6.131
 6743WAT      O20470   0.863   0.075   3.165
 6743WAT     H120471   0.778   0.039   3.127
 6743WAT     H220472   0.850   0.171   3.189
 6744WAT      O20473   8.918   5.443   9.500
 6744WAT     H120474   8.938   5.541   9.491
 6744WAT     H220475   8.826   5.426   9.464
 6745WAT      O20476   3.589   4.829   4.097
 6745WAT     H120477   3.505   4.882   4.111
 6745WAT     H220478   3.601   4.764   4.172
 6746WAT      O20479   9.163   0.045   0.164
 6746WAT     H120480   9.082   0.055   0.222
 6746WAT     H220481   9.138  -0.003   0.080
 6747WAT      O20482   7.057   5.870   6.403
 6747WAT     H120483   6.991   5.943   6.387
 6747WAT     H220484   7.009   5.785   6.423
 6748WAT      O20485   5.694   8.191   0.511
 6748WAT     H120486   5.768   8.171   0.446
 6748WAT     H220487   5.711   8.143   0.596
 6749WAT      O20488   0.607   2.909   0.905
 6749WAT     H120489   0.587   2.818   0.941
 6749WAT     H220490   0.590   2.977   0.976
 6750WAT      O20491   5.949   4.800   3.937
 6750WAT     H120492   5.925   4.890   3.901
 6750WAT     H220493   5.919   4.793   4.032
 6751WAT      O20494   6.970   8.855   4.825
 6751WAT     H120495   6.917   8.814   4.751
 6751WAT     H220496   6.973   8.954   4.813
 6752WAT      O20497   8.730   1.517   7.089
 6752WAT     H120498   8.763   1.577   7.016
 6752WAT     H220499   8.769   1.546   7.176
 6753WAT      O20500   7.839   4.032   6.201
 6753WAT     H120501   7.805   4.122   6.173
 6753WAT     H220502   7.827   4.021   6.300
 6754WAT      O20503   4.400   8.589   1.989
 6754WAT     H120504   4.362   8.651   1.921
 6754WAT     H220505   4.414   8.638   2.075
 6755WAT      O20506   3.471   5.128   8.814
 6755WAT     H120507   3.430   5.169   8.896
 6755WAT     H220508   3.459   5.029   8.817
 6756WAT      O20509   5.026   1.838   0.060
 6756WAT     H120510   5.084   1.919   0.065
 6756WAT     H220511   5.081   1.756   0.075
 6757WAT      O20512   4.839   8.097   4.094
 6757WAT     H120513   4.813   8.125   4.186
 6757WAT     H220514   4.757   8.078   4.040
 6758WAT      O20515   1.261   9.692   6.226
 6758WAT     H120516   1.329   9.751   6.271
 6758WAT     H220517   1.194   9.749   6.178
 6759WAT      O20518   8.946   8.898   6.779
 6759WAT     H120519   9.005   8.830   6.821
 6759WAT     H220520   8.898   8.950   6.850
 6760WAT      O20521   4.148   4.471   0.653
 6760WAT     H120522   4.213   4.397   0.671
 6760WAT     H220523   4.132   4.523   0.737
 6761WAT      O20524   7.062   7.539   2.430
 6761WAT     H120525   7.145   7.582   2.393
 6761WAT     H220526   6.995   7.527   2.356
 6762WAT      O20527   3.748   5.194   8.188
 6762WAT     H120528   3.753   5.125   8.116
 6762WAT     H220529   3.741   5.285   8.147
 6763WAT      O20530   6.062   5.449   3.837
 6763WAT     H120531   6.032   5.539   3.870
 6763WAT     H220532   6.161   5.444   3.842
 6764WAT      O20533   3.179   4.493   3.842
 6764WAT     H120534   3.175   4.579   3.791
 6764WAT     H220535   3.157   4.511   3.938
 6765WAT      O20536   8.828   1.750   6.955
 6765WAT     H120537   8.862   1.792   7.039
 6765WAT     H220538   8.744   1.797   6.926
 6766WAT      O20539   0.144   2.120   7.897
 6766WAT     H120540   0.182   2.028   7.893
 6766WAT     H220541   0.153   2.164   7.808
 6767WAT      O20542   8.277   3.250   7.938
 6767WAT     H120543   8.183   3.225   7.961
 6767WAT     H220544   8.283   3.349   7.923
 6768WAT      O20545   5.010   6.837   2.146
 6768WAT     H120546   4.968   6.871   2.229
 6768WAT     H220547   4.941   6.790   2.091
 6769WAT      O20548   5.078   9.717   4.246
 6769WAT     H120549   4.980   9.731   4.231
 6769WAT     H220550   5.100   9.733   4.343
 6770WAT      O20551   3.361   9.012   8.857
 6770WAT     H120552   3.358   9.109   8.834
 6770WAT     H220553   3.329   8.999   8.951
 6771WAT      O20554   5.497   1.400   7.356
 6771WAT     H120555   5.502   1.437   7.449
 6771WAT     H220556   5.410   1.353   7.343
 6772WAT      O20557   3.006   6.237   8.301
 6772WAT     H120558   2.924   6.280   8.339
 6772WAT     H220559   3.002   6.242   8.201
 6773WAT      O20560   8.383   8.924   3.358
 6773WAT     H120561   8.429   8.848   3.403
 6773WAT     H220562   8.342   8.984   3.427
 6774WAT      O20563   6.608   4.357   3.922
 6774WAT     H120564   6.618   4.441   3.869
 6774WAT     H220565   6.535   4.370   3.990
 6775WAT      O20566   7.579   1.890   1.134
 6775WAT     H120567   7.534   1.974   1.163
 6775WAT     H220568   7.598   1.834   1.215
 6776WAT      O20569   9.295   9.043   7.463
 6776WAT     H120570   9.336   9.129   7.492
 6776WAT     H220571   9.292   9.039   7.363
 6777WAT      O20572   6.536   8.658   7.072
 6777WAT     H120573   6.538   8.722   6.995
 6777WAT     H220574   6.442   8.645   7.103
 6778WAT      O20575   9.580   7.537   1.555
 6778WAT     H120576   9.541   7.474   1.622
 6778WAT     H220577   9.668   7.570   1.589
 6779WAT      O20578   4.533   1.055   4.556
 6779WAT     H120579   4.451   1.000   4.539
 6779WAT     H220580   4.512   1.129   4.619
 6780WAT      O20581   1.094   5.429   3.169
 6780WAT     H120582   1.167   5.437   3.237
 6780WAT     H220583   1.075   5.333   3.150
 6781WAT      O20584   6.444   6.294   2.459
 6781WAT     H120585   6.385   6.219   2.488
 6781WAT     H220586   6.409   6.332   2.373
 6782WAT      O20587   1.632   0.154   8.073
 6782WAT     H120588   1.730   0.167   8.057
 6782WAT     H220589   1.580   0.192   7.997
 6783WAT      O20590   5.310   5.895   7.501
 6783WAT     H120591   5.407   5.900   7.522
 6783WAT     H220592   5.277   5.984   7.470
 6784WAT      O20593   1.136   8.920   6.130
 6784WAT     H120594   1.151   8.839   6.073
 6784WAT     H220595   1.052   8.908   6.183
 6785WAT      O20596   3.878   7.392   4.092
 6785WAT     H120597   3.920   7.373   4.181
 6785WAT     H220598   3.911   7.326   4.025
 6786WAT      O20599   1.387   5.531   0.360
 6786WAT     H120600   1.415   5.609   0.415
 6786WAT     H220601   1.292   5.507   0.381
 6787WAT      O20602   9.250   4.767   4.407
 6787WAT     H120603   9.345   4.786   4.433
 6787WAT     H220604   9.244   4.760   4.307
 6788WAT      O20605   8.459   4.820   4.871
 6788WAT     H120606   8.399   4.894   4.901
 6788WAT     H220607   8.471   4.755   4.947
 6789WAT      O20608   5.861   6.533   3.010
 6789WAT     H120609   5.915   6.553   3.091
 6789WAT     H220610   5.868   6.435   2.989
 6790WAT      O20611   2.814   7.706   7.978
 6790WAT     H120612   2.824   7.677   8.074
 6790WAT     H220613   2.769   7.634   7.926
 6791WAT      O20614   7.725   2.258   2.917
 6791WAT     H120615   7.673   2.307   2.847
 6791WAT     H220616   7.681   2.271   3.006
 6792WAT      O20617   4.410   2.382   1.592
 6792WAT     H120618   4.460   2.361   1.676
 6792WAT     H220619   4.373   2.475   1.597
 6793WAT      O20620   5.308   6.553   3.308
 6793WAT     H120621   5.368   6.517   3.378
 6793WAT     H220622   5.280   6.480   3.246
 6794WAT      O20623   4.723   2.397   9.861
 6794WAT     H120624   4.757   2.303   9.867
 6794WAT     H220625   4.769   2.453   9.930
 6795WAT      O20626   0.623   5.594   2.812
 6795WAT     H120627   0.578   5.683   2.813
 6795WAT     H220628   0.640   5.566   2.718
 6796WAT      O20629   4.180   8.683   8.330
 6796WAT     H120630   4.234   8.762   8.299
 6796WAT     H220631   4.088   8.713   8.354
 6797WAT      O20632   3.126   9.008   4.707
 6797WAT     H120633   3.139   9.055   4.619
 6797WAT     H220634   3.185   8.928   4.711
 6798WAT      O20635   5.532   0.387   7.675
 6798WAT     H120636   5.610   0.438   7.638
 6798WAT     H220637   5.447   0.434   7.650
 6799WAT      O20638   1.809   1.716   2.682
 6799WAT     H120639   1.857   1.804   2.690
 6799WAT     H220640   1.719   1.731   2.641
 6800WAT      O20641   0.774   5.012   1.388
 6800WAT     H120642   0.867   5.048   1.387
 6800WAT     H220643   0.774   4.918   1.355
 6801WAT      O20644   3.648   7.103   3.365
 6801WAT     H120645   3.621   7.197   3.345
 6801WAT     H220646   3.654   7.090   3.464
 6802WAT      O20647   6.155   7.198   8.346
 6802WAT     H120648   6.249   7.219   8.320
 6802WAT     H220649   6.155   7.122   8.412
 6803WAT      O20650   8.700   4.024   1.563
 6803WAT     H120651   8.791   4.035   1.602
 6803WAT     H220652   8.704   3.958   1.488
 6804WAT      O20653   9.601   6.390   2.861
 6804WAT     H120654   9.685   6.365   2.908
 6804WAT     H220655   9.541   6.310   2.855
 6805WAT      O20656   8.402   2.586   9.550
 6805WAT     H120657   8.431   2.575   9.645
 6805WAT     H220658   8.473   2.552   9.489
 6806WAT      O20659   5.706   3.286   2.302
 6806WAT     H120660   5.683   3.285   2.204
 6806WAT     H220661   5.782   3.223   2.319
 6807WAT      O20662   4.999   2.451   6.282
 6807WAT     H120663   4.941   2.395   6.222
 6807WAT     H220664   5.094   2.424   6.271
 6808WAT      O20665   2.930   3.638   5.770
 6808WAT     H120666   2.889   3.705   5.831
 6808WAT     H220667   2.868   3.620   5.693
 6809WAT      O20668   4.451   4.364   0.491
 6809WAT     H120669   4.539   4.362   0.443
 6809WAT     H220670   4.430   4.458   0.518
 6810WAT      O20671   8.880   7.477   5.169
 6810WAT     H120672   8.933   7.548   5.215
 6810WAT     H220673   8.846   7.511   5.082
 6811WAT      O20674   5.836   8.147   9.195
 6811WAT     H120675   5.930   8.115   9.187
 6811WAT     H220676   5.826   8.235   9.149
 6812WAT      O20677   1.419   6.758   0.628
 6812WAT     H120678   1.427   6.838   0.569
 6812WAT     H220679   1.460   6.678   0.583
 6813WAT      O20680   5.374   3.426   0.374
 6813WAT     H120681   5.387   3.363   0.451
 6813WAT     H220682   5.451   3.489   0.368
 6814WAT      O20683   8.637   8.213   7.654
 6814WAT     H120684   8.571   8.284   7.629
 6814WAT     H220685   8.601   8.158   7.728
 6815WAT      O20686   2.602   7.565   2.564
 6815WAT     H120687   2.648   7.650   2.588
 6815WAT     H220688   2.620   7.543   2.468
 6816WAT      O20689   3.318   0.661   7.679
 6816WAT     H120690   3.330   0.632   7.584
 6816WAT     H220691   3.405   0.694   7.715
 6817WAT      O20692   7.117   0.316   2.524
 6817WAT     H120693   7.042   0.372   2.488
 6817WAT     H220694   7.090   0.275   2.611
 6818WAT      O20695   6.591   9.385   9.094
 6818WAT     H120696   6.563   9.440   9.173
 6818WAT     H220697   6.685   9.407   9.070
 6819WAT      O20698   0.893   7.426   3.585
 6819WAT     H120699   0.951   7.435   3.504
 6819WAT     H220700   0.865   7.331   3.595
 6820WAT      O20701   8.319   9.253   4.045
 6820WAT     H120702   8.362   9.241   3.955
 6820WAT     H220703   8.298   9.163   4.084
 6821WAT      O20704   0.772   6.875   6.885
 6821WAT     H120705   0.766   6.789   6.935
 6821WAT     H220706   0.861   6.882   6.841
 6822WAT      O20707   7.116   0.397   0.475
 6822WAT     H120708   7.169   0.453   0.539
 6822WAT     H220709   7.085   0.314   0.522
 6823WAT      O20710   2.838   3.186   4.131
 6823WAT     H120711   2.806   3.217   4.220
 6823WAT     H220712   2.775   3.219   4.060
 6824WAT      O20713   9.580   2.616   8.389
 6824WAT     H120714   9.582   2.517   8.377
 6824WAT     H220715   9.547   2.638   8.480
 6825WAT      O20716   7.533   7.429   9.222
 6825WAT     H120717   7.520   7.460   9.128
 6825WAT     H220718   7.574   7.338   9.222
 6826WAT      O20719   3.805   2.230   0.261
 6826WAT     H120720   3.854   2.173   0.196
 6826WAT     H220721   3.718   2.259   0.221
 6827WAT      O20722   7.617   1.613   2.959
 6827WAT     H120723   7.683   1.571   3.021
 6827WAT     H220724   7.579   1.543   2.897
 6828WAT      O20725   9.486   7.018   7.937
 6828WAT     H120726   9.399   6.986   7.899
 6828WAT     H220727   9.510   6.962   8.016
 6829WAT      O20728   9.786   5.764   1.356
 6829WAT     H120729   9.749   5.767   1.449
 6829WAT     H220730   9.833   5.850   1.336
 6830WAT      O20731   9.790   6.729   1.495
 6830WAT     H120732   9.703   6.710   1.450
 6830WAT     H220733   9.816   6.650   1.551
 6831WAT      O20734   0.486   6.512   1.339
 6831WAT     H120735   0.518   6.418   1.352
 6831WAT     H220736   0.547   6.560   1.276
 6832WAT      O20737   9.680   7.696   7.050
 6832WAT     H120738   9.747   7.770   7.049
 6832WAT     H220739   9.648   7.679   6.956
 6833WAT      O20740   4.875   1.750   0.590
 6833WAT     H120741   4.834   1.744   0.681
 6833WAT     H220742   4.808   1.787   0.526
 6834WAT      O20743   2.526   9.653   4.056
 6834WAT     H120744   2.536   9.603   3.970
 6834WAT     H220745   2.579   9.737   4.052
 6835WAT      O20746   7.387   4.523   6.058
 6835WAT     H120747   7.419   4.539   6.152
 6835WAT     H220748   7.465   4.528   5.995
 6836WAT      O20749   9.249   1.985   7.725
 6836WAT     H120750   9.344   1.968   7.750
 6836WAT     H220751   9.225   1.931   7.644
 6837WAT      O20752   0.651   6.208   3.940
 6837WAT     H120753   0.557   6.243   3.935
 6837WAT     H220754   0.664   6.139   3.869
 6838WAT      O20755   9.051   2.769   9.590
 6838WAT     H120756   8.965   2.720   9.599
 6838WAT     H220757   9.077   2.809   9.678
 6839WAT      O20758   0.727   7.770   5.824
 6839WAT     H120759   0.759   7.772   5.729
 6839WAT     H220760   0.689   7.860   5.848
 6840WAT      O20761   6.285   0.469   4.978
 6840WAT     H120762   6.372   0.486   5.024
 6840WAT     H220763   6.289   0.507   4.885
 6841WAT      O20764   4.047   3.305   1.844
 6841WAT     H120765   4.107   3.379   1.871
 6841WAT     H220766   4.005   3.264   1.926
 6842WAT      O20767   7.729   6.555   8.414
 6842WAT     H120768   7.665   6.481   8.393
 6842WAT     H220769   7.759   6.547   8.509
 6843WAT      O20770   9.099   7.790   3.701
 6843WAT     H120771   9.159   7.820   3.627
 6843WAT     H220772   9.068   7.869   3.754
 6844WAT      O20773   6.175   5.967   8.673
 6844WAT     H120774   6.229   5.887   8.647
 6844WAT     H220775   6.220   6.050   8.641
 6845WAT      O20776   6.899   4.933   3.649
 6845WAT     H120777   6.917   5.020   3.603
 6845WAT     H220778   6.981   4.875   3.644
 6846WAT      O20779   7.268   2.270   4.794
 6846WAT     H120780   7.282   2.324   4.877
 6846WAT     H220781   7.352   2.222   4.771
 6847WAT      O20782   5.119   7.027   0.725
 6847WAT     H120783   5.199   7.001   0.779
 6847WAT     H220784   5.059   6.948   0.713
 6848WAT      O20785   7.485   0.827   1.109
 6848WAT     H120786   7.509   0.876   1.194
 6848WAT     H220787   7.446   0.892   1.043
 6849WAT      O20788   1.301   4.644   4.349
 6849WAT     H120789   1.226   4.709   4.334
 6849WAT     H220790   1.331   4.606   4.261
 6850WAT      O20791   8.614   2.364   5.740
 6850WAT     H120792   8.648   2.455   5.765
 6850WAT     H220793   8.692   2.303   5.725
 6851WAT      O20794   5.719   0.778   4.727
 6851WAT     H120795   5.741   0.681   4.716
 6851WAT     H220796   5.787   0.822   4.786
 6852WAT      O20797   0.905   1.730   4.860
 6852WAT     H120798   0.952   1.695   4.779
 6852WAT     H220799   0.967   1.726   4.938
 6853WAT      O20800   3.904   2.310   8.194
 6853WAT     H120801   3.931   2.255   8.115
 6853WAT     H220802   3.981   2.369   8.221
 6854WAT      O20803   7.706   6.196   0.997
 6854WAT     H120804   7.746   6.230   0.912
 6854WAT     H220805   7.619   6.151   0.978
 6855WAT      O20806   9.842   0.918   1.553
 6855WAT     H120807   9.882   0.986   1.614
 6855WAT     H220808   9.881   0.928   1.461
 6856WAT      O20809   3.272   0.631   9.402
 6856WAT     H120810   3.188   0.578   9.389
 6856WAT     H220811   3.327   0.626   9.319
 6857WAT      O20812   2.338   0.993   3.191
 6857WAT     H120813   2.262   1.058   3.191
 6857WAT     H220814   2.401   1.015   3.266
 6858WAT      O20815   6.760   7.504   8.779
 6858WAT     H120816   6.737   7.563   8.702
 6858WAT     H220817   6.755   7.557   8.864
 6859WAT      O20818   9.160   3.420   5.545
 6859WAT     H120819   9.255   3.389   5.541
 6859WAT     H220820   9.157   3.513   5.583
 6860WAT      O20821   8.640   2.580   7.234
 6860WAT     H120822   8.719   2.606   7.291
 6860WAT     H220823   8.592   2.504   7.277
 6861WAT      O20824   5.611   3.622   8.542
 6861WAT     H120825   5.523   3.610   8.496
 6861WAT     H220826   5.680   3.564   8.499
 6862WAT      O20827   0.967   4.822   9.618
 6862WAT     H120828   0.931   4.730   9.605
 6862WAT     H220829   1.067   4.821   9.606
 6863WAT      O20830   2.539   0.153   3.500
 6863WAT     H120831   2.446   0.146   3.535
 6863WAT     H220832   2.586   0.229   3.546
 6864WAT      O20833   4.798   8.052   3.095
 6864WAT     H120834   4.701   8.074   3.086
 6864WAT     H220835   4.828   8.000   3.015
 6865WAT      O20836   8.184   6.021   1.600
 6865WAT     H120837   8.110   6.036   1.534
 6865WAT     H220838   8.152   5.958   1.671
 6866WAT      O20839   3.738   6.227   2.991
 6866WAT     H120840   3.803   6.167   3.038
 6866WAT     H220841   3.695   6.288   3.058
 6867WAT      O20842   1.364   0.940   2.305
 6867WAT     H120843   1.345   0.929   2.403
 6867WAT     H220844   1.361   1.036   2.281
 6868WAT      O20845   7.983   4.732   8.842
 6868WAT     H120846   7.963   4.717   8.745
 6868WAT     H220847   8.067   4.785   8.851
 6869WAT      O20848   3.043   0.497   5.975
 6869WAT     H120849   2.955   0.485   5.929
 6869WAT     H220850   3.083   0.408   5.993
 6870WAT      O20851   9.593   8.644   7.666
 6870WAT     H120852   9.527   8.610   7.732
 6870WAT     H220853   9.685   8.614   7.693
 6871WAT      O20854   2.227   7.183   5.272
 6871WAT     H120855   2.211   7.265   5.217
 6871WAT     H220856   2.324   7.176   5.294
 6872WAT      O20857   4.424   9.153   2.085
 6872WAT     H120858   4.341   9.103   2.107
 6872WAT     H220859   4.495   9.088   2.057
 6873WAT      O20860   5.709   7.229   0.740
 6873WAT     H120861   5.710   7.258   0.836
 6873WAT     H220862   5.628   7.267   0.696
 6874WAT      O20863   3.598   2.998   5.109
 6874WAT     H120864   3.504   3.016   5.079
 6874WAT     H220865   3.661   3.018   5.034
 6875WAT      O20866   5.272   7.188   1.961
 6875WAT     H120867   5.356   7.140   1.938
 6875WAT     H220868   5.197   7.155   1.903
 6876WAT      O20869   0.807   7.484   4.533
 6876WAT     H120870   0.809   7.499   4.632
 6876WAT     H220871   0.894   7.444   4.504
 6877WAT      O20872   3.322   4.373   0.859
 6877WAT     H120873   3.389   4.303   0.833
 6877WAT     H220874   3.234   4.352   0.817
 6878WAT      O20875   0.065   6.970   2.219
 6878WAT     H120876   0.020   7.004   2.137
 6878WAT     H220877   0.071   6.870   2.215
 6879WAT      O20878   0.249   9.316   1.285
 6879WAT     H120879   0.193   9.310   1.202
 6879WAT     H220880   0.249   9.411   1.318
 6880WAT      O20881   1.458   6.734   8.695
 6880WAT     H120882   1.362   6.719   8.670
 6880WAT     H220883   1.480   6.831   8.686
 6881WAT      O20884   1.565   7.915   3.138
 6881WAT     H120885   1.507   7.955   3.209
 6881WAT     H220886   1.565   7.974   3.057
 6882WAT      O20887   5.931   8.362   5.085
 6882WAT     H120888   5.832   8.351   5.076
 6882WAT     H220889   5.972   8.373   4.995
 6883WAT      O20890   5.499   7.046   9.642
 6883WAT     H120891   5.567   7.119   9.627
 6883WAT     H220892   5.435   7.075   9.713
 6884WAT      O20893   6.942   2.377   0.697
 6884WAT     H120894   6.908   2.466   0.668
 6884WAT     H220895   7.019   2.350   0.639
 6885WAT      O20896   6.585   6.098   5.908
 6885WAT     H120897   6.496   6.143   5.902
 6885WAT     H220898   6.572   6.000   5.926
 6886WAT      O20899   1.228   0.098   9.187
 6886WAT     H120900   1.188   0.008   9.205
 6886WAT     H220901   1.221   0.119   9.089
 6887WAT      O20902   8.220   6.107   9.059
 6887WAT     H120903   8.272   6.116   8.974
 6887WAT     H220904   8.167   6.022   9.057
 6888WAT      O20905   5.965   4.848   8.512
 6888WAT     H120906   6.060   4.862   8.483
 6888WAT     H220907   5.964   4.808   8.603
 6889WAT      O20908   9.556   7.031   5.590
 6889WAT     H120909   9.641   6.986   5.566
 6889WAT     H220910   9.574   7.103   5.657
 6890WAT      O20911   9.244   8.237   3.283
 6890WAT     H120912   9.202   8.261   3.195
 6890WAT     H220913   9.284   8.146   3.276
 6891WAT      O20914   7.139   5.348   0.610
 6891WAT     H120915   7.209   5.286   0.647
 6891WAT     H220916   7.178   5.439   0.598
 6892WAT      O20917   8.649   2.236   2.461
 6892WAT     H120918   8.632   2.287   2.376
 6892WAT     H220919   8.729   2.177   2.449
 6893WAT      O20920   6.055   5.571   4.612
 6893WAT     H120921   5.975   5.588   4.671
 6893WAT     H220922   6.024   5.536   4.524
 6894WAT      O20923   4.553   7.518   3.912
 6894WAT     H120924   4.472   7.465   3.887
 6894WAT     H220925   4.525   7.608   3.944
 6895WAT      O20926   6.876   4.379   7.843
 6895WAT     H120927   6.891   4.475   7.864
 6895WAT     H220928   6.944   4.348   7.777
 6896WAT      O20929   5.946   5.872   4.813
 6896WAT     H120930   5.891   5.807   4.761
 6896WAT     H220931   6.042   5.863   4.789
 6897WAT      O20932   3.175   8.620   4.539
 6897WAT     H120933   3.239   8.671   4.596
 6897WAT     H220934   3.083   8.656   4.552
 6898WAT      O20935   8.433   2.655   5.229
 6898WAT     H120936   8.413   2.571   5.278
 6898WAT     H220937   8.351   2.687   5.181
 6899WAT      O20938   1.220   6.448   3.822
 6899WAT     H120939   1.172   6.520   3.772
 6899WAT     H220940   1.153   6.386   3.863
 6900WAT      O20941   7.588   7.068   3.309
 6900WAT     H120942   7.643   7.104   3.385
 6900WAT     H220943   7.623   6.979   3.282
 6901WAT      O20944   5.879   8.035   3.013
 6901WAT     H120945   5.788   7.996   2.995
 6901WAT     H220946   5.890   8.049   3.111
 6902WAT      O20947   4.325   1.084   2.021
 6902WAT     H120948   4.232   1.060   1.991
 6902WAT     H220949   4.325   1.099   2.120
 6903WAT      O20950   0.778   0.871   1.987
 6903WAT     H120951   0.712   0.903   1.919
 6903WAT     H220952   0.737   0.796   2.040
 6904WAT      O20953   6.101   8.590   1.679
 6904WAT     H120954   6.167   8.581   1.753
 6904WAT     H220955   6.149   8.606   1.592
 6905WAT      O20956   8.254   1.084   6.628
 6905WAT     H120957   8.274   1.121   6.537
 6905WAT     H220958   8.170   1.029   6.624
 6906WAT      O20959   3.595   1.240   2.561
 6906WAT     H120960   3.554   1.292   2.486
 6906WAT     H220961   3.523   1.193   2.613
 6907WAT      O20962   6.981   8.016   6.249
 6907WAT     H120963   7.061   8.042   6.302
 6907WAT     H220964   6.928   7.948   6.300
 6908WAT      O20965   7.526   8.886   6.218
 6908WAT     H120966   7.595   8.922   6.155
 6908WAT     H220967   7.477   8.962   6.261
 6909WAT      O20968   3.375   4.748   8.084
 6909WAT     H120969   3.339   4.657   8.063
 6909WAT     H220970   3.471   4.741   8.110
 6910WAT      O20971   2.724   8.587   3.591
 6910WAT     H120972   2.820   8.591   3.621
 6910WAT     H220973   2.694   8.678   3.564
 6911WAT      O20974   8.391   7.196   6.661
 6911WAT     H120975   8.487   7.195   6.633
 6911WAT     H220976   8.375   7.273   6.722
 6912WAT      O20977   7.327   9.549   1.907
 6912WAT     H120978   7.290   9.458   1.890
 6912WAT     H220979   7.423   9.542   1.937
 6913WAT      O20980   7.779   0.543   9.845
 6913WAT     H120981   7.734   0.535   9.934
 6913WAT     H220982   7.738   0.619   9.794
 6914WAT      O20983   9.586   1.827   4.651
 6914WAT     H120984   9.625   1.918   4.663
 6914WAT     H220985   9.486   1.834   4.644
 6915WAT      O20986   0.679   5.535   1.930
 6915WAT     H120987   0.668   5.452   1.875
 6915WAT     H220988   0.630   5.525   2.016
 6916WAT      O20989   3.093   3.677   3.481
 6916WAT     H120990   3.118   3.704   3.573
 6916WAT     H220991   3.161   3.613   3.445
 6917WAT      O20992   1.027   2.248   3.953
 6917WAT     H120993   1.018   2.346   3.972
 6917WAT     H220994   1.124   2.225   3.944
 6918WAT      O20995   0.889   5.343   4.648
 6918WAT     H120996   0.906   5.410   4.721
 6918WAT     H220997   0.848   5.390   4.569
 6919WAT      O20998   4.510   1.632   5.393
 6919WAT     H120999   4.543   1.542   5.424
 6919WAT     H221000   4.586   1.697   5.393
 6920WAT      O21001   5.732   5.605   5.064
 6920WAT     H121002   5.750   5.608   4.966
 6920WAT     H221003   5.718   5.698   5.099
 6921WAT      O21004   9.367   1.686   4.833
 6921WAT     H121005   9.464   1.666   4.818
 6921WAT     H221006   9.326   1.719   4.748
 6922WAT      O21007   8.449   5.119   0.414
 6922WAT     H121008   8.378   5.176   0.373
 6922WAT     H221009   8.428   5.023   0.398
 6923WAT      O21010   4.739   4.841   4.763
 6923WAT     H121011   4.830   4.883   4.763
 6923WAT     H221012   4.708   4.828   4.668
 6924WAT      O21013   4.848   9.028   4.421
 6924WAT     H121014   4.824   9.119   4.456
 6924WAT     H221015   4.937   9.002   4.456
 6925WAT      O21016   3.849   2.737   8.127
 6925WAT     H121017   3.939   2.761   8.092
 6925WAT     H221018   3.859   2.672   8.202
 6926WAT      O21019   4.494   2.880   0.586
 6926WAT     H121020   4.459   2.788   0.606
 6926WAT     H221021   4.589   2.874   0.556
 6927WAT      O21022   7.770   2.324   8.531
 6927WAT     H121023   7.801   2.279   8.447
 6927WAT     H221024   7.849   2.344   8.589
 6928WAT      O21025   3.695   6.746   0.663
 6928WAT     H121026   3.745   6.765   0.579
 6928WAT     H221027   3.758   6.742   0.740
 6929WAT      O21028   9.176   4.930   2.047
 6929WAT     H121029   9.094   4.976   2.079
 6929WAT     H221030   9.254   4.956   2.104
 6930WAT      O21031   8.786   6.520   5.538
 6930WAT     H121032   8.851   6.539   5.464
 6930WAT     H221033   8.805   6.580   5.615
 6931WAT      O21034   7.615   2.304   8.898
 6931WAT     H121035   7.703   2.331   8.938
 6931WAT     H221036   7.573   2.234   8.955
 6932WAT      O21037   1.545   9.480   6.008
 6932WAT     H121038   1.536   9.381   5.997
 6932WAT     H221039   1.641   9.503   6.026
 6933WAT      O21040   8.821   1.956   8.924
 6933WAT     H121041   8.815   1.902   9.009
 6933WAT     H221042   8.911   1.942   8.882
 6934WAT      O21043   9.625   1.752   9.651
 6934WAT     H121044   9.582   1.681   9.595
 6934WAT     H221045   9.721   1.761   9.625
 6935WAT      O21046   3.066   6.335   1.928
 6935WAT     H121047   3.097   6.383   2.010
 6935WAT     H221048   3.002   6.392   1.877
 6936WAT      O21049   4.270   5.174   8.583
 6936WAT     H121050   4.176   5.206   8.569
 6936WAT     H221051   4.317   5.236   8.646
 6937WAT      O21052   9.835   7.851   9.510
 6937WAT     H121053   9.853   7.767   9.561
 6937WAT     H221054   9.889   7.925   9.548
 6938WAT      O21055   7.906   5.979   4.364
 6938WAT     H121056   7.878   6.000   4.270
 6938WAT     H221057   7.872   6.050   4.426
 6939WAT      O21058   7.937   3.009   5.388
 6939WAT     H121059   7.980   2.999   5.477
 6939WAT     H221060   7.873   3.086   5.390
 6940WAT      O21061   7.331   8.923   0.573
 6940WAT     H121062   7.382   8.911   0.658
 6940WAT     H221063   7.273   9.004   0.580
 6941WAT      O21064   3.437   1.146   1.003
 6941WAT     H121065   3.340   1.134   1.024
 6941WAT     H221066   3.469   1.067   0.951
 6942WAT      O21067   7.904   1.522   0.885
 6942WAT     H121068   7.924   1.424   0.885
 6942WAT     H221069   7.875   1.550   0.977
 6943WAT      O21070   3.416   9.145   2.815
 6943WAT     H121071   3.344   9.082   2.847
 6943WAT     H221072   3.463   9.185   2.894
 6944WAT      O21073   0.622   3.516   6.893
 6944WAT     H121074   0.720   3.498   6.890
 6944WAT     H221075   0.572   3.433   6.917
 6945WAT      O21076   7.565   7.176   0.592
 6945WAT     H121077   7.660   7.153   0.614
 6945WAT     H221078   7.560   7.273   0.568
 6946WAT      O21079   8.682   0.618   8.059
 6946WAT     H121080   8.770   0.653   8.025
 6946WAT     H221081   8.650   0.544   8.000
 6947WAT      O21082   8.445   3.354   4.918
 6947WAT     H121083   8.421   3.412   4.840
 6947WAT     H221084   8.502   3.406   4.982
 6948WAT      O21085   4.720   1.551   3.615
 6948WAT     H121086   4.669   1.541   3.529
 6948WAT     H221087   4.800   1.610   3.600
 6949WAT      O21088   1.753   9.510   5.758
 6949WAT     H121089   1.780   9.588   5.701
 6949WAT     H221090   1.757   9.537   5.854
 6950WAT      O21091   8.617   1.307   0.014
 6950WAT     H121092   8.666   1.345  -0.064
 6950WAT     H221093   8.519   1.306  -0.007
 6951WAT      O21094   3.956   9.099   3.116
 6951WAT     H121095   4.047   9.063   3.096
 6951WAT     H221096   3.936   9.089   3.213
 6952WAT      O21097   3.403   2.825   5.726
 6952WAT     H121098   3.327   2.821   5.662
 6952WAT     H221099   3.388   2.760   5.801
 6953WAT      O21100   8.550   0.622   5.615
 6953WAT     H121101   8.566   0.720   5.623
 6953WAT     H221102   8.516   0.600   5.523
 6954WAT      O21103   1.603   8.543   1.919
 6954WAT     H121104   1.534   8.471   1.917
 6954WAT     H221105   1.585   8.603   1.997
 6955WAT      O21106   4.059   3.443   0.379
 6955WAT     H121107   4.059   3.467   0.282
 6955WAT     H221108   4.142   3.392   0.401
 6956WAT      O21109   3.758   0.125   2.304
 6956WAT     H121110   3.773   0.083   2.394
 6956WAT     H221111   3.748   0.224   2.315
 6957WAT      O21112   0.338   1.942   8.194
 6957WAT     H121113   0.373   1.874   8.129
 6957WAT     H221114   0.241   1.926   8.211
 6958WAT      O21115   9.302   0.960   4.900
 6958WAT     H121116   9.294   0.948   4.999
 6958WAT     H221117   9.355   1.043   4.881
 6959WAT      O21118   8.044   4.753   5.724
 6959WAT     H121119   8.075   4.809   5.646
 6959WAT     H221120   8.122   4.732   5.783
 6960WAT      O21121   4.599   4.902   5.218
 6960WAT     H121122   4.600   4.978   5.284
 6960WAT     H221123   4.547   4.826   5.257
 6961WAT      O21124   7.191   0.586   2.308
 6961WAT     H121125   7.232   0.497   2.326
 6961WAT     H221126   7.115   0.576   2.245
 6962WAT      O21127   0.284   1.317   9.162
 6962WAT     H121128   0.306   1.234   9.111
 6962WAT     H221129   0.239   1.293   9.248
 6963WAT      O21130   3.577   4.897   9.534
 6963WAT     H121131   3.661   4.882   9.482
 6963WAT     H221132   3.506   4.935   9.474
 6964WAT      O21133   2.485   7.710   2.219
 6964WAT     H121134   2.558   7.643   2.226
 6964WAT     H221135   2.447   7.708   2.126
 6965WAT      O21136   0.392   3.204   5.878
 6965WAT     H121137   0.439   3.257   5.949
 6965WAT     H221138   0.375   3.262   5.799
 6966WAT      O21139   0.434   8.964   0.376
 6966WAT     H121140   0.502   9.032   0.402
 6966WAT     H221141   0.480   8.881   0.345
 6967WAT      O21142   0.915   8.859   1.823
 6967WAT     H121143   0.984   8.862   1.750
 6967WAT     H221144   0.839   8.801   1.794
 6968WAT      O21145   2.652   4.591   5.510
 6968WAT     H121146   2.558   4.600   5.478
 6968WAT     H221147   2.672   4.496   5.531
 6969WAT      O21148   8.963   9.315   4.631
 6969WAT     H121149   8.867   9.322   4.661
 6969WAT     H221150   9.015   9.265   4.701
 6970WAT      O21151   5.131   5.534   7.294
 6970WAT     H121152   5.195   5.560   7.366
 6970WAT     H221153   5.181   5.489   7.220
 6971WAT      O21154   5.631   3.624   6.626
 6971WAT     H121155   5.572   3.650   6.550
 6971WAT     H221156   5.579   3.631   6.712
 6972WAT      O21157   7.463   4.151   6.091
 6972WAT     H121158   7.492   4.064   6.052
 6972WAT     H221159   7.372   4.174   6.056
 6973WAT      O21160   6.535   5.852   7.837
 6973WAT     H121161   6.625   5.892   7.855
 6973WAT     H221162   6.518   5.853   7.738
 6974WAT      O21163   1.321   8.885   9.575
 6974WAT     H121164   1.405   8.838   9.601
 6974WAT     H221165   1.293   8.947   9.649
 6975WAT      O21166   0.207   2.384   0.860
 6975WAT     H121167   0.140   2.454   0.836
 6975WAT     H221168   0.220   2.322   0.782
 6976WAT      O21169   5.173   6.618   9.743
 6976WAT     H121170   5.263   6.585   9.769
 6976WAT     H221171   5.140   6.568   9.663
 6977WAT      O21172   6.415   6.253   8.314
 6977WAT     H121173   6.404   6.352   8.310
 6977WAT     H221174   6.387   6.219   8.404
 6978WAT      O21175   8.630   8.488   4.463
 6978WAT     H121176   8.611   8.460   4.557
 6978WAT     H221177   8.631   8.407   4.404
 6979WAT      O21178   0.938   2.463   9.092
 6979WAT     H121179   1.027   2.417   9.102
 6979WAT     H221180   0.911   2.503   9.179
 6980WAT      O21181   5.559   4.207   8.986
 6980WAT     H121182   5.510   4.180   9.069
 6980WAT     H221183   5.608   4.128   8.949
 6981WAT      O21184   4.872   2.595   7.487
 6981WAT     H121185   4.878   2.671   7.552
 6981WAT     H221186   4.789   2.606   7.432
 6982WAT      O21187   7.229   3.644   0.881
 6982WAT     H121188   7.244   3.738   0.849
 6982WAT     H221189   7.165   3.597   0.821
 6983WAT      O21190   1.971   7.598   8.074
 6983WAT     H121191   1.964   7.500   8.094
 6983WAT     H221192   2.054   7.634   8.116
 6984WAT      O21193   7.497   4.142   7.801
 6984WAT     H121194   7.413   4.094   7.776
 6984WAT     H221195   7.499   4.158   7.900
 6985WAT      O21196   1.023   4.991   6.121
 6985WAT     H121197   1.054   4.969   6.029
 6985WAT     H221198   0.928   5.021   6.118
 6986WAT      O21199   2.351   6.310   9.884
 6986WAT     H121200   2.350   6.404   9.918
 6986WAT     H221201   2.264   6.266   9.905
 6987WAT      O21202   9.716   2.304   7.423
 6987WAT     H121203   9.730   2.378   7.490
 6987WAT     H221204   9.672   2.227   7.468
 6988WAT      O21205   4.649   6.420   6.491
 6988WAT     H121206   4.733   6.366   6.491
 6988WAT     H221207   4.614   6.426   6.585
 6989WAT      O21208   9.466   7.185   3.845
 6989WAT     H121209   9.508   7.188   3.754
 6989WAT     H221210   9.526   7.134   3.908
 6990WAT      O21211   0.305   8.706   6.288
 6990WAT     H121212   0.372   8.632   6.295
 6990WAT     H221213   0.353   8.793   6.276
 6991WAT      O21214   4.125   9.304   5.641
 6991WAT     H121215   4.203   9.325   5.700
 6991WAT     H221216   4.134   9.212   5.605
 6992WAT      O21217   4.506   0.023   0.985
 6992WAT     H121218   4.585  -0.016   0.937
 6992WAT     H221219   4.422  -0.001   0.936
 6993WAT      O21220   9.786   2.440   0.770
 6993WAT     H121221   9.751   2.416   0.861
 6993WAT     H221222   9.718   2.415   0.701
 6994WAT      O21223   8.206   1.838   9.421
 6994WAT     H121224   8.129   1.891   9.387
 6994WAT     H221225   8.206   1.840   9.521
 6995WAT      O21226   7.307   1.868   3.651
 6995WAT     H121227   7.222   1.920   3.642
 6995WAT     H221228   7.300   1.783   3.599
 6996WAT      O21229   3.061   1.950   1.648
 6996WAT     H121230   2.976   1.979   1.603
 6996WAT     H221231   3.099   2.027   1.699
 6997WAT      O21232   8.893   7.570   9.630
 6997WAT     H121233   8.839   7.527   9.557
 6997WAT     H221234   8.831   7.601   9.702
 6998WAT      O21235   0.026   7.189   2.411
 6998WAT     H121236   0.015   7.287   2.423
 6998WAT     H221237   0.119   7.169   2.383
 6999WAT      O21238   4.876   0.344   2.571
 6999WAT     H121239   4.837   0.370   2.659
 6999WAT     H221240   4.850   0.412   2.502
 7000WAT      O21241   0.488   0.801   5.946
 7000WAT     H121242   0.465   0.710   5.912
 7000WAT     H221243   0.556   0.843   5.887
 7001WAT      O21244   7.718   8.077   7.341
 7001WAT     H121245   7.757   8.068   7.249
 7001WAT     H221246   7.620   8.057   7.337
 7002WAT      O21247   7.367   3.304   3.005
 7002WAT     H121248   7.388   3.325   2.910
 7002WAT     H221249   7.338   3.387   3.053
 7003WAT      O21250   1.864   6.811   5.344
 7003WAT     H121251   1.858   6.715   5.314
 7003WAT     H221252   1.863   6.815   5.443
 7004WAT      O21253   7.047   3.989   6.806
 7004WAT     H121254   7.056   4.036   6.893
 7004WAT     H221255   7.121   4.017   6.745
 7005WAT      O21256   2.982   0.018   7.861
 7005WAT     H121257   3.007   0.087   7.792
 7005WAT     H221258   3.053  -0.051   7.867
 7006WAT      O21259   1.060   3.553   4.145
 7006WAT     H121260   1.154   3.522   4.159
 7006WAT     H221261   1.054   3.600   4.056
 7007WAT      O21262   0.285   6.342   9.435
 7007WAT     H121263   0.365   6.302   9.390
 7007WAT     H221264   0.297   6.339   9.534
 7008WAT      O21265   3.538   6.043   5.988
 7008WAT     H121266   3.543   6.138   6.021
 7008WAT     H221267   3.631   6.007   5.977
 7009WAT      O21268   2.692   1.861   3.726
 7009WAT     H121269   2.623   1.875   3.796
 7009WAT     H221270   2.686   1.934   3.658
 7010WAT      O21271   5.461   7.056   4.105
 7010WAT     H121272   5.498   7.148   4.117
 7010WAT     H221273   5.430   7.045   4.011
 7011WAT      O21274   3.002   6.092   3.222
 7011WAT     H121275   2.976   6.012   3.276
 7011WAT     H221276   2.978   6.076   3.126
 7012WAT      O21277   0.260   0.521   7.417
 7012WAT     H121278   0.305   0.589   7.358
 7012WAT     H221279   0.275   0.545   7.513
 7013WAT      O21280   7.765   2.812   8.906
 7013WAT     H121281   7.735   2.826   9.001
 7013WAT     H221282   7.700   2.855   8.844
 7014WAT      O21283   0.687   5.826   7.626
 7014WAT     H121284   0.731   5.888   7.561
 7014WAT     H221285   0.728   5.735   7.617
 7015WAT      O21286   6.451   8.575   9.317
 7015WAT     H121287   6.532   8.610   9.365
 7015WAT     H221288   6.432   8.632   9.238
 7016WAT      O21289   1.844   1.659   2.279
 7016WAT     H121290   1.885   1.639   2.368
 7016WAT     H221291   1.754   1.615   2.274
 7017WAT      O21292   5.433   0.211   6.212
 7017WAT     H121293   5.394   0.287   6.265
 7017WAT     H221294   5.431   0.233   6.115
 7018WAT      O21295   3.118   5.907   1.261
 7018WAT     H121296   3.119   5.904   1.361
 7018WAT     H221297   3.025   5.893   1.228
 7019WAT      O21298   4.229   2.804   0.474
 7019WAT     H121299   4.187   2.789   0.384
 7019WAT     H221300   4.208   2.897   0.505
 7020WAT      O21301   2.855   1.676   9.506
 7020WAT     H121302   2.925   1.608   9.528
 7020WAT     H221303   2.866   1.705   9.410
 7021WAT      O21304   2.614   4.315   1.060
 7021WAT     H121305   2.548   4.249   1.095
 7021WAT     H221306   2.644   4.375   1.134
 7022WAT      O21307   4.101   9.642   6.653
 7022WAT     H121308   4.198   9.631   6.630
 7022WAT     H221309   4.045   9.615   6.574
 7023WAT      O21310   1.382   3.482   0.713
 7023WAT     H121311   1.316   3.445   0.648
 7023WAT     H221312   1.464   3.424   0.714
 7024WAT      O21313   9.819   9.105   3.903
 7024WAT     H121314   9.882   9.029   3.921
 7024WAT     H221315   9.802   9.112   3.805
 7025WAT      O21316   3.914   2.690   3.765
 7025WAT     H121317   3.971   2.722   3.689
 7025WAT     H221318   3.860   2.611   3.735
 7026WAT      O21319   3.415   2.970   9.561
 7026WAT     H121320   3.444   2.939   9.652
 7026WAT     H221321   3.325   2.932   9.541
 7027WAT      O21322   9.376   1.505   8.103
 7027WAT     H121323   9.349   1.524   8.197
 7027WAT     H221324   9.355   1.583   8.045
 7028WAT      O21325   5.125   4.182   7.371
 7028WAT     H121326   5.190   4.243   7.415
 7028WAT     H221327   5.036   4.189   7.415
 7029WAT      O21328   6.217   2.511   2.055
 7029WAT     H121329   6.258   2.429   2.014
 7029WAT     H221330   6.118   2.498   2.066
 7030WAT      O21331   5.195   6.168   1.000
 7030WAT     H121332   5.133   6.173   0.922
 7030WAT     H221333   5.278   6.220   0.980
 7031WAT      O21334   5.898   8.386   2.043
 7031WAT     H121335   5.847   8.471   2.031
 7031WAT     H221336   5.841   8.308   2.017
 7032WAT      O21337   6.815   0.565   6.391
 7032WAT     H121338   6.760   0.579   6.309
 7032WAT     H221339   6.912   0.566   6.367
 7033WAT      O21340   7.493   7.629   0.055
 7033WAT     H121341   7.507   7.548  -0.002
 7033WAT     H221342   7.579   7.679   0.063
 7034WAT      O21343   6.870   7.610   0.149
 7034WAT     H121344   6.810   7.685   0.120
 7034WAT     H221345   6.893   7.554   0.070
 7035WAT      O21346   3.131   6.505   2.145
 7035WAT     H121347   3.174   6.576   2.088
 7035WAT     H221348   3.032   6.520   2.148
 7036WAT      O21349   3.713   7.591   4.909
 7036WAT     H121350   3.806   7.606   4.875
 7036WAT     H221351   3.704   7.497   4.940
 7037WAT      O21352   0.295   8.633   4.499
 7037WAT     H121353   0.297   8.660   4.595
 7037WAT     H221354   0.361   8.559   4.483
 7038WAT      O21355   4.889   5.758   3.672
 7038WAT     H121356   4.966   5.796   3.621
 7038WAT     H221357   4.870   5.817   3.751
 7039WAT      O21358   6.442   5.330   8.033
 7039WAT     H121359   6.495   5.412   8.012
 7039WAT     H221360   6.367   5.321   7.967
 7040WAT      O21361   8.609   5.709   2.171
 7040WAT     H121362   8.564   5.631   2.215
 7040WAT     H221363   8.665   5.677   2.094
 7041WAT      O21364   1.180   4.797   1.106
 7041WAT     H121365   1.161   4.895   1.110
 7041WAT     H221366   1.263   4.776   1.157
 7042WAT      O21367   8.364   3.274   2.993
 7042WAT     H121368   8.449   3.277   2.942
 7042WAT     H221369   8.349   3.182   3.028
 7043WAT      O21370   6.458   0.132   6.025
 7043WAT     H121371   6.431   0.226   6.048
 7043WAT     H221372   6.527   0.100   6.089
 7044WAT      O21373   3.799   4.868   9.403
 7044WAT     H121374   3.828   4.927   9.478
 7044WAT     H221375   3.852   4.889   9.321
 7045WAT      O21376   5.242   7.486   1.499
 7045WAT     H121377   5.268   7.412   1.437
 7045WAT     H221378   5.325   7.528   1.537
 7046WAT      O21379   3.262   9.565   8.855
 7046WAT     H121380   3.177   9.577   8.803
 7046WAT     H221381   3.321   9.644   8.839
 7047WAT      O21382   2.569   0.217   5.502
 7047WAT     H121383   2.479   0.260   5.508
 7047WAT     H221384   2.629   0.272   5.443
 7048WAT      O21385   4.333   7.974   1.063
 7048WAT     H121386   4.327   7.879   1.032
 7048WAT     H221387   4.387   8.027   0.998
 7049WAT      O21388   9.253   9.108   1.679
 7049WAT     H121389   9.288   9.136   1.769
 7049WAT     H221390   9.158   9.078   1.688
 7050WAT      O21391   5.652   7.272   2.337
 7050WAT     H121392   5.555   7.250   2.351
 7050WAT     H221393   5.696   7.281   2.426
 7051WAT      O21394   4.343   1.332   8.977
 7051WAT     H121395   4.340   1.335   9.077
 7051WAT     H221396   4.318   1.241   8.946
 7052WAT      O21397   9.295   5.993   1.655
 7052WAT     H121398   9.223   6.050   1.614
 7052WAT     H221399   9.269   5.897   1.648
 7053WAT      O21400   0.766   6.137   6.197
 7053WAT     H121401   0.676   6.142   6.240
 7053WAT     H221402   0.809   6.227   6.198
 7054WAT      O21403   4.371   4.722   6.654
 7054WAT     H121404   4.362   4.636   6.705
 7054WAT     H221405   4.295   4.730   6.589
 7055WAT      O21406   4.462   1.150   8.366
 7055WAT     H121407   4.511   1.223   8.320
 7055WAT     H221408   4.527   1.078   8.392
 7056WAT      O21409   4.413   1.372   3.368
 7056WAT     H121410   4.382   1.349   3.460
 7056WAT     H221411   4.363   1.452   3.334
 7057WAT      O21412   2.597   5.098   3.441
 7057WAT     H121413   2.690   5.133   3.454
 7057WAT     H221414   2.572   5.107   3.345
 7058WAT      O21415   5.903   6.227   7.911
 7058WAT     H121416   5.853   6.264   7.833
 7058WAT     H221417   5.867   6.137   7.935
 7059WAT      O21418   9.523   5.936   8.347
 7059WAT     H121419   9.554   5.927   8.442
 7059WAT     H221420   9.506   5.845   8.310
 7060WAT      O21421   6.909   6.438   5.321
 7060WAT     H121422   6.914   6.340   5.342
 7060WAT     H221423   6.816   6.462   5.294
 7061WAT      O21424   9.786   3.884   5.656
 7061WAT     H121425   9.758   3.973   5.621
 7061WAT     H221426   9.819   3.828   5.580
 7062WAT      O21427   8.609   4.343   7.279
 7062WAT     H121428   8.551   4.407   7.229
 7062WAT     H221429   8.588   4.249   7.251
 7063WAT      O21430   7.130   8.204   7.642
 7063WAT     H121431   7.222   8.220   7.606
 7063WAT     H221432   7.098   8.285   7.690
 7064WAT      O21433   7.083   7.482   8.036
 7064WAT     H121434   7.062   7.556   7.972
 7064WAT     H221435   7.152   7.422   7.996
 7065WAT      O21436   2.113   5.684   4.451
 7065WAT     H121437   2.099   5.630   4.534
 7065WAT     H221438   2.108   5.781   4.473
 7066WAT      O21439   3.661   8.647   9.838
 7066WAT     H121440   3.593   8.670   9.907
 7066WAT     H221441   3.626   8.574   9.780
 7067WAT      O21442   3.757   9.539   5.471
 7067WAT     H121443   3.717   9.494   5.391
 7067WAT     H221444   3.845   9.496   5.492
 7068WAT      O21445   3.148   7.526   5.555
 7068WAT     H121446   3.137   7.472   5.637
 7068WAT     H221447   3.118   7.473   5.475
 7069WAT      O21448   6.432   3.353   8.436
 7069WAT     H121449   6.401   3.260   8.455
 7069WAT     H221450   6.353   3.411   8.416
 7070WAT      O21451   1.826   2.863   7.550
 7070WAT     H121452   1.845   2.888   7.645
 7070WAT     H221453   1.904   2.887   7.492
 7071WAT      O21454   2.980   5.741   5.217
 7071WAT     H121455   2.935   5.666   5.266
 7071WAT     H221456   3.070   5.758   5.258
 7072WAT      O21457   2.045   7.399   5.899
 7072WAT     H121458   2.056   7.429   5.994
 7072WAT     H221459   1.978   7.457   5.854
 7073WAT      O21460   3.136   7.659   3.441
 7073WAT     H121461   3.134   7.670   3.342
 7073WAT     H221462   3.178   7.571   3.464
 7074WAT      O21463   3.652   7.398   2.666
 7074WAT     H121464   3.722   7.337   2.630
 7074WAT     H221465   3.676   7.493   2.646
 7075WAT      O21466   4.965   7.759   3.148
 7075WAT     H121467   5.059   7.750   3.114
 7075WAT     H221468   4.928   7.848   3.122
 7076WAT      O21469   5.719   8.919   1.287
 7076WAT     H121470   5.696   9.007   1.245
 7076WAT     H221471   5.636   8.878   1.326
 7077WAT      O21472   0.007   9.547   0.887
 7077WAT     H121473   0.018   9.588   0.977
 7077WAT     H221474  -0.066   9.479   0.889
 7078WAT      O21475   8.518   6.693   1.274
 7078WAT     H121476   8.592   6.755   1.301
 7078WAT     H221477   8.524   6.609   1.327
 7079WAT      O21478   9.158   7.768   4.404
 7079WAT     H121479   9.216   7.784   4.324
 7079WAT     H221480   9.216   7.760   4.486
 7080WAT      O21481   7.868   2.354   6.078
 7080WAT     H121482   7.772   2.358   6.106
 7080WAT     H221483   7.875   2.307   5.990
 7081WAT      O21484   9.489   4.164   0.670
 7081WAT     H121485   9.508   4.239   0.606
 7081WAT     H221486   9.534   4.081   0.639
 7082WAT      O21487   0.200   7.975   2.469
 7082WAT     H121488   0.288   7.932   2.449
 7082WAT     H221489   0.189   7.985   2.568
 7083WAT      O21490   2.600   2.299   2.688
 7083WAT     H121491   2.533   2.258   2.750
 7083WAT     H221492   2.629   2.388   2.724
 7084WAT      O21493   1.185   0.153   4.096
 7084WAT     H121494   1.107   0.202   4.133
 7084WAT     H221495   1.177   0.145   3.996
 7085WAT      O21496   5.118   3.521   0.766
 7085WAT     H121497   5.132   3.592   0.834
 7085WAT     H221498   5.046   3.459   0.797
 7086WAT      O21499   1.229   7.122   3.183
 7086WAT     H121500   1.230   7.188   3.108
 7086WAT     H221501   1.318   7.077   3.190
 7087WAT      O21502   0.793   9.374   9.449
 7087WAT     H121503   0.878   9.369   9.398
 7087WAT     H221504   0.774   9.286   9.492
 7088WAT      O21505   0.217   1.463   7.193
 7088WAT     H121506   0.181   1.519   7.118
 7088WAT     H221507   0.252   1.523   7.265
 7089WAT      O21508   1.571   7.793   0.571
 7089WAT     H121509   1.593   7.758   0.480
 7089WAT     H221510   1.551   7.891   0.566
 7090WAT      O21511   4.277   7.715   0.772
 7090WAT     H121512   4.262   7.643   0.705
 7090WAT     H221513   4.252   7.803   0.733
 7091WAT      O21514   4.302   6.483   2.444
 7091WAT     H121515   4.291   6.534   2.358
 7091WAT     H221516   4.281   6.387   2.429
 7092WAT      O21517   5.530   9.691   8.281
 7092WAT     H121518   5.513   9.665   8.186
 7092WAT     H221519   5.623   9.725   8.290
 7093WAT      O21520   1.743   6.045   0.525
 7093WAT     H121521   1.684   6.017   0.601
 7093WAT     H221522   1.688   6.094   0.457
 7094WAT      O21523   2.771   3.341   1.166
 7094WAT     H121524   2.730   3.427   1.138
 7094WAT     H221525   2.819   3.354   1.253
 7095WAT      O21526   0.625   6.787   0.644
 7095WAT     H121527   0.535   6.785   0.688
 7095WAT     H221528   0.619   6.747   0.553
 7096WAT      O21529   3.456   0.591   4.537
 7096WAT     H121530   3.426   0.590   4.632
 7096WAT     H221531   3.525   0.520   4.523
 7097WAT      O21532   8.985   6.647   1.824
 7097WAT     H121533   8.910   6.692   1.872
 7097WAT     H221534   9.046   6.604   1.891
 7098WAT      O21535   4.190   3.624   2.309
 7098WAT     H121536   4.149   3.654   2.222
 7098WAT     H221537   4.255   3.551   2.291
 7099WAT      O21538   5.197   3.230   9.201
 7099WAT     H121539   5.284   3.224   9.151
 7099WAT     H221540   5.213   3.205   9.297
 7100WAT      O21541   1.602   3.020   3.000
 7100WAT     H121542   1.638   3.110   2.978
 7100WAT     H221543   1.653   2.981   3.076
 7101WAT      O21544   7.394   1.396   6.173
 7101WAT     H121545   7.318   1.436   6.224
 7101WAT     H221546   7.385   1.418   6.076
 7102WAT      O21547   4.383   2.785   7.024
 7102WAT     H121548   4.328   2.744   6.950
 7102WAT     H221549   4.472   2.739   7.028
 7103WAT      O21550   9.062   2.947   7.917
 7103WAT     H121551   9.039   2.930   8.013
 7103WAT     H221552   9.099   3.040   7.907
 7104WAT      O21553   2.799   9.220   6.751
 7104WAT     H121554   2.788   9.164   6.832
 7104WAT     H221555   2.741   9.301   6.758
 7105WAT      O21556   0.449   5.156   3.402
 7105WAT     H121557   0.463   5.063   3.369
 7105WAT     H221558   0.538   5.202   3.410
 7106WAT      O21559   3.826   5.376   2.071
 7106WAT     H121560   3.867   5.332   2.151
 7106WAT     H221561   3.861   5.470   2.063
 7107WAT      O21562   1.346   9.519   0.028
 7107WAT     H121563   1.270   9.461   0.059
 7107WAT     H221564   1.431   9.487   0.070
 7108WAT      O21565   5.176   8.687   3.613
 7108WAT     H121566   5.139   8.629   3.686
 7108WAT     H221567   5.225   8.630   3.547
 7109WAT      O21568   2.997   6.467   0.016
 7109WAT     H121569   3.027   6.417   0.098
 7109WAT     H221570   2.905   6.437  -0.009
 7110WAT      O21571   2.367   9.242   1.321
 7110WAT     H121572   2.421   9.254   1.238
 7110WAT     H221573   2.270   9.241   1.297
 7111WAT      O21574   9.168   6.119   5.893
 7111WAT     H121575   9.084   6.095   5.941
 7111WAT     H221576   9.152   6.117   5.794
 7112WAT      O21577   0.915   7.612   0.179
 7112WAT     H121578   1.015   7.618   0.185
 7112WAT     H221579   0.885   7.645   0.089
 7113WAT      O21580   6.198   6.458   6.214
 7113WAT     H121581   6.209   6.360   6.232
 7113WAT     H221582   6.159   6.471   6.123
 7114WAT      O21583   7.061   6.929   1.309
 7114WAT     H121584   7.119   6.873   1.249
 7114WAT     H221585   7.034   7.012   1.261
 7115WAT      O21586   8.941   8.805   8.520
 7115WAT     H121587   8.841   8.799   8.519
 7115WAT     H221588   8.968   8.900   8.536
 7116WAT      O21589   2.069   7.552   7.136
 7116WAT     H121590   2.006   7.626   7.113
 7116WAT     H221591   2.018   7.478   7.181
 7117WAT      O21592   9.514   7.793   3.828
 7117WAT     H121593   9.442   7.725   3.840
 7117WAT     H221594   9.558   7.811   3.916
 7118WAT      O21595   1.442   4.942   3.391
 7118WAT     H121596   1.478   5.028   3.356
 7118WAT     H221597   1.467   4.867   3.330
 7119WAT      O21598   9.724   0.425   9.764
 7119WAT     H121599   9.773   0.342   9.740
 7119WAT     H221600   9.716   0.483   9.683
 7120WAT      O21601   1.271   4.793   0.255
 7120WAT     H121602   1.208   4.741   0.312
 7120WAT     H221603   1.365   4.765   0.276
 7121WAT      O21604   5.711   9.753   7.121
 7121WAT     H121605   5.726   9.655   7.106
 7121WAT     H221606   5.651   9.765   7.201
 7122WAT      O21607   9.297   7.992   0.757
 7122WAT     H121608   9.360   7.931   0.806
 7122WAT     H221609   9.279   7.956   0.666
 7123WAT      O21610   4.300   0.939   4.409
 7123WAT     H121611   4.313   0.844   4.381
 7123WAT     H221612   4.202   0.955   4.426
 7124WAT      O21613   2.913   7.505   5.772
 7124WAT     H121614   2.860   7.447   5.835
 7124WAT     H221615   2.914   7.463   5.681
 7125WAT      O21616   5.879   9.323   8.334
 7125WAT     H121617   5.797   9.274   8.304
 7125WAT     H221618   5.907   9.387   8.264
 7126WAT      O21619   2.022   9.669   1.527
 7126WAT     H121620   1.961   9.696   1.602
 7126WAT     H221621   2.019   9.739   1.455
 7127WAT      O21622   1.161   7.841   4.808
 7127WAT     H121623   1.253   7.862   4.842
 7127WAT     H221624   1.140   7.901   4.731
 7128WAT      O21625   9.529   3.102   8.110
 7128WAT     H121626   9.578   3.026   8.066
 7128WAT     H221627   9.581   3.186   8.099
 7129WAT      O21628   9.636   5.200   5.850
 7129WAT     H121629   9.722   5.237   5.887
 7129WAT     H221630   9.632   5.218   5.752
 7130WAT      O21631   3.403   3.286   8.783
 7130WAT     H121632   3.446   3.205   8.824
 7130WAT     H221633   3.474   3.345   8.744
 7131WAT      O21634   6.912   2.580   5.661
 7131WAT     H121635   6.975   2.657   5.667
 7131WAT     H221636   6.867   2.581   5.572
 7132WAT      O21637   5.436   1.914   6.539
 7132WAT     H121638   5.365   1.892   6.606
 7132WAT     H221639   5.418   2.003   6.499
 7133WAT      O21640   6.747   0.949   3.825
 7133WAT     H121641   6.687   0.935   3.903
 7133WAT     H221642   6.803   1.030   3.840
 7134WAT      O21643   7.113   6.563   2.873
 7134WAT     H121644   7.202   6.609   2.870
 7134WAT     H221645   7.092   6.536   2.967
 7135WAT      O21646   2.176   3.784   8.100
 7135WAT     H121647   2.234   3.809   8.023
 7135WAT     H221648   2.100   3.728   8.068
 7136WAT      O21649   4.326   6.393   4.063
 7136WAT     H121650   4.366   6.318   4.011
 7136WAT     H221651   4.252   6.358   4.120
 7137WAT      O21652   3.854   6.490   0.251
 7137WAT     H121653   3.864   6.580   0.210
 7137WAT     H221654   3.881   6.494   0.347
 7138WAT      O21655   2.761   5.456   7.691
 7138WAT     H121656   2.843   5.434   7.743
 7138WAT     H221657   2.782   5.529   7.626
 7139WAT      O21658   8.824   5.777   3.042
 7139WAT     H121659   8.854   5.761   3.136
 7139WAT     H221660   8.778   5.695   3.008
 7140WAT      O21661   0.581   0.654   4.255
 7140WAT     H121662   0.523   0.632   4.334
 7140WAT     H221663   0.669   0.688   4.287
 7141WAT      O21664   7.303   9.652   4.525
 7141WAT     H121665   7.349   9.601   4.452
 7141WAT     H221666   7.372   9.696   4.583
 7142WAT      O21667   6.961   4.593   3.614
 7142WAT     H121668   6.945   4.523   3.545
 7142WAT     H221669   7.058   4.594   3.640
 7143WAT      O21670   6.601   1.134   6.725
 7143WAT     H121671   6.584   1.157   6.629
 7143WAT     H221672   6.699   1.130   6.742
 7144WAT      O21673   8.372   4.639   8.430
 7144WAT     H121674   8.459   4.649   8.478
 7144WAT     H221675   8.363   4.545   8.397
 7145WAT      O21676   7.714   4.710   4.235
 7145WAT     H121677   7.645   4.637   4.231
 7145WAT     H221678   7.798   4.678   4.191
 7146WAT      O21679   0.636   5.659   8.303
 7146WAT     H121680   0.672   5.593   8.369
 7146WAT     H221681   0.557   5.621   8.256
 7147WAT      O21682   2.150   8.651   6.154
 7147WAT     H121683   2.174   8.554   6.159
 7147WAT     H221684   2.163   8.684   6.060
 7148WAT      O21685   7.632   2.258   0.693
 7148WAT     H121686   7.638   2.300   0.602
 7148WAT     H221687   7.714   2.203   0.710
 7149WAT      O21688   9.268   2.915   2.440
 7149WAT     H121689   9.266   2.832   2.384
 7149WAT     H221690   9.194   2.976   2.411
 7150WAT      O21691   5.967   7.257   3.976
 7150WAT     H121692   5.892   7.263   3.909
 7150WAT     H221693   5.979   7.162   4.003
 7151WAT      O21694   8.472   3.549   8.475
 7151WAT     H121695   8.512   3.614   8.410
 7151WAT     H221696   8.374   3.567   8.483
 7152WAT      O21697   0.822   2.650   8.476
 7152WAT     H121698   0.878   2.569   8.496
 7152WAT     H221699   0.729   2.621   8.453
 7153WAT      O21700   7.132   4.960   9.628
 7153WAT     H121701   7.218   4.977   9.580
 7153WAT     H221702   7.145   4.887   9.695
 7154WAT      O21703   1.631   2.682   3.535
 7154WAT     H121704   1.713   2.625   3.526
 7154WAT     H221705   1.600   2.681   3.630
 7155WAT      O21706   2.515   4.367   6.033
 7155WAT     H121707   2.511   4.268   6.052
 7155WAT     H221708   2.422   4.404   6.030
 7156WAT      O21709   1.505   2.375   0.433
 7156WAT     H121710   1.516   2.381   0.532
 7156WAT     H221711   1.450   2.453   0.401
 7157WAT      O21712   5.761   0.237   0.210
 7157WAT     H121713   5.812   0.310   0.253
 7157WAT     H221714   5.689   0.205   0.271
 7158WAT      O21715   1.969   8.788   4.846
 7158WAT     H121716   2.051   8.731   4.834
 7158WAT     H221717   1.918   8.791   4.761
 7159WAT      O21718   7.382   6.323   2.923
 7159WAT     H121719   7.462   6.357   2.971
 7159WAT     H221720   7.311   6.300   2.990
 7160WAT      O21721   6.129   5.960   6.923
 7160WAT     H121722   6.111   5.949   6.826
 7160WAT     H221723   6.103   5.877   6.972
 7161WAT      O21724   4.434   9.715   3.136
 7161WAT     H121725   4.390   9.685   3.052
 7161WAT     H221726   4.389   9.672   3.214
 7162WAT      O21727   5.734   5.107   9.781
 7162WAT     H121728   5.702   5.197   9.813
 7162WAT     H221729   5.749   5.047   9.859
 7163WAT      O21730   9.458   4.315   6.326
 7163WAT     H121731   9.473   4.361   6.239
 7163WAT     H221732   9.535   4.255   6.346
 7164WAT      O21733   4.245   4.593   0.283
 7164WAT     H121734   4.271   4.531   0.209
 7164WAT     H221735   4.328   4.635   0.322
 7165WAT      O21736   8.562   7.152   5.463
 7165WAT     H121737   8.467   7.150   5.431
 7165WAT     H221738   8.610   7.230   5.423
 7166WAT      O21739   2.616   7.624   8.468
 7166WAT     H121740   2.563   7.592   8.547
 7166WAT     H221741   2.651   7.545   8.418
 7167WAT      O21742   3.455   1.358   7.461
 7167WAT     H121743   3.548   1.386   7.483
 7167WAT     H221744   3.451   1.259   7.451
 7168WAT      O21745   2.324   8.034   1.860
 7168WAT     H121746   2.385   8.105   1.896
 7168WAT     H221747   2.343   7.947   1.905
 7169WAT      O21748   4.603   1.201   6.355
 7169WAT     H121749   4.558   1.120   6.393
 7169WAT     H221750   4.692   1.175   6.319
 7170WAT      O21751   2.840   3.562   2.742
 7170WAT     H121752   2.803   3.517   2.823
 7170WAT     H221753   2.874   3.494   2.678
 7171WAT      O21754   5.604   3.687   3.063
 7171WAT     H121755   5.654   3.603   3.041
 7171WAT     H221756   5.557   3.720   2.981
 7172WAT      O21757   6.817   0.827   2.225
 7172WAT     H121758   6.878   0.816   2.304
 7172WAT     H221759   6.758   0.747   2.216
 7173WAT      O21760   6.990   6.055   5.742
 7173WAT     H121761   7.029   6.031   5.653
 7173WAT     H221762   6.939   5.978   5.779
 7174WAT      O21763   9.217   2.986   8.762
 7174WAT     H121764   9.240   2.891   8.738
 7174WAT     H221765   9.159   2.987   8.843
 7175WAT      O21766   4.555   1.149   5.728
 7175WAT     H121767   4.609   1.108   5.802
 7175WAT     H221768   4.606   1.226   5.688
 7176WAT      O21769   8.796   7.540   3.741
 7176WAT     H121770   8.864   7.521   3.669
 7176WAT     H221771   8.837   7.524   3.831
 7177WAT      O21772   1.342   0.437   4.105
 7177WAT     H121773   1.264   0.483   4.061
 7177WAT     H221774   1.314   0.346   4.136
 7178WAT      O21775   8.504   8.741   1.989
 7178WAT     H121776   8.563   8.810   1.947
 7178WAT     H221777   8.530   8.729   2.085
 7179WAT      O21778   8.865   8.032   0.169
 7179WAT     H121779   8.780   7.991   0.136
 7179WAT     H221780   8.867   8.129   0.142
 7180WAT      O21781   0.005   7.935   8.470
 7180WAT     H121782  -0.078   7.967   8.425
 7180WAT     H221783   0.017   7.837   8.453
 7181WAT      O21784   7.869   1.911   0.329
 7181WAT     H121785   7.802   1.886   0.258
 7181WAT     H221786   7.947   1.956   0.286
 7182WAT      O21787   7.202   0.016   8.643
 7182WAT     H121788   7.207   0.020   8.743
 7182WAT     H221789   7.224   0.106   8.606
 7183WAT      O21790   2.985   1.582   4.498
 7183WAT     H121791   3.052   1.633   4.552
 7183WAT     H221792   2.977   1.624   4.407
 7184WAT      O21793   7.836   1.643   3.975
 7184WAT     H121794   7.761   1.631   3.910
 7184WAT     H221795   7.898   1.564   3.969
 7185WAT      O21796   1.014   3.401   8.574
 7185WAT     H121797   0.935   3.420   8.516
 7185WAT     H221798   1.082   3.474   8.564
 7186WAT      O21799   6.174   9.598   1.568
 7186WAT     H121800   6.240   9.657   1.614
 7186WAT     H221801   6.154   9.635   1.478
 7187WAT      O21802   3.531   0.126   6.057
 7187WAT     H121803   3.558   0.186   5.981
 7187WAT     H221804   3.540   0.031   6.029
 7188WAT      O21805   3.309   9.739   3.211
 7188WAT     H121806   3.391   9.768   3.161
 7188WAT     H221807   3.255   9.678   3.153
 7189WAT      O21808   7.733   4.814   3.847
 7189WAT     H121809   7.687   4.902   3.859
 7189WAT     H221810   7.826   4.820   3.883
 7190WAT      O21811   0.832   8.116   9.732
 7190WAT     H121812   0.810   8.212   9.751
 7190WAT     H221813   0.773   8.057   9.787
 7191WAT      O21814   7.457   6.659   6.020
 7191WAT     H121815   7.357   6.665   6.017
 7191WAT     H221816   7.484   6.567   6.050
 7192WAT      O21817   0.637   6.244   3.613
 7192WAT     H121818   0.636   6.333   3.658
 7192WAT     H221819   0.657   6.255   3.516
 7193WAT      O21820   3.947   6.731   6.434
 7193WAT     H121821   3.933   6.632   6.431
 7193WAT     H221822   3.897   6.768   6.512
 7194WAT      O21823   4.854   6.939   1.757
 7194WAT     H121824   4.831   6.880   1.834
 7194WAT     H221825   4.877   6.883   1.677
 7195WAT      O21826   2.770   7.395   9.413
 7195WAT     H121827   2.768   7.477   9.470
 7195WAT     H221828   2.761   7.421   9.317
 7196WAT      O21829   1.864   2.666   4.220
 7196WAT     H121830   1.903   2.693   4.309
 7196WAT     H221831   1.854   2.747   4.163
 7197WAT      O21832   4.442   2.210   3.416
 7197WAT     H121833   4.344   2.220   3.433
 7197WAT     H221834   4.456   2.160   3.330
 7198WAT      O21835   4.839   2.986   3.051
 7198WAT     H121836   4.918   2.995   2.990
 7198WAT     H221837   4.869   2.950   3.139
 7199WAT      O21838   2.808   6.770   9.674
 7199WAT     H121839   2.846   6.730   9.757
 7199WAT     H221840   2.771   6.861   9.694
 7200WAT      O21841   8.958   5.286   3.475
 7200WAT     H121842   9.018   5.359   3.508
 7200WAT     H221843   8.867   5.298   3.515
 7201WAT      O21844   0.392   2.251   6.769
 7201WAT     H121845   0.313   2.225   6.825
 7201WAT     H221846   0.438   2.168   6.736
 7202WAT      O21847   4.548   4.633   9.791
 7202WAT     H121848   4.571   4.620   9.694
 7202WAT     H221849   4.631   4.656   9.842
 7203WAT      O21850   7.879   6.087   5.677
 7203WAT     H121851   7.872   5.987   5.673
 7203WAT     H221852   7.890   6.123   5.584
 7204WAT      O21853   7.396   2.706   9.255
 7204WAT     H121854   7.337   2.762   9.197
 7204WAT     H221855   7.468   2.763   9.293
 7205WAT      O21856   3.304   4.288   5.828
 7205WAT     H121857   3.321   4.385   5.812
 7205WAT     H221858   3.330   4.236   5.746
 7206WAT      O21859   0.290   2.500   7.557
 7206WAT     H121860   0.335   2.476   7.643
 7206WAT     H221861   0.351   2.555   7.501
 7207WAT      O21862   2.302   6.169   1.593
 7207WAT     H121863   2.229   6.235   1.610
 7207WAT     H221864   2.351   6.194   1.510
 7208WAT      O21865   1.699   0.634   5.169
 7208WAT     H121866   1.736   0.727   5.159
 7208WAT     H221867   1.673   0.600   5.079
 7209WAT      O21868   3.354   1.858   8.414
 7209WAT     H121869   3.435   1.834   8.468
 7209WAT     H221870   3.319   1.947   8.444
 7210WAT      O21871   6.009   7.359   5.208
 7210WAT     H121872   5.978   7.442   5.256
 7210WAT     H221873   5.933   7.322   5.153
 7211WAT      O21874   2.360   0.283   7.748
 7211WAT     H121875   2.299   0.294   7.669
 7211WAT     H221876   2.305   0.272   7.831
 7212WAT      O21877   5.850   8.824   0.039
 7212WAT     H121878   5.895   8.911   0.053
 7212WAT     H221879   5.777   8.813   0.107
 7213WAT      O21880   4.164   7.008   2.380
 7213WAT     H121881   4.260   7.017   2.405
 7213WAT     H221882   4.112   6.967   2.455
 7214WAT      O21883   9.636   5.831   3.026
 7214WAT     H121884   9.682   5.896   3.087
 7214WAT     H221885   9.585   5.881   2.956
 7215WAT      O21886   9.873   9.637   7.114
 7215WAT     H121887   9.819   9.685   7.045
 7215WAT     H221888   9.845   9.668   7.205
 7216WAT      O21889   2.256   8.539   8.877
 7216WAT     H121890   2.313   8.622   8.884
 7216WAT     H221891   2.203   8.543   8.792
 7217WAT      O21892   9.655   5.358   2.366
 7217WAT     H121893   9.672   5.267   2.328
 7217WAT     H221894   9.607   5.414   2.298
 7218WAT      O21895   2.389   5.793   2.683
 7218WAT     H121896   2.476   5.798   2.733
 7218WAT     H221897   2.327   5.863   2.718
 7219WAT      O21898   5.805   2.789   8.643
 7219WAT     H121899   5.724   2.780   8.585
 7219WAT     H221900   5.818   2.885   8.665
 7220WAT      O21901   4.616   2.367   9.254
 7220WAT     H121902   4.667   2.284   9.277
 7220WAT     H221903   4.520   2.344   9.236
 7221WAT      O21904   6.530   9.079   2.237
 7221WAT     H121905   6.546   9.157   2.296
 7221WAT     H221906   6.588   9.003   2.265
 7222WAT      O21907   7.394   3.363   5.511
 7222WAT     H121908   7.427   3.306   5.436
 7222WAT     H221909   7.299   3.339   5.531
 7223WAT      O21910   4.963   7.897   4.422
 7223WAT     H121911   5.059   7.888   4.396
 7223WAT     H221912   4.956   7.922   4.518
 7224WAT      O21913   4.096   8.470   0.224
 7224WAT     H121914   4.018   8.510   0.273
 7224WAT     H221915   4.064   8.426   0.141
 7225WAT      O21916   4.963   0.680   5.005
 7225WAT     H121917   5.018   0.762   5.022
 7225WAT     H221918   5.004   0.602   5.053
 7226WAT      O21919   2.719   2.780   7.242
 7226WAT     H121920   2.796   2.814   7.187
 7226WAT     H221921   2.746   2.779   7.339
 7227WAT      O21922   4.191   8.410   2.044
 7227WAT     H121923   4.257   8.485   2.051
 7227WAT     H221924   4.230   8.328   2.084
 7228WAT      O21925   1.193   8.475   6.155
 7228WAT     H121926   1.195   8.549   6.088
 7228WAT     H221927   1.246   8.501   6.236
 7229WAT      O21928   0.758   8.941   2.822
 7229WAT     H121929   0.851   8.904   2.820
 7229WAT     H221930   0.694   8.869   2.796
 7230WAT      O21931   6.940   9.096   2.634
 7230WAT     H121932   6.854   9.115   2.681
 7230WAT     H221933   7.012   9.153   2.673
 7231WAT      O21934   2.861   8.975   4.678
 7231WAT     H121935   2.956   8.996   4.699
 7231WAT     H221936   2.830   9.032   4.602
 7232WAT      O21937   8.246   5.922   3.452
 7232WAT     H121938   8.173   5.853   3.448
 7232WAT     H221939   8.235   5.985   3.375
 7233WAT      O21940   8.776   7.254   7.826
 7233WAT     H121941   8.808   7.329   7.768
 7233WAT     H221942   8.847   7.231   7.892
 7234WAT      O21943   6.095   0.013   3.725
 7234WAT     H121944   6.135   0.092   3.772
 7234WAT     H221945   6.165  -0.029   3.667
 7235WAT      O21946   6.578   7.881   1.598
 7235WAT     H121947   6.551   7.788   1.574
 7235WAT     H221948   6.666   7.903   1.554
 7236WAT      O21949   1.339   7.038   2.011
 7236WAT     H121950   1.306   7.025   2.104
 7236WAT     H221951   1.307   6.961   1.954
 7237WAT      O21952   4.962   6.594   1.795
 7237WAT     H121953   5.031   6.629   1.859
 7237WAT     H221954   5.008   6.540   1.724
 7238WAT      O21955   5.842   6.629   8.037
 7238WAT     H121956   5.911   6.688   8.078
 7238WAT     H221957   5.851   6.536   8.074
 7239WAT      O21958   4.987   4.840   9.374
 7239WAT     H121959   5.043   4.922   9.374
 7239WAT     H221960   4.938   4.832   9.287
 7240WAT      O21961   2.035   6.938   7.107
 7240WAT     H121962   2.070   6.984   7.188
 7240WAT     H221963   2.002   7.005   7.041
 7241WAT      O21964   9.714   4.462   6.500
 7241WAT     H121965   9.704   4.508   6.412
 7241WAT     H221966   9.801   4.490   6.542
 7242WAT      O21967   2.823   1.129   2.843
 7242WAT     H121968   2.904   1.077   2.818
 7242WAT     H221969   2.830   1.159   2.938
 7243WAT      O21970   4.231   7.644   3.014
 7243WAT     H121971   4.305   7.675   2.954
 7243WAT     H221972   4.266   7.575   3.077
 7244WAT      O21973   2.393   2.058   2.604
 7244WAT     H121974   2.460   2.022   2.668
 7244WAT     H221975   2.370   1.989   2.536
 7245WAT      O21976   6.309   1.853   4.207
 7245WAT     H121977   6.275   1.934   4.159
 7245WAT     H221978   6.388   1.815   4.159
 7246WAT      O21979   3.396   6.822   3.405
 7246WAT     H121980   3.300   6.827   3.379
 7246WAT     H221981   3.403   6.798   3.502
 7247WAT      O21982   9.614   5.728   9.393
 7247WAT     H121983   9.646   5.635   9.375
 7247WAT     H221984   9.517   5.735   9.369
 7248WAT      O21985   3.474   4.584   0.388
 7248WAT     H121986   3.496   4.518   0.459
 7248WAT     H221987   3.558   4.619   0.347
 7249WAT      O21988   2.375   8.580   0.588
 7249WAT     H121989   2.396   8.583   0.686
 7249WAT     H221990   2.278   8.602   0.574
 7250WAT      O21991   6.260   0.330   7.342
 7250WAT     H121992   6.185   0.386   7.379
 7250WAT     H221993   6.347   0.375   7.360
 7251WAT      O21994   8.611   1.865   7.434
 7251WAT     H121995   8.561   1.864   7.347
 7251WAT     H221996   8.689   1.802   7.428
 7252WAT      O21997   7.672   9.558   1.485
 7252WAT     H121998   7.750   9.598   1.533
 7252WAT     H221999   7.680   9.458   1.487
 7253WAT      O22000   5.265   0.199   5.134
 7253WAT     H122001   5.296   0.217   5.041
 7253WAT     H222002   5.276   0.102   5.154
 7254WAT      O22003   3.819   9.173   7.587
 7254WAT     H122004   3.870   9.193   7.670
 7254WAT     H222005   3.791   9.258   7.543
 7255WAT      O22006   7.004   2.751   2.267
 7255WAT     H122007   6.925   2.810   2.252
 7255WAT     H222008   6.978   2.656   2.250
 7256WAT      O22009   4.776   5.707   7.440
 7256WAT     H122010   4.802   5.623   7.486
 7256WAT     H222011   4.779   5.783   7.505
 7257WAT      O22012   5.830   3.721   3.679
 7257WAT     H122013   5.776   3.682   3.604
 7257WAT     H222014   5.805   3.675   3.764
 7258WAT      O22015   8.264   4.674   0.565
 7258WAT     H122016   8.324   4.714   0.497
 7258WAT     H222017   8.210   4.601   0.523
 7259WAT      O22018   6.640   0.988   6.107
 7259WAT     H122019   6.608   1.077   6.142
 7259WAT     H222020   6.715   1.002   6.043
 7260WAT      O22021   9.688   4.317   9.084
 7260WAT     H122022   9.626   4.358   9.151
 7260WAT     H222023   9.759   4.265   9.131
 7261WAT      O22024   9.507   6.812   5.142
 7261WAT     H122025   9.437   6.855   5.085
 7261WAT     H222026   9.576   6.881   5.166
 7262WAT      O22027   7.415   1.308   0.092
 7262WAT     H122028   7.512   1.327   0.105
 7262WAT     H222029   7.373   1.380   0.037
 7263WAT      O22030   5.589   0.273   4.257
 7263WAT     H122031   5.638   0.203   4.308
 7263WAT     H222032   5.597   0.254   4.159
 7264WAT      O22033   6.442   8.428   8.211
 7264WAT     H122034   6.362   8.437   8.271
 7264WAT     H222035   6.524   8.459   8.259
 7265WAT      O22036   5.458   2.401   2.479
 7265WAT     H122037   5.433   2.447   2.564
 7265WAT     H222038   5.437   2.304   2.486
 7266WAT      O22039   5.310   1.218   2.636
 7266WAT     H122040   5.251   1.158   2.580
 7266WAT     H222041   5.405   1.205   2.609
 7267WAT      O22042   5.905   3.089   6.186
 7267WAT     H122043   5.925   3.173   6.135
 7267WAT     H222044   5.986   3.060   6.237
 7268WAT      O22045   2.927   6.112   0.307
 7268WAT     H122046   2.985   6.078   0.381
 7268WAT     H222047   2.903   6.035   0.247
 7269WAT      O22048   1.822   7.561   0.921
 7269WAT     H122049   1.874   7.520   0.846
 7269WAT     H222050   1.885   7.586   0.995
 7270WAT      O22051   9.685   8.667   2.228
 7270WAT     H122052   9.678   8.743   2.164
 7270WAT     H222053   9.774   8.623   2.220
 7271WAT      O22054   4.164   3.672   8.319
 7271WAT     H122055   4.201   3.627   8.238
 7271WAT     H222056   4.072   3.638   8.338
 7272WAT      O22057   3.870   1.772   3.731
 7272WAT     H122058   3.857   1.673   3.733
 7272WAT     H222059   3.962   1.793   3.696
 7273WAT      O22060   4.208   6.275   7.324
 7273WAT     H122061   4.112   6.303   7.335
 7273WAT     H222062   4.229   6.203   7.390
 7274WAT      O22063   2.573   9.639   3.212
 7274WAT     H122064   2.642   9.568   3.198
 7274WAT     H222065   2.492   9.618   3.157
 7275WAT      O22066   0.317   7.563   4.110
 7275WAT     H122067   0.351   7.469   4.113
 7275WAT     H222068   0.360   7.616   4.184
 7276WAT      O22069   3.341   1.745   4.319
 7276WAT     H122070   3.315   1.838   4.344
 7276WAT     H222071   3.432   1.725   4.355
 7277WAT      O22072   1.820   9.837   6.125
 7277WAT     H122073   1.910   9.842   6.082
 7277WAT     H222074   1.829   9.805   6.219
 7278WAT      O22075   3.101   7.568   0.004
 7278WAT     H122076   3.057   7.518   0.079
 7278WAT     H222077   3.194   7.533  -0.009
 7279WAT      O22078   9.833   9.601   8.370
 7279WAT     H122079   9.839   9.644   8.280
 7279WAT     H222080   9.837   9.502   8.361
 7280WAT      O22081   0.908   8.744   7.503
 7280WAT     H122082   0.975   8.802   7.457
 7280WAT     H222083   0.952   8.657   7.528
 7281WAT      O22084   6.712   4.686   9.251
 7281WAT     H122085   6.793   4.714   9.199
 7281WAT     H222086   6.717   4.724   9.343
 7282WAT      O22087   2.846   4.495   7.454
 7282WAT     H122088   2.867   4.456   7.544
 7282WAT     H222089   2.755   4.463   7.425
 7283WAT      O22090   1.873   7.104   8.489
 7283WAT     H122091   1.865   7.059   8.578
 7283WAT     H222092   1.936   7.181   8.497
 7284WAT      O22093   7.351   0.927   7.417
 7284WAT     H122094   7.444   0.946   7.445
 7284WAT     H222095   7.287   0.983   7.470
 7285WAT      O22096   4.998   9.515   4.704
 7285WAT     H122097   4.998   9.615   4.712
 7285WAT     H222098   5.085   9.484   4.667
 7286WAT      O22099   3.691   4.211   2.875
 7286WAT     H122100   3.767   4.158   2.914
 7286WAT     H222101   3.715   4.239   2.782
 7287WAT      O22102   6.608   5.129   7.951
 7287WAT     H122103   6.696   5.156   7.990
 7287WAT     H222104   6.537   5.191   7.984
 7288WAT      O22105   7.725   0.092   7.074
 7288WAT     H122106   7.765   0.011   7.116
 7288WAT     H222107   7.789   0.169   7.082
 7289WAT      O22108   3.689   2.425   2.791
 7289WAT     H122109   3.627   2.369   2.845
 7289WAT     H222110   3.646   2.513   2.772
 7290WAT      O22111   6.266   5.922   3.461
 7290WAT     H122112   6.189   5.983   3.441
 7290WAT     H222113   6.330   5.924   3.384
 7291WAT      O22114   5.838   3.831   6.643
 7291WAT     H122115   5.789   3.746   6.626
 7291WAT     H222116   5.905   3.846   6.571
 7292WAT      O22117   4.014   3.526   0.869
 7292WAT     H122118   4.099   3.478   0.847
 7292WAT     H222119   3.945   3.459   0.899
 7293WAT      O22120   1.454   8.130   1.618
 7293WAT     H122121   1.498   8.213   1.582
 7293WAT     H222122   1.424   8.146   1.712
 7294WAT      O22123   5.433   3.533   6.781
 7294WAT     H122124   5.417   3.461   6.714
 7294WAT     H222125   5.465   3.492   6.867
 7295WAT      O22126   7.409   5.705   5.375
 7295WAT     H122127   7.363   5.650   5.445
 7295WAT     H222128   7.347   5.777   5.344
 7296WAT      O22129   2.021   0.435   9.515
 7296WAT     H122130   2.017   0.438   9.615
 7296WAT     H222131   1.931   0.411   9.478
 7297WAT      O22132   9.358   0.557   0.233
 7297WAT     H122133   9.327   0.585   0.324
 7297WAT     H222134   9.343   0.459   0.221
 7298WAT      O22135   1.494   4.728   3.208
 7298WAT     H122136   1.556   4.667   3.259
 7298WAT     H222137   1.513   4.720   3.110
 7299WAT      O22138   2.954   5.948   8.629
 7299WAT     H122139   2.962   5.966   8.531
 7299WAT     H222140   2.985   5.855   8.648
 7300WAT      O22141   6.804   3.414   9.820
 7300WAT     H122142   6.789   3.400   9.917
 7300WAT     H222143   6.803   3.326   9.772
 7301WAT      O22144   4.296   3.349   3.885
 7301WAT     H122145   4.233   3.369   3.960
 7301WAT     H222146   4.267   3.398   3.803
 7302WAT      O22147   2.477   3.650   8.867
 7302WAT     H122148   2.520   3.625   8.954
 7302WAT     H222149   2.399   3.591   8.850
 7303WAT      O22150   2.639   8.501   8.971
 7303WAT     H122151   2.729   8.491   8.928
 7303WAT     H222152   2.596   8.586   8.939
 7304WAT      O22153   2.154   1.626   6.260
 7304WAT     H122154   2.238   1.677   6.280
 7304WAT     H222155   2.080   1.691   6.243
 7305WAT      O22156   5.830   0.134   7.097
 7305WAT     H122157   5.792   0.042   7.096
 7305WAT     H222158   5.923   0.132   7.133
 7306WAT      O22159   4.232   4.529   3.251
 7306WAT     H122160   4.149   4.504   3.201
 7306WAT     H222161   4.223   4.500   3.346
 7307WAT      O22162   9.256   4.594   1.608
 7307WAT     H122163   9.264   4.692   1.590
 7307WAT     H222164   9.233   4.547   1.523
 7308WAT      O22165   2.833   0.055   9.054
 7308WAT     H122166   2.857   0.120   9.126
 7308WAT     H222167   2.842  -0.038   9.089
 7309WAT      O22168   3.352   3.890   7.776
 7309WAT     H122169   3.338   3.805   7.826
 7309WAT     H222170   3.450   3.907   7.765
 7310WAT      O22171   7.741   9.084   0.597
 7310WAT     H122172   7.699   9.142   0.666
 7310WAT     H222173   7.779   9.002   0.640
 7311WAT      O22174   8.067   5.600   1.036
 7311WAT     H122175   8.132   5.535   1.074
 7311WAT     H222176   8.111   5.654   0.964
 7312WAT      O22177   9.435   1.184   4.904
 7312WAT     H122178   9.385   1.259   4.861
 7312WAT     H222179   9.452   1.206   5.000
 7313WAT      O22180   7.677   9.001   7.904
 7313WAT     H122181   7.716   8.928   7.848
 7313WAT     H222182   7.578   8.993   7.906
 7314WAT      O22183   7.827   2.147   7.503
 7314WAT     H122184   7.893   2.176   7.572
 7314WAT     H222185   7.805   2.224   7.443
 7315WAT      O22186   5.226   3.059   6.551
 7315WAT     H122187   5.145   3.086   6.499
 7315WAT     H222188   5.299   3.034   6.487
 7316WAT      O22189   4.403   9.766   9.046
 7316WAT     H122190   4.448   9.774   8.958
 7316WAT     H222191   4.459   9.810   9.116
 7317WAT      O22192   3.905   7.759   3.938
 7317WAT     H122193   3.826   7.801   3.982
 7317WAT     H222194   3.965   7.719   4.008
 7318WAT      O22195   9.230   3.810   8.026
 7318WAT     H122196   9.179   3.863   8.094
 7318WAT     H222197   9.327   3.807   8.053
 7319WAT      O22198   7.963   7.711   2.662
 7319WAT     H122199   8.005   7.768   2.592
 7319WAT     H222200   8.031   7.688   2.732
 7320WAT      O22201   8.352   4.214   2.292
 7320WAT     H122202   8.344   4.313   2.278
 7320WAT     H222203   8.260   4.174   2.296
 7321WAT      O22204   2.692   3.598   8.684
 7321WAT     H122205   2.736   3.511   8.706
 7321WAT     H222206   2.609   3.609   8.739
 7322WAT      O22207   6.748   1.392   4.416
 7322WAT     H122208   6.699   1.461   4.361
 7322WAT     H222209   6.756   1.307   4.364
 7323WAT      O22210   1.756   9.438   8.794
 7323WAT     H122211   1.712   9.526   8.772
 7323WAT     H222212   1.694   9.363   8.771
 7324WAT      O22213   2.900   5.536   2.761
 7324WAT     H122214   2.880   5.622   2.714
 7324WAT     H222215   2.839   5.525   2.839
 7325WAT      O22216   3.277   8.991   9.112
 7325WAT     H122217   3.233   8.904   9.136
 7325WAT     H222218   3.351   9.009   9.176
 7326WAT      O22219   1.559   2.923   9.173
 7326WAT     H122220   1.530   2.886   9.085
 7326WAT     H222221   1.636   2.870   9.208
 7327WAT      O22222   6.719   8.921   2.325
 7327WAT     H122223   6.780   8.994   2.354
 7327WAT     H222224   6.743   8.892   2.232
 7328WAT      O22225   2.668   1.856   5.483
 7328WAT     H122226   2.734   1.834   5.411
 7328WAT     H222227   2.578   1.820   5.458
 7329WAT      O22228   6.031   0.690   4.520
 7329WAT     H122229   6.086   0.609   4.539
 7329WAT     H222230   6.075   0.770   4.562
 7330WAT      O22231   9.843   1.851   5.051
 7330WAT     H122232   9.880   1.850   4.958
 7330WAT     H222233   9.898   1.911   5.108
 7331WAT      O22234   9.063   3.948   9.001
 7331WAT     H122235   9.139   3.882   9.001
 7331WAT     H222236   9.076   4.014   8.927
 7332WAT      O22237   0.815   8.468   3.114
 7332WAT     H122238   0.869   8.385   3.129
 7332WAT     H222239   0.822   8.527   3.194
 7333WAT      O22240   9.004   0.905   5.963
 7333WAT     H122241   8.960   0.993   5.949
 7333WAT     H222242   8.935   0.834   5.974
 7334WAT      O22243   4.171   7.985   4.048
 7334WAT     H122244   4.191   7.928   4.127
 7334WAT     H222245   4.077   7.967   4.016
 7335WAT      O22246   3.337   8.112   4.977
 7335WAT     H122247   3.245   8.107   4.938
 7335WAT     H222248   3.404   8.087   4.908
 7336WAT      O22249   7.261   9.133   8.748
 7336WAT     H122250   7.249   9.158   8.844
 7336WAT     H222251   7.223   9.042   8.732
 7337WAT      O22252   8.998   9.470   4.155
 7337WAT     H122253   9.067   9.477   4.083
 7337WAT     H222254   8.908   9.494   4.118
 7338WAT      O22255   8.088   6.252   9.239
 7338WAT     H122256   8.150   6.283   9.310
 7338WAT     H222257   8.139   6.206   9.166
 7339WAT      O22258   5.626   4.649   7.945
 7339WAT     H122259   5.591   4.687   8.031
 7339WAT     H222260   5.593   4.556   7.933
 7340WAT      O22261   2.801   4.163   8.529
 7340WAT     H122262   2.808   4.156   8.628
 7340WAT     H222263   2.807   4.072   8.489
 7341WAT      O22264   4.503   0.833   7.084
 7341WAT     H122265   4.426   0.771   7.090
 7341WAT     H222266   4.570   0.798   7.018
 7342WAT      O22267   2.177   7.342   1.330
 7342WAT     H122268   2.138   7.430   1.358
 7342WAT     H222269   2.251   7.317   1.392
 7343WAT      O22270   2.162   8.519   8.602
 7343WAT     H122271   2.114   8.534   8.515
 7343WAT     H222272   2.199   8.426   8.604
 7344WAT      O22273   3.570   1.769   7.510
 7344WAT     H122274   3.608   1.707   7.442
 7344WAT     H222275   3.619   1.856   7.507
 7345WAT      O22276   8.637   8.663   7.509
 7345WAT     H122277   8.664   8.714   7.427
 7345WAT     H222278   8.673   8.708   7.590
 7346WAT      O22279   9.173   3.902   2.824
 7346WAT     H122280   9.186   3.973   2.754
 7346WAT     H222281   9.119   3.940   2.900
 7347WAT      O22282   5.246   5.126   6.901
 7347WAT     H122283   5.258   5.060   6.976
 7347WAT     H222284   5.309   5.103   6.827
 7348WAT      O22285   3.483   3.239   6.912
 7348WAT     H122286   3.549   3.280   6.976
 7348WAT     H222287   3.523   3.158   6.871
 7349WAT      O22288   8.419   3.482   5.184
 7349WAT     H122289   8.327   3.448   5.164
 7349WAT     H222290   8.445   3.456   5.277
 7350WAT      O22291   0.665   6.497   8.720
 7350WAT     H122292   0.729   6.572   8.736
 7350WAT     H222293   0.705   6.432   8.655
 7351WAT      O22294   3.026   7.599   9.166
 7351WAT     H122295   3.014   7.698   9.168
 7351WAT     H222296   2.937   7.555   9.158
 7352WAT      O22297   1.569   1.975   7.019
 7352WAT     H122298   1.527   1.931   7.099
 7352WAT     H222299   1.584   2.072   7.039
 7353WAT      O22300   8.077   0.853   2.559
 7353WAT     H122301   8.065   0.945   2.521
 7353WAT     H222302   8.070   0.786   2.486
 7354WAT      O22303   9.423   9.411   8.766
 7354WAT     H122304   9.443   9.481   8.835
 7354WAT     H222305   9.469   9.435   8.681
 7355WAT      O22306   3.751   1.091   6.622
 7355WAT     H122307   3.800   1.021   6.673
 7355WAT     H222308   3.810   1.127   6.550
 7356WAT      O22309   3.829   4.452   5.552
 7356WAT     H122310   3.803   4.405   5.468
 7356WAT     H222311   3.823   4.388   5.630
 7357WAT      O22312   6.758   3.072   8.218
 7357WAT     H122313   6.773   2.975   8.203
 7357WAT     H222314   6.746   3.119   8.130
 7358WAT      O22315   3.661   0.477   5.857
 7358WAT     H122316   3.613   0.488   5.771
 7358WAT     H222317   3.611   0.524   5.930
 7359WAT      O22318   9.014   4.084   7.708
 7359WAT     H122319   8.997   4.117   7.801
 7359WAT     H222320   9.106   4.045   7.703
 7360WAT      O22321   8.343   4.783   8.716
 7360WAT     H122322   8.331   4.852   8.788
 7360WAT     H222323   8.276   4.799   8.644
 7361WAT      O22324   9.787   5.826   3.313
 7361WAT     H122325   9.802   5.740   3.263
 7361WAT     H222326   9.853   5.834   3.387
 7362WAT      O22327   7.692   7.563   7.104
 7362WAT     H122328   7.723   7.502   7.176
 7362WAT     H222329   7.762   7.631   7.085
 7363WAT      O22330   5.079   1.693   7.967
 7363WAT     H122331   5.025   1.610   7.981
 7363WAT     H222332   5.165   1.686   8.019
 7364WAT      O22333   6.590   4.215   2.008
 7364WAT     H122334   6.558   4.179   2.096
 7364WAT     H222335   6.538   4.172   1.934
 7365WAT      O22336   5.631   2.647   8.825
 7365WAT     H122337   5.719   2.665   8.780
 7365WAT     H222338   5.573   2.728   8.819
 7366WAT      O22339   9.153   6.191   2.586
 7366WAT     H122340   9.136   6.211   2.683
 7366WAT     H222341   9.209   6.262   2.546
 7367WAT      O22342   7.662   7.449   0.564
 7367WAT     H122343   7.571   7.492   0.565
 7367WAT     H222344   7.729   7.513   0.601
 7368WAT      O22345   5.256   2.440   6.132
 7368WAT     H122346   5.283   2.529   6.094
 7368WAT     H222347   5.302   2.367   6.081
 7369WAT      O22348   9.592   6.720   0.491
 7369WAT     H122349   9.551   6.630   0.505
 7369WAT     H222350   9.534   6.774   0.430
 7370WAT      O22351   0.759   6.464   3.992
 7370WAT     H122352   0.727   6.499   4.080
 7370WAT     H222353   0.722   6.372   3.978
 7371WAT      O22354   2.527   5.118   3.196
 7371WAT     H122355   2.585   5.142   3.118
 7371WAT     H222356   2.432   5.135   3.172
 7372WAT      O22357   5.004   7.241   9.550
 7372WAT     H122358   4.943   7.163   9.555
 7372WAT     H222359   4.969   7.308   9.485
 7373WAT      O22360   3.500   5.896   0.530
 7373WAT     H122361   3.425   5.909   0.465
 7373WAT     H222362   3.521   5.799   0.539
 7374WAT      O22363   3.580   6.450   0.200
 7374WAT     H122364   3.571   6.351   0.200
 7374WAT     H222365   3.673   6.475   0.225
 7375WAT      O22366   9.142   8.460   7.108
 7375WAT     H122367   9.155   8.381   7.168
 7375WAT     H222368   9.182   8.541   7.150
 7376WAT      O22369   8.457   0.358   1.593
 7376WAT     H122370   8.527   0.297   1.555
 7376WAT     H222371   8.497   0.449   1.608
 7377WAT      O22372   8.568   9.435   9.373
 7377WAT     H122373   8.488   9.395   9.327
 7377WAT     H222374   8.559   9.424   9.472
 7378WAT      O22375   4.133   0.915   4.823
 7378WAT     H122376   4.084   0.996   4.791
 7378WAT     H222377   4.187   0.940   4.904
 7379WAT      O22378   7.310   4.466   9.505
 7379WAT     H122379   7.356   4.510   9.583
 7379WAT     H222380   7.253   4.534   9.458
 7380WAT      O22381   4.060   0.926   7.840
 7380WAT     H122382   4.012   0.990   7.902
 7380WAT     H222383   4.040   0.951   7.745
 7381WAT      O22384   6.975   5.372   3.079
 7381WAT     H122385   7.036   5.295   3.061
 7381WAT     H222386   6.882   5.338   3.097
 7382WAT      O22387   1.985   2.999   7.335
 7382WAT     H122388   2.076   3.039   7.345
 7382WAT     H222389   1.982   2.943   7.253
 7383WAT      O22390   5.430   1.390   2.967
 7383WAT     H122391   5.364   1.433   3.028
 7383WAT     H222392   5.471   1.310   3.012
 7384WAT      O22393   7.714   9.123   2.572
 7384WAT     H122394   7.728   9.218   2.545
 7384WAT     H222395   7.616   9.104   2.579
 7385WAT      O22396   1.721   1.335   8.158
 7385WAT     H122397   1.667   1.311   8.078
 7385WAT     H222398   1.799   1.391   8.131
 7386WAT      O22399   0.770   5.039   0.356
 7386WAT     H122400   0.836   4.988   0.412
 7386WAT     H222401   0.680   4.996   0.364
 7387WAT      O22402   5.402   4.263   7.253
 7387WAT     H122403   5.358   4.180   7.218
 7387WAT     H222404   5.358   4.343   7.211
 7388WAT      O22405   8.033   4.447   8.647
 7388WAT     H122406   7.980   4.525   8.615
 7388WAT     H222407   7.975   4.388   8.704
 7389WAT      O22408   6.028   4.397   8.801
 7389WAT     H122409   5.933   4.367   8.810
 7389WAT     H222410   6.073   4.345   8.729
 7390WAT      O22411   7.166   7.521   0.707
 7390WAT     H122412   7.104   7.447   0.734
 7390WAT     H222413   7.119   7.609   0.715
 7391WAT      O22414   3.245   5.556   0.263
 7391WAT     H122415   3.196   5.636   0.228
 7391WAT     H222416   3.333   5.547   0.216
 7392WAT      O22417   3.269   7.566   1.684
 7392WAT     H122418   3.334   7.637   1.656
 7392WAT     H222419   3.303   7.477   1.653
 7393WAT      O22420   6.311   3.299   5.303
 7393WAT     H122421   6.387   3.235   5.313
 7393WAT     H222422   6.289   3.311   5.206
 7394WAT      O22423   8.963   0.548   4.076
 7394WAT     H122424   9.048   0.536   4.025
 7394WAT     H222425   8.979   0.607   4.155
 7395WAT      O22426   3.416   5.563   4.503
 7395WAT     H122427   3.409   5.635   4.572
 7395WAT     H222428   3.511   5.555   4.473
 7396WAT      O22429   9.285   6.425   2.562
 7396WAT     H122430   9.328   6.437   2.651
 7396WAT     H222431   9.324   6.491   2.497
 7397WAT      O22432   0.259   5.089   8.415
 7397WAT     H122433   0.251   4.990   8.402
 7397WAT     H222434   0.260   5.109   8.513
 7398WAT      O22435   6.988   0.374   9.824
 7398WAT     H122436   6.898   0.395   9.786
 7398WAT     H222437   6.984   0.377   9.924
 7399WAT      O22438   8.051   7.561   3.348
 7399WAT     H122439   8.082   7.605   3.263
 7399WAT     H222440   7.986   7.621   3.394
 7400WAT      O22441   2.673   3.415   1.582
 7400WAT     H122442   2.643   3.409   1.677
 7400WAT     H222443   2.704   3.508   1.562
 7401WAT      O22444   7.377   3.016   6.881
 7401WAT     H122445   7.372   2.988   6.977
 7401WAT     H222446   7.395   2.937   6.824
 7402WAT      O22447   0.793   9.538   6.816
 7402WAT     H122448   0.819   9.462   6.876
 7402WAT     H222449   0.868   9.555   6.752
 7403WAT      O22450   9.431   0.883   7.532
 7403WAT     H122451   9.456   0.787   7.532
 7403WAT     H222452   9.413   0.913   7.625
 7404WAT      O22453   2.281   2.578   0.748
 7404WAT     H122454   2.202   2.518   0.756
 7404WAT     H222455   2.365   2.526   0.764
 7405WAT      O22456   6.136   9.614   4.980
 7405WAT     H122457   6.104   9.577   4.893
 7405WAT     H222458   6.232   9.641   4.971
 7406WAT      O22459   1.033   6.670   6.953
 7406WAT     H122460   1.061   6.645   7.046
 7406WAT     H222461   0.942   6.633   6.934
 7407WAT      O22462   0.205   4.179   6.896
 7407WAT     H122463   0.204   4.271   6.934
 7407WAT     H222464   0.297   4.157   6.865
 7408WAT      O22465   8.359   4.927   1.319
 7408WAT     H122466   8.262   4.934   1.297
 7408WAT     H222467   8.388   4.832   1.310
 7409WAT      O22468   1.667   6.236   0.061
 7409WAT     H122469   1.669   6.156   0.001
 7409WAT     H222470   1.573   6.256   0.087
 7410WAT      O22471   7.617   0.729   7.888
 7410WAT     H122472   7.543   0.680   7.934
 7410WAT     H222473   7.579   0.792   7.820
 7411WAT      O22474   8.794   5.894   0.405
 7411WAT     H122475   8.830   5.950   0.479
 7411WAT     H222476   8.835   5.922   0.318
 7412WAT      O22477   6.962   1.624   6.674
 7412WAT     H122478   6.896   1.686   6.634
 7412WAT     H222479   6.952   1.623   6.774
 7413WAT      O22480   6.205   0.052   0.986
 7413WAT     H122481   6.199  -0.045   0.965
 7413WAT     H222482   6.248   0.100   0.910
 7414WAT      O22483   7.679   1.564   5.021
 7414WAT     H122484   7.668   1.471   5.056
 7414WAT     H222485   7.745   1.563   4.946
 7415WAT      O22486   6.410   5.888   6.898
 7415WAT     H122487   6.419   5.798   6.856
 7415WAT     H222488   6.312   5.910   6.908
 7416WAT      O22489   0.950   9.292   5.650
 7416WAT     H122490   0.856   9.275   5.622
 7416WAT     H222491   0.989   9.208   5.688
 7417WAT      O22492   5.734   9.675   7.720
 7417WAT     H122493   5.829   9.677   7.751
 7417WAT     H222494   5.680   9.736   7.778
 7418WAT      O22495   1.294   6.065   0.807
 7418WAT     H122496   1.202   6.064   0.844
 7418WAT     H222497   1.337   6.153   0.827
 7419WAT      O22498   8.328   7.498   4.192
 7419WAT     H122499   8.389   7.440   4.138
 7419WAT     H222500   8.353   7.492   4.289
 7420WAT      O22501   5.697   5.737   0.026
 7420WAT     H122502   5.669   5.679  -0.051
 7420WAT     H222503   5.672   5.832   0.008
 7421WAT      O22504   7.597   7.927   8.419
 7421WAT     H122505   7.513   7.879   8.394
 7421WAT     H222506   7.634   7.890   8.504
 7422WAT      O22507   1.741   7.210   2.279
 7422WAT     H122508   1.694   7.158   2.207
 7422WAT     H222509   1.673   7.256   2.336
 7423WAT      O22510   5.389   0.631   7.270
 7423WAT     H122511   5.477   0.672   7.293
 7423WAT     H222512   5.390   0.534   7.295
 7424WAT      O22513   0.250   2.418   2.548
 7424WAT     H122514   0.271   2.421   2.450
 7424WAT     H222515   0.336   2.421   2.600
 7425WAT      O22516   8.443   7.870   7.885
 7425WAT     H122517   8.344   7.883   7.897
 7425WAT     H222518   8.460   7.799   7.817
 7426WAT      O22519   3.296   4.827   4.950
 7426WAT     H122520   3.267   4.872   4.866
 7426WAT     H222521   3.380   4.869   4.983
 7427WAT      O22522   0.147   7.726   6.290
 7427WAT     H122523   0.149   7.797   6.220
 7427WAT     H222524   0.075   7.748   6.357
 7428WAT      O22525   4.020   0.580   3.686
 7428WAT     H122526   4.031   0.496   3.633
 7428WAT     H222527   4.096   0.642   3.667
 7429WAT      O22528   3.026   6.980   9.684
 7429WAT     H122529   2.984   6.913   9.624
 7429WAT     H222530   3.007   6.956   9.780
 7430WAT      O22531   4.712   4.581   0.677
 7430WAT     H122532   4.701   4.632   0.762
 7430WAT     H222533   4.631   4.594   0.619
 7431WAT      O22534   7.260   5.598   4.254
 7431WAT     H122535   7.172   5.642   4.269
 7431WAT     H222536   7.253   5.532   4.179
 7432WAT      O22537   8.669   4.421   0.986
 7432WAT     H122538   8.715   4.463   1.064
 7432WAT     H222539   8.632   4.493   0.926
 7433WAT      O22540   1.502   6.884   0.167
 7433WAT     H122541   1.487   6.980   0.146
 7433WAT     H222542   1.482   6.829   0.086
 7434WAT      O22543   5.542   5.355   6.603
 7434WAT     H122544   5.449   5.389   6.591
 7434WAT     H222545   5.580   5.329   6.515
 7435WAT      O22546   6.830   6.822   7.697
 7435WAT     H122547   6.878   6.824   7.785
 7435WAT     H222548   6.786   6.910   7.681
 7436WAT      O22549   1.779   2.028   0.130
 7436WAT     H122550   1.831   2.071   0.056
 7436WAT     H222551   1.811   2.062   0.218
 7437WAT      O22552   7.264   5.262   1.138
 7437WAT     H122553   7.183   5.222   1.095
 7437WAT     H222554   7.247   5.357   1.161
 7438WAT      O22555   2.957   9.107   4.182
 7438WAT     H122556   2.931   9.091   4.087
 7438WAT     H222557   2.903   9.183   4.219
 7439WAT      O22558   6.149   0.666   2.104
 7439WAT     H122559   6.099   0.618   2.176
 7439WAT     H222560   6.146   0.764   2.121
 7440WAT      O22561   1.822   7.847   2.778
 7440WAT     H122562   1.796   7.848   2.875
 7440WAT     H222563   1.915   7.812   2.769
 7441WAT      O22564   0.085   2.943   3.136
 7441WAT     H122565   0.033   2.995   3.069
 7441WAT     H222566   0.170   2.911   3.094
 7442WAT      O22567   0.376   1.247   0.984
 7442WAT     H122568   0.471   1.227   0.959
 7442WAT     H222569   0.358   1.215   1.077
 7443WAT      O22570   1.145   8.413   4.015
 7443WAT     H122571   1.090   8.329   4.021
 7443WAT     H222572   1.194   8.414   3.927
 7444WAT      O22573   3.295   0.046   6.166
 7444WAT     H122574   3.366   0.108   6.132
 7444WAT     H222575   3.315  -0.047   6.136
 7445WAT      O22576   9.644   9.505   5.113
 7445WAT     H122577   9.554   9.535   5.144
 7445WAT     H222578   9.679   9.569   5.045
 7446WAT      O22579   4.774   5.233   2.618
 7446WAT     H122580   4.789   5.223   2.520
 7446WAT     H222581   4.763   5.330   2.640
 7447WAT      O22582   8.366   0.826   6.599
 7447WAT     H122583   8.435   0.758   6.577
 7447WAT     H222584   8.400   0.917   6.577
 7448WAT      O22585   1.815   2.926   8.134
 7448WAT     H122586   1.859   2.836   8.135
 7448WAT     H222587   1.809   2.958   8.039
 7449WAT      O22588   2.639   8.308   7.685
 7449WAT     H122589   2.589   8.313   7.599
 7449WAT     H222590   2.681   8.218   7.694
 7450WAT      O22591   9.190   6.118   0.464
 7450WAT     H122592   9.185   6.188   0.536
 7450WAT     H222593   9.170   6.028   0.503
 7451WAT      O22594   7.396   0.152   0.038
 7451WAT     H122595   7.328   0.080   0.052
 7451WAT     H222596   7.488   0.113   0.046
 7452WAT      O22597   6.289   0.620   2.427
 7452WAT     H122598   6.297   0.632   2.526
 7452WAT     H222599   6.268   0.708   2.385
 7453WAT      O22600   0.557   8.144   2.542
 7453WAT     H122601   0.574   8.136   2.641
 7453WAT     H222602   0.531   8.055   2.505
 7454WAT      O22603   6.843   4.740   7.221
 7454WAT     H122604   6.812   4.736   7.126
 7454WAT     H222605   6.765   4.757   7.281
 7455WAT      O22606   7.843   5.199   1.584
 7455WAT     H122607   7.747   5.181   1.608
 7455WAT     H222608   7.852   5.203   1.485
 7456WAT      O22609   7.985   3.797   9.612
 7456WAT     H122610   7.887   3.787   9.598
 7456WAT     H222611   8.002   3.856   9.692
 7457WAT      O22612   1.074   1.071   8.497
 7457WAT     H122613   1.071   0.998   8.428
 7457WAT     H222614   0.995   1.063   8.558
 7458WAT      O22615   0.531   3.482   7.573
 7458WAT     H122616   0.605   3.519   7.629
 7458WAT     H222617   0.558   3.484   7.476
 7459WAT      O22618   5.880   2.580   5.889
 7459WAT     H122619   5.914   2.659   5.838
 7459WAT     H222620   5.943   2.559   5.964
 7460WAT      O22621   4.705   3.047   5.354
 7460WAT     H122622   4.759   3.056   5.438
 7460WAT     H222623   4.685   3.138   5.318
 7461WAT      O22624   2.228   3.946   6.282
 7461WAT     H122625   2.316   3.941   6.330
 7461WAT     H222626   2.211   4.040   6.254
 7462WAT      O22627   1.239   6.300   9.706
 7462WAT     H122628   1.259   6.275   9.611
 7462WAT     H222629   1.312   6.359   9.741
 7463WAT      O22630   2.778   8.824   0.615
 7463WAT     H122631   2.693   8.874   0.597
 7463WAT     H222632   2.791   8.815   0.714
 7464WAT      O22633   2.908   1.272   6.656
 7464WAT     H122634   2.825   1.271   6.711
 7464WAT     H222635   2.894   1.217   6.573
 7465WAT      O22636   6.988   2.135   4.533
 7465WAT     H122637   7.068   2.080   4.557
 7465WAT     H222638   7.000   2.173   4.441
 7466WAT      O22639   6.090   1.984   5.655
 7466WAT     H122640   6.066   2.080   5.640
 7466WAT     H222641   6.181   1.979   5.697
 7467WAT      O22642   1.055   1.085   9.395
 7467WAT     H122643   1.092   1.160   9.340
 7467WAT     H222644   1.119   1.062   9.468
 7468WAT      O22645   0.388   7.322   0.860
 7468WAT     H122646   0.426   7.315   0.953
 7468WAT     H222647   0.301   7.272   0.856
 7469WAT      O22648   7.934   9.272   4.236
 7469WAT     H122649   7.913   9.220   4.152
 7469WAT     H222650   8.007   9.338   4.217
 7470WAT      O22651   8.697   7.690   9.787
 7470WAT     H122652   8.650   7.665   9.702
 7470WAT     H222653   8.657   7.774   9.824
 7471WAT      O22654   0.617   2.268   4.981
 7471WAT     H122655   0.688   2.329   4.946
 7471WAT     H222656   0.657   2.180   5.005
 7472WAT      O22657   7.370   9.339   1.259
 7472WAT     H122658   7.369   9.439   1.257
 7472WAT     H222659   7.339   9.307   1.348
 7473WAT      O22660   8.370   1.974   4.556
 7473WAT     H122661   8.362   2.029   4.639
 7473WAT     H222662   8.388   2.033   4.478
 7474WAT      O22663   4.697   0.742   2.115
 7474WAT     H122664   4.675   0.839   2.106
 7474WAT     H222665   4.629   0.698   2.174
 7475WAT      O22666   2.344   8.283   2.571
 7475WAT     H122667   2.349   8.370   2.619
 7475WAT     H222668   2.426   8.271   2.514
 7476WAT      O22669   5.936   3.229   2.565
 7476WAT     H122670   5.921   3.157   2.633
 7476WAT     H222671   5.970   3.311   2.611
 7477WAT      O22672   4.402   0.215   9.333
 7477WAT     H122673   4.369   0.276   9.261
 7477WAT     H222674   4.500   0.228   9.345
 7478WAT      O22675   0.340   4.508   7.995
 7478WAT     H122676   0.354   4.555   7.908
 7478WAT     H222677   0.267   4.554   8.046
 7479WAT      O22678   1.657   2.410   8.555
 7479WAT     H122679   1.664   2.311   8.568
 7479WAT     H222680   1.730   2.440   8.494
 7480WAT      O22681   2.114   9.125   3.598
 7480WAT     H122682   2.046   9.051   3.594
 7480WAT     H222683   2.177   9.116   3.521
 7481WAT      O22684   4.483   2.927   9.447
 7481WAT     H122685   4.486   3.000   9.515
 7481WAT     H222686   4.450   2.964   9.360
 7482WAT      O22687   5.932   5.830   5.068
 7482WAT     H122688   5.841   5.856   5.103
 7482WAT     H222689   5.934   5.841   4.969
 7483WAT      O22690   3.006   5.230   7.832
 7483WAT     H122691   2.974   5.143   7.795
 7483WAT     H222692   3.058   5.214   7.916
 7484WAT      O22693   8.057   9.081   3.450
 7484WAT     H122694   8.046   9.000   3.507
 7484WAT     H222695   8.101   9.153   3.504
 7485WAT      O22696   4.021   8.275   0.559
 7485WAT     H122697   4.074   8.278   0.644
 7485WAT     H222698   4.078   8.305   0.483
 7486WAT      O22699   5.340   0.123   4.634
 7486WAT     H122700   5.384   0.060   4.569
 7486WAT     H222701   5.263   0.169   4.588
 7487WAT      O22702   1.530   7.089   4.688
 7487WAT     H122703   1.496   7.065   4.597
 7487WAT     H222704   1.620   7.048   4.702
 7488WAT      O22705   7.600   1.183   7.005
 7488WAT     H122706   7.555   1.113   7.059
 7488WAT     H222707   7.678   1.143   6.956
 7489WAT      O22708   4.093   9.493   2.588
 7489WAT     H122709   4.024   9.431   2.625
 7489WAT     H222710   4.164   9.441   2.542
 7490WAT      O22711   2.910   8.088   8.213
 7490WAT     H122712   2.859   8.033   8.147
 7490WAT     H222713   2.992   8.126   8.168
 7491WAT      O22714   9.286   9.225   5.479
 7491WAT     H122715   9.386   9.220   5.486
 7491WAT     H222716   9.245   9.184   5.560
 7492WAT      O22717   0.114   7.640   6.804
 7492WAT     H122718   0.105   7.543   6.780
 7492WAT     H222719   0.124   7.648   6.903
 7493WAT      O22720   8.704   6.527   8.400
 7493WAT     H122721   8.744   6.576   8.322
 7493WAT     H222722   8.605   6.538   8.400
 7494WAT      O22723   2.174   6.005   8.623
 7494WAT     H122724   2.175   5.937   8.696
 7494WAT     H222725   2.255   5.994   8.566
 7495WAT      O22726   3.967   0.698   4.496
 7495WAT     H122727   3.871   0.708   4.471
 7495WAT     H222728   4.024   0.711   4.415
 7496WAT      O22729   2.434   6.003   6.616
 7496WAT     H122730   2.486   5.958   6.689
 7496WAT     H222731   2.400   6.091   6.648
 7497WAT      O22732   2.411   2.021   8.839
 7497WAT     H122733   2.439   2.089   8.771
 7497WAT     H222734   2.355   2.065   8.909
 7498WAT      O22735   5.426   2.334   0.556
 7498WAT     H122736   5.479   2.388   0.620
 7498WAT     H222737   5.487   2.271   0.507
 7499WAT      O22738   7.513   5.056   6.381
 7499WAT     H122739   7.491   4.960   6.402
 7499WAT     H222740   7.554   5.099   6.461
 7500WAT      O22741   2.641   8.635   6.763
 7500WAT     H122742   2.619   8.730   6.741
 7500WAT     H222743   2.665   8.628   6.860
 7501WAT      O22744   2.211   2.847   3.451
 7501WAT     H122745   2.122   2.891   3.454
 7501WAT     H222746   2.206   2.759   3.498
 7502WAT      O22747   5.475   6.458   7.353
 7502WAT     H122748   5.459   6.526   7.424
 7502WAT     H222749   5.413   6.473   7.277
 7503WAT      O22750   9.376   1.652   9.471
 7503WAT     H122751   9.403   1.579   9.533
 7503WAT     H222752   9.305   1.618   9.409
 7504WAT      O22753   3.315   7.478   4.779
 7504WAT     H122754   3.328   7.552   4.844
 7504WAT     H222755   3.293   7.516   4.689
 7505WAT      O22756   6.809   7.853   5.722
 7505WAT     H122757   6.795   7.946   5.691
 7505WAT     H222758   6.818   7.852   5.822
 7506WAT      O22759   2.576   6.651   9.574
 7506WAT     H122760   2.667   6.690   9.582
 7506WAT     H222761   2.508   6.724   9.570
 7507WAT      O22762   4.736   1.323   4.110
 7507WAT     H122763   4.774   1.392   4.049
 7507WAT     H222764   4.676   1.262   4.058
 7508WAT      O22765   5.984   4.863   7.811
 7508WAT     H122766   6.060   4.800   7.799
 7508WAT     H222767   5.951   4.858   7.905
 7509WAT      O22768   3.864   2.533   9.689
 7509WAT     H122769   3.814   2.482   9.620
 7509WAT     H222770   3.949   2.485   9.712
 7510WAT      O22771   7.154   5.496   5.398
 7510WAT     H122772   7.234   5.451   5.438
 7510WAT     H222773   7.144   5.468   5.303
 7511WAT      O22774   4.080   9.117   7.436
 7511WAT     H122775   3.986   9.133   7.466
 7511WAT     H222776   4.130   9.068   7.508
 7512WAT      O22777   3.862   7.583   0.689
 7512WAT     H122778   3.932   7.637   0.642
 7512WAT     H222779   3.906   7.509   0.741
 7513WAT      O22780   8.872   2.640   1.176
 7513WAT     H122781   8.839   2.601   1.089
 7513WAT     H222782   8.971   2.649   1.172
 7514WAT      O22783   2.942   2.804   0.916
 7514WAT     H122784   2.988   2.718   0.896
 7514WAT     H222785   2.921   2.851   0.830
 7515WAT      O22786   0.029   8.963   1.613
 7515WAT     H122787   0.054   9.000   1.523
 7515WAT     H222788  -0.047   8.899   1.603
 7516WAT      O22789   0.055   2.171   8.638
 7516WAT     H122790   0.093   2.095   8.587
 7516WAT     H222791   0.110   2.187   8.720
 7517WAT      O22792   5.886   2.328   8.301
 7517WAT     H122793   5.850   2.399   8.361
 7517WAT     H222794   5.814   2.294   8.241
 7518WAT      O22795   3.917   4.203   5.133
 7518WAT     H122796   3.877   4.209   5.042
 7518WAT     H222797   3.902   4.111   5.171
 7519WAT      O22798   0.425   2.592   9.789
 7519WAT     H122799   0.471   2.664   9.738
 7519WAT     H222800   0.434   2.505   9.740
 7520WAT      O22801   6.598   8.313   2.394
 7520WAT     H122802   6.587   8.350   2.301
 7520WAT     H222803   6.595   8.388   2.460
 7521WAT      O22804   0.077   4.847   1.037
 7521WAT     H122805   0.025   4.924   0.999
 7521WAT     H222806   0.162   4.836   0.985
 7522WAT      O22807   7.738   9.807   2.116
 7522WAT     H122808   7.704   9.889   2.162
 7522WAT     H222809   7.683   9.790   2.035
 7523WAT      O22810   9.540   5.994   1.561
 7523WAT     H122811   9.446   6.000   1.594
 7523WAT     H222812   9.586   5.916   1.604
 7524WAT      O22813   1.160   9.072   1.242
 7524WAT     H122814   1.199   8.991   1.199
 7524WAT     H222815   1.081   9.104   1.188
 7525WAT      O22816   0.026   2.270   1.802
 7525WAT     H122817   0.073   2.358   1.804
 7525WAT     H222818  -0.056   2.277   1.746
 7526WAT      O22819   6.824   1.056   8.432
 7526WAT     H122820   6.904   1.080   8.377
 7526WAT     H222821   6.848   1.058   8.529
 7527WAT      O22822   2.565   0.303   2.620
 7527WAT     H122823   2.519   0.282   2.533
 7527WAT     H222824   2.509   0.368   2.671
 7528WAT      O22825   5.204   7.722   5.125
 7528WAT     H122826   5.296   7.685   5.109
 7528WAT     H222827   5.195   7.810   5.079
 7529WAT      O22828   6.979   3.091   7.574
 7529WAT     H122829   6.972   3.021   7.646
 7529WAT     H222830   6.940   3.177   7.606
 7530WAT      O22831   3.584   4.527   1.658
 7530WAT     H122832   3.548   4.571   1.740
 7530WAT     H222833   3.658   4.465   1.684
 7531WAT      O22834   3.589   8.716   4.926
 7531WAT     H122835   3.524   8.745   4.856
 7531WAT     H222836   3.593   8.785   4.999
 7532WAT      O22837   1.311   6.788   2.353
 7532WAT     H122838   1.312   6.692   2.325
 7532WAT     H222839   1.261   6.797   2.439
 7533WAT      O22840   8.998   4.824   3.128
 7533WAT     H122841   8.939   4.889   3.081
 7533WAT     H222842   9.025   4.861   3.217
 7534WAT      O22843   5.608   4.021   1.008
 7534WAT     H122844   5.561   4.087   1.067
 7534WAT     H222845   5.641   4.067   0.925
 7535WAT      O22846   6.507   7.634   9.102
 7535WAT     H122847   6.594   7.591   9.079
 7535WAT     H222848   6.504   7.655   9.199
 7536WAT      O22849   1.728   8.965   9.672
 7536WAT     H122850   1.775   8.926   9.751
 7536WAT     H222851   1.694   9.057   9.695
 7537WAT      O22852   4.293   1.149   2.291
 7537WAT     H122853   4.207   1.103   2.313
 7537WAT     H222854   4.369   1.100   2.334
 7538WAT      O22855   4.802   9.664   2.060
 7538WAT     H122856   4.853   9.701   2.138
 7538WAT     H222857   4.821   9.719   1.979
 7539WAT      O22858   6.705   2.989   7.396
 7539WAT     H122859   6.725   2.914   7.459
 7539WAT     H222860   6.712   2.956   7.302
 7540WAT      O22861   6.123   9.781   9.811
 7540WAT     H122862   6.210   9.823   9.837
 7540WAT     H222863   6.048   9.835   9.851
 7541WAT      O22864   8.252   1.063   2.833
 7541WAT     H122865   8.285   1.085   2.925
 7541WAT     H222866   8.329   1.055   2.771
 7542WAT      O22867   6.231   6.285   6.658
 7542WAT     H122868   6.292   6.353   6.700
 7542WAT     H222869   6.285   6.211   6.620
 7543WAT      O22870   0.024   2.829   5.105
 7543WAT     H122871   0.103   2.768   5.094
 7543WAT     H222872  -0.060   2.775   5.110
 7544WAT      O22873   1.875   1.771   4.797
 7544WAT     H122874   1.930   1.688   4.804
 7544WAT     H222875   1.790   1.760   4.849
 7545WAT      O22876   0.456   3.588   9.465
 7545WAT     H122877   0.550   3.593   9.431
 7545WAT     H222878   0.398   3.548   9.394
 7546WAT      O22879   4.359   2.010   3.877
 7546WAT     H122880   4.398   2.049   3.960
 7546WAT     H222881   4.337   1.914   3.891
 7547WAT      O22882   6.561   0.282   8.792
 7547WAT     H122883   6.651   0.244   8.810
 7547WAT     H222884   6.537   0.348   8.864
 7548WAT      O22885   8.594   2.451   0.297
 7548WAT     H122886   8.668   2.450   0.230
 7548WAT     H222887   8.543   2.365   0.291
 7549WAT      O22888   8.004   5.784   4.712
 7549WAT     H122889   7.982   5.882   4.714
 7549WAT     H222890   7.920   5.731   4.716
 7550WAT      O22891   8.988   0.336   3.143
 7550WAT     H122892   8.914   0.346   3.209
 7550WAT     H222893   8.989   0.243   3.108
 7551WAT      O22894   1.238   1.885   4.724
 7551WAT     H122895   1.213   1.879   4.820
 7551WAT     H222896   1.277   1.975   4.705
 7552WAT      O22897   6.101   8.945   3.779
 7552WAT     H122898   6.104   8.846   3.789
 7552WAT     H222899   6.150   8.988   3.855
 7553WAT      O22900   6.153   2.230   8.771
 7553WAT     H122901   6.106   2.283   8.701
 7553WAT     H222902   6.087   2.194   8.837
 7554WAT      O22903   5.072   8.264   9.820
 7554WAT     H122904   5.119   8.212   9.891
 7554WAT     H222905   5.103   8.232   9.730
 7555WAT      O22906   7.035   8.200   2.199
 7555WAT     H122907   6.979   8.269   2.245
 7555WAT     H222908   7.096   8.156   2.265
 7556WAT      O22909   9.583   8.944   2.292
 7556WAT     H122910   9.525   9.005   2.239
 7556WAT     H222911   9.529   8.901   2.364
 7557WAT      O22912   0.364   3.770   9.672
 7557WAT     H122913   0.309   3.715   9.736
 7557WAT     H222914   0.378   3.717   9.588
 7558WAT      O22915   7.652   2.947   4.936
 7558WAT     H122916   7.606   2.889   4.869
 7558WAT     H222917   7.713   3.011   4.889
 7559WAT      O22918   3.584   3.738   8.032
 7559WAT     H122919   3.514   3.697   7.973
 7559WAT     H222920   3.559   3.726   8.128
 7560WAT      O22921   6.956   4.850   5.887
 7560WAT     H122922   6.911   4.844   5.976
 7560WAT     H222923   7.041   4.798   5.889
 7561WAT      O22924   0.458   6.014   5.208
 7561WAT     H122925   0.527   5.955   5.251
 7561WAT     H222926   0.409   6.065   5.278
 7562WAT      O22927   2.201   9.301   3.973
 7562WAT     H122928   2.220   9.266   3.881
 7562WAT     H222929   2.257   9.251   4.039
 7563WAT      O22930   4.813   4.314   1.103
 7563WAT     H122931   4.869   4.396   1.090
 7563WAT     H222932   4.766   4.292   1.017
 7564WAT      O22933   7.676   3.539   3.512
 7564WAT     H122934   7.644   3.462   3.567
 7564WAT     H222935   7.760   3.513   3.464
 7565WAT      O22936   1.236   3.978   7.405
 7565WAT     H122937   1.268   3.887   7.432
 7565WAT     H222938   1.137   3.984   7.417
 7566WAT      O22939   6.519   9.163   4.388
 7566WAT     H122940   6.571   9.237   4.345
 7566WAT     H222941   6.581   9.106   4.443
 7567WAT      O22942   3.325   2.891   2.877
 7567WAT     H122943   3.254   2.833   2.838
 7567WAT     H222944   3.357   2.957   2.809
 7568WAT      O22945   2.891   1.213   3.082
 7568WAT     H122946   2.930   1.299   3.050
 7568WAT     H222947   2.799   1.231   3.119
 7569WAT      O22948   5.824   0.834   2.178
 7569WAT     H122949   5.917   0.867   2.194
 7569WAT     H222950   5.818   0.737   2.201
 7570WAT      O22951   8.833   0.145   1.111
 7570WAT     H122952   8.844   0.046   1.113
 7570WAT     H222953   8.922   0.188   1.097
 7571WAT      O22954   3.563   1.843   2.502
 7571WAT     H122955   3.609   1.805   2.583
 7571WAT     H222956   3.608   1.810   2.420
 7572WAT      O22957   0.573   6.128   7.037
 7572WAT     H122958   0.629   6.054   7.001
 7572WAT     H222959   0.479   6.096   7.051
 7573WAT      O22960   8.197   4.024   9.840
 7573WAT     H122961   8.265   3.970   9.791
 7573WAT     H222962   8.106   3.985   9.828
 7574WAT      O22963   3.043   8.451   7.341
 7574WAT     H122964   2.959   8.408   7.309
 7574WAT     H222965   3.071   8.407   7.427
 7575WAT      O22966   7.550   1.079   0.415
 7575WAT     H122967   7.455   1.046   0.422
 7575WAT     H222968   7.606   1.008   0.371
 7576WAT      O22969   2.131   5.431   2.315
 7576WAT     H122970   2.080   5.481   2.245
 7576WAT     H222971   2.156   5.341   2.280
 7577WAT      O22972   5.885   7.622   2.278
 7577WAT     H122973   5.945   7.698   2.251
 7577WAT     H222974   5.874   7.622   2.378
 7578WAT      O22975   3.582   1.481   0.620
 7578WAT     H122976   3.573   1.484   0.720
 7578WAT     H222977   3.680   1.479   0.596
 7579WAT      O22978   3.397   0.324   5.666
 7579WAT     H122979   3.332   0.395   5.691
 7579WAT     H222980   3.460   0.359   5.596
 7580WAT      O22981   0.972   6.370   3.399
 7580WAT     H122982   0.879   6.348   3.371
 7580WAT     H222983   0.972   6.396   3.496
 7581WAT      O22984   7.334   0.590   5.736
 7581WAT     H122985   7.238   0.611   5.752
 7581WAT     H222986   7.390   0.630   5.808
 7582WAT      O22987   3.875   0.877   0.927
 7582WAT     H122988   3.854   0.939   0.851
 7582WAT     H222989   3.792   0.857   0.978
 7583WAT      O22990   5.381   3.050   5.308
 7583WAT     H122991   5.413   3.123   5.369
 7583WAT     H222992   5.289   3.022   5.336
 7584WAT      O22993   4.969   0.867   1.733
 7584WAT     H122994   5.002   0.956   1.763
 7584WAT     H222995   4.932   0.817   1.811
 7585WAT      O22996   9.668   2.735   2.233
 7585WAT     H122997   9.613   2.754   2.151
 7585WAT     H222998   9.731   2.660   2.215
 7586WAT      O22999   7.093   4.144   1.227
 7586WAT     H123000   7.060   4.170   1.318
 7586WAT     H223001   7.182   4.099   1.236
 7587WAT      O23002   0.680   4.532   5.025
 7587WAT     H123003   0.612   4.459   5.018
 7587WAT     H223004   0.642   4.609   5.076
 7588WAT      O23005   6.944   4.727   9.098
 7588WAT     H123006   6.976   4.649   9.152
 7588WAT     H223007   7.012   4.747   9.027
 7589WAT      O23008   6.217   4.166   4.596
 7589WAT     H123009   6.247   4.084   4.646
 7589WAT     H223010   6.268   4.245   4.628
 7590WAT      O23011   9.748   0.883   9.691
 7590WAT     H123012   9.755   0.897   9.790
 7590WAT     H223013   9.828   0.834   9.658
 7591WAT      O23014   3.793   3.947   9.635
 7591WAT     H123015   3.761   3.874   9.696
 7591WAT     H223016   3.889   3.931   9.610
 7592WAT      O23017   6.317   3.933   4.707
 7592WAT     H123018   6.342   3.956   4.801
 7592WAT     H223019   6.399   3.914   4.654
 7593WAT      O23020   8.821   9.071   3.238
 7593WAT     H123021   8.879   9.152   3.248
 7593WAT     H223022   8.866   9.005   3.178
 7594WAT      O23023   1.970   8.709   1.677
 7594WAT     H123024   2.031   8.783   1.708
 7594WAT     H223025   1.917   8.676   1.755
 7595WAT      O23026   8.592   6.675   2.131
 7595WAT     H123027   8.557   6.692   2.223
 7595WAT     H223028   8.517   6.642   2.073
 7596WAT      O23029   3.136   0.981   8.959
 7596WAT     H123030   3.037   0.981   8.942
 7596WAT     H223031   3.160   0.901   9.013
 7597WAT      O23032   3.450   9.602   6.133
 7597WAT     H123033   3.539   9.595   6.087
 7597WAT     H223034   3.459   9.571   6.227
 7598WAT      O23035   7.376   8.231   9.153
 7598WAT     H123036   7.332   8.165   9.093
 7598WAT     H223037   7.312   8.304   9.176
 7599WAT      O23038   1.207   1.162   1.148
 7599WAT     H123039   1.111   1.170   1.122
 7599WAT     H223040   1.214   1.123   1.240
 7600WAT      O23041   3.230   1.325   7.667
 7600WAT     H123042   3.316   1.342   7.620
 7600WAT     H223043   3.207   1.404   7.724
 7601WAT      O23044   7.976   4.038   1.321
 7601WAT     H123045   7.992   4.098   1.399
 7601WAT     H223046   8.043   3.965   1.320
 7602WAT      O23047   0.691   1.933   9.439
 7602WAT     H123048   0.776   1.951   9.389
 7602WAT     H223049   0.616   1.985   9.398
 7603WAT      O23050   3.554   7.488   5.413
 7603WAT     H123051   3.611   7.493   5.495
 7603WAT     H223052   3.611   7.505   5.332
 7604WAT      O23053   1.572   3.965   6.432
 7604WAT     H123054   1.485   3.932   6.395
 7604WAT     H223055   1.573   4.065   6.431
 7605WAT      O23056   9.154   6.207   1.153
 7605WAT     H123057   9.217   6.185   1.227
 7605WAT     H223058   9.197   6.186   1.065
 7606WAT      O23059   3.464   6.762   9.353
 7606WAT     H123060   3.413   6.783   9.436
 7606WAT     H223061   3.560   6.785   9.366
 7607WAT      O23062   0.423   6.782   4.888
 7607WAT     H123063   0.488   6.819   4.955
 7607WAT     H223064   0.450   6.689   4.864
 7608WAT      O23065   5.012   2.417   1.794
 7608WAT     H123066   4.931   2.459   1.753
 7608WAT     H223067   5.019   2.444   1.890
 7609WAT      O23068   8.432   2.031   3.428
 7609WAT     H123069   8.479   2.111   3.466
 7609WAT     H223070   8.376   2.060   3.350
 7610WAT      O23071   8.042   4.815   3.181
 7610WAT     H123072   8.059   4.794   3.084
 7610WAT     H223073   8.129   4.818   3.230
 7611WAT      O23074   3.762   0.184   8.892
 7611WAT     H123075   3.714   0.097   8.876
 7611WAT     H223076   3.801   0.183   8.984
 7612WAT      O23077   3.901   8.585   0.384
 7612WAT     H123078   3.815   8.552   0.421
 7612WAT     H223079   3.885   8.666   0.328
 7613WAT      O23080   9.846   3.784   9.504
 7613WAT     H123081   9.889   3.708   9.552
 7613WAT     H223082   9.790   3.836   9.567
 7614WAT      O23083   6.469   5.701   1.953
 7614WAT     H123084   6.387   5.736   1.999
 7614WAT     H223085   6.548   5.711   2.013
 7615WAT      O23086   1.248   0.186   1.468
 7615WAT     H123087   1.185   0.185   1.390
 7615WAT     H223088   1.290   0.096   1.478
 7616WAT      O23089   2.714   7.895   4.810
 7616WAT     H123090   2.634   7.949   4.839
 7616WAT     H223091   2.751   7.845   4.889
 7617WAT      O23092   3.289   6.509   8.943
 7617WAT     H123093   3.195   6.488   8.971
 7617WAT     H223094   3.351   6.437   8.975
 7618WAT      O23095   7.155   5.370   4.750
 7618WAT     H123096   7.147   5.400   4.655
 7618WAT     H223097   7.066   5.377   4.795
 7619WAT      O23098   8.567   9.451   3.814
 7619WAT     H123099   8.518   9.510   3.879
 7619WAT     H223100   8.650   9.498   3.782
 7620WAT      O23101   1.836   1.651   9.376
 7620WAT     H123102   1.886   1.645   9.463
 7620WAT     H223103   1.902   1.656   9.301
 7621WAT      O23104   1.690   3.168   6.148
 7621WAT     H123105   1.723   3.215   6.066
 7621WAT     H223106   1.596   3.136   6.133
 7622WAT      O23107   6.554   7.039   8.332
 7622WAT     H123108   6.650   7.016   8.314
 7622WAT     H223109   6.541   7.054   8.430
 7623WAT      O23110   0.989   4.731   7.002
 7623WAT     H123111   1.083   4.739   6.969
 7623WAT     H223112   0.974   4.795   7.078
 7624WAT      O23113   9.750   2.856   5.465
 7624WAT     H123114   9.674   2.810   5.419
 7624WAT     H223115   9.729   2.953   5.476
 7625WAT      O23116   0.852   1.772   6.279
 7625WAT     H123117   0.781   1.752   6.211
 7625WAT     H223118   0.917   1.696   6.282
 7626WAT      O23119   3.387   6.634   0.249
 7626WAT     H123120   3.439   6.553   0.223
 7626WAT     H223121   3.391   6.647   0.348
 7627WAT      O23122   8.137   8.619   6.175
 7627WAT     H123123   8.040   8.625   6.151
 7627WAT     H223124   8.178   8.541   6.129
 7628WAT      O23125   1.577   5.436   4.704
 7628WAT     H123126   1.583   5.405   4.609
 7628WAT     H223127   1.667   5.463   4.736
 7629WAT      O23128   7.739   5.193   4.937
 7629WAT     H123129   7.680   5.163   4.862
 7629WAT     H223130   7.721   5.137   5.018
 7630WAT      O23131   0.973   7.469   3.984
 7630WAT     H123132   1.047   7.492   3.921
 7630WAT     H223133   0.988   7.376   4.019
 7631WAT      O23134   4.531   8.578   5.394
 7631WAT     H123135   4.617   8.586   5.444
 7631WAT     H223136   4.543   8.516   5.316
 7632WAT      O23137   5.542   9.732   9.161
 7632WAT     H123138   5.507   9.776   9.078
 7632WAT     H223139   5.626   9.684   9.140
 7633WAT      O23140   7.142   3.322   9.029
 7633WAT     H123141   7.143   3.248   8.962
 7633WAT     H223142   7.211   3.303   9.100
 7634WAT      O23143   7.387   3.207   9.802
 7634WAT     H123144   7.417   3.174   9.713
 7634WAT     H223145   7.465   3.247   9.851
 7635WAT      O23146   5.914   2.710   6.621
 7635WAT     H123147   5.943   2.696   6.716
 7635WAT     H223148   5.972   2.656   6.560
 7636WAT      O23149   2.940   2.246   5.280
 7636WAT     H123150   2.963   2.283   5.190
 7636WAT     H223151   2.882   2.311   5.329
 7637WAT      O23152   1.523   8.665   7.210
 7637WAT     H123153   1.606   8.644   7.261
 7637WAT     H223154   1.453   8.700   7.274
 7638WAT      O23155   8.674   2.973   5.652
 7638WAT     H123156   8.575   2.958   5.651
 7638WAT     H223157   8.709   2.959   5.745
 7639WAT      O23158   9.427   2.059   2.424
 7639WAT     H123159   9.391   2.150   2.402
 7639WAT     H223160   9.499   2.067   2.492
 7640WAT      O23161   3.049   5.380   0.189
 7640WAT     H123162   3.112   5.303   0.201
 7640WAT     H223163   3.091   5.464   0.223
 7641WAT      O23164   5.628   9.400   7.983
 7641WAT     H123165   5.629   9.360   8.074
 7641WAT     H223166   5.717   9.440   7.963
 7642WAT      O23167   1.779   2.601   7.497
 7642WAT     H123168   1.811   2.544   7.573
 7642WAT     H223169   1.785   2.697   7.522
 7643WAT      O23170   4.151   0.885   5.131
 7643WAT     H123171   4.052   0.876   5.123
 7643WAT     H223172   4.189   0.805   5.177
 7644WAT      O23173   4.873   5.353   1.454
 7644WAT     H123174   4.947   5.335   1.518
 7644WAT     H223175   4.868   5.278   1.387
 7645WAT      O23176   8.459   3.117   8.576
 7645WAT     H123177   8.534   3.100   8.512
 7645WAT     H223178   8.418   3.029   8.602
 7646WAT      O23179   5.424   3.241   5.483
 7646WAT     H123180   5.467   3.306   5.546
 7646WAT     H223181   5.331   3.272   5.462
 7647WAT      O23182   3.046   3.014   8.233
 7647WAT     H123183   3.091   3.019   8.144
 7647WAT     H223184   2.951   2.988   8.221
 7648WAT      O23185   4.018   0.447   0.498
 7648WAT     H123186   3.995   0.529   0.550
 7648WAT     H223187   4.080   0.472   0.423
 7649WAT      O23188   8.777   1.833   8.327
 7649WAT     H123189   8.764   1.743   8.285
 7649WAT     H223190   8.729   1.902   8.273
 7650WAT      O23191   3.959   2.212   4.351
 7650WAT     H123192   3.985   2.205   4.447
 7650WAT     H223193   4.021   2.155   4.296
 7651WAT      O23194   5.883   3.344   7.705
 7651WAT     H123195   5.914   3.249   7.711
 7651WAT     H223196   5.785   3.349   7.727
 7652WAT      O23197   1.235   5.988   7.233
 7652WAT     H123198   1.233   6.056   7.307
 7652WAT     H223199   1.211   6.033   7.147
 7653WAT      O23200   3.709   8.693   5.537
 7653WAT     H123201   3.699   8.774   5.595
 7653WAT     H223202   3.655   8.618   5.574
 7654WAT      O23203   0.465   9.137   6.048
 7654WAT     H123204   0.453   9.044   6.013
 7654WAT     H223205   0.514   9.192   5.980
 7655WAT      O23206   9.873   2.529   6.114
 7655WAT     H123207   9.824   2.612   6.142
 7655WAT     H223208   9.809   2.452   6.113
 7656WAT      O23209   0.678   1.737   4.731
 7656WAT     H123210   0.647   1.652   4.688
 7656WAT     H223211   0.770   1.723   4.768
 7657WAT      O23212   9.359   3.122   1.690
 7657WAT     H123213   9.334   3.157   1.600
 7657WAT     H223214   9.310   3.173   1.761
 7658WAT      O23215   0.133   0.201   3.644
 7658WAT     H123216   0.124   0.296   3.612
 7658WAT     H223217   0.123   0.139   3.567
 7659WAT      O23218   6.734   4.943   6.483
 7659WAT     H123219   6.795   4.865   6.491
 7659WAT     H223220   6.639   4.912   6.484
 7660WAT      O23221   8.388   0.419   6.703
 7660WAT     H123222   8.432   0.352   6.762
 7660WAT     H223223   8.348   0.492   6.759
 7661WAT      O23224   5.702   2.509   3.416
 7661WAT     H123225   5.626   2.544   3.361
 7661WAT     H223226   5.701   2.553   3.505
 7662WAT      O23227   3.967   7.408   6.228
 7662WAT     H123228   3.872   7.377   6.235
 7662WAT     H223229   3.972   7.483   6.163
 7663WAT      O23230   8.505   6.093   3.136
 7663WAT     H123231   8.564   6.168   3.106
 7663WAT     H223232   8.418   6.129   3.168
 7664WAT      O23233   6.762   5.536   9.524
 7664WAT     H123234   6.770   5.438   9.541
 7664WAT     H223235   6.854   5.577   9.517
 7665WAT      O23236   3.213   1.262   0.856
 7665WAT     H123237   3.313   1.257   0.851
 7665WAT     H223238   3.180   1.192   0.920
 7666WAT      O23239   5.202   2.985   3.202
 7666WAT     H123240   5.132   2.913   3.203
 7666WAT     H223241   5.211   3.024   3.293
 7667WAT      O23242   7.042   0.340   4.155
 7667WAT     H123243   7.038   0.393   4.240
 7667WAT     H223244   6.951   0.306   4.133
 7668WAT      O23245   5.592   0.307   8.198
 7668WAT     H123246   5.629   0.367   8.269
 7668WAT     H223247   5.492   0.309   8.201
 7669WAT      O23248   4.487   4.378   8.590
 7669WAT     H123249   4.586   4.388   8.578
 7669WAT     H223250   4.466   4.281   8.605
 7670WAT      O23251   5.657   3.006   5.477
 7670WAT     H123252   5.609   2.920   5.494
 7670WAT     H223253   5.599   3.082   5.505
 7671WAT      O23254   2.410   4.344   4.936
 7671WAT     H123255   2.365   4.393   4.861
 7671WAT     H223256   2.495   4.391   4.960
 7672WAT      O23257   2.517   7.419   5.219
 7672WAT     H123258   2.455   7.485   5.263
 7672WAT     H223259   2.535   7.448   5.125
 7673WAT      O23260   4.293   8.932   5.112
 7673WAT     H123261   4.253   9.019   5.142
 7673WAT     H223262   4.244   8.856   5.154
 7674WAT      O23263   8.969   6.920   8.087
 7674WAT     H123264   9.067   6.939   8.082
 7674WAT     H223265   8.949   6.871   8.172
 7675WAT      O23266   6.787   9.564   0.840
 7675WAT     H123267   6.814   9.527   0.929
 7675WAT     H223268   6.843   9.644   0.818
 7676WAT      O23269   6.621   5.524   8.548
 7676WAT     H123270   6.605   5.492   8.454
 7676WAT     H223271   6.639   5.622   8.547
 7677WAT      O23272   0.480   4.216   9.075
 7677WAT     H123273   0.485   4.310   9.107
 7677WAT     H223274   0.571   4.175   9.077
 7678WAT      O23275   1.695   7.773   3.956
 7678WAT     H123276   1.685   7.870   3.976
 7678WAT     H223277   1.729   7.761   3.863
 7679WAT      O23278   1.114   1.747   6.984
 7679WAT     H123279   1.059   1.663   6.983
 7679WAT     H223280   1.169   1.752   6.901
 7680WAT      O23281   4.725   0.981   5.577
 7680WAT     H123282   4.644   1.024   5.536
 7680WAT     H223283   4.729   1.005   5.674
 7681WAT      O23284   8.636   5.243   0.583
 7681WAT     H123285   8.596   5.248   0.675
 7681WAT     H223286   8.570   5.205   0.520
 7682WAT      O23287   3.775   4.060   1.939
 7682WAT     H123288   3.710   4.075   1.865
 7682WAT     H223289   3.853   4.007   1.906
 7683WAT      O23290   0.191   4.449   3.562
 7683WAT     H123291   0.278   4.497   3.564
 7683WAT     H223292   0.165   4.430   3.467
 7684WAT      O23293   1.161   5.702   2.426
 7684WAT     H123294   1.113   5.714   2.339
 7684WAT     H223295   1.189   5.606   2.436
 7685WAT      O23296   6.363   8.740   4.985
 7685WAT     H123297   6.420   8.688   4.921
 7685WAT     H223298   6.360   8.836   4.956
 7686WAT      O23299   3.573   0.496   0.555
 7686WAT     H123300   3.503   0.523   0.489
 7686WAT     H223301   3.609   0.577   0.601
 7687WAT      O23302   6.049   0.685   1.856
 7687WAT     H123303   6.087   0.684   1.948
 7687WAT     H223304   5.961   0.638   1.855
 7688WAT      O23305   7.273   5.803   2.759
 7688WAT     H123306   7.204   5.736   2.788
 7688WAT     H223307   7.281   5.802   2.660
 7689WAT      O23308   0.067   7.499   4.384
 7689WAT     H123309  -0.012   7.520   4.326
 7689WAT     H223310   0.081   7.400   4.386
 7690WAT      O23311   6.990   5.562   9.099
 7690WAT     H123312   6.893   5.579   9.080
 7690WAT     H223313   7.040   5.556   9.012
 7691WAT      O23314   8.465   6.141   6.112
 7691WAT     H123315   8.419   6.106   6.030
 7691WAT     H223316   8.400   6.143   6.188
 7692WAT      O23317   0.706   4.776   8.544
 7692WAT     H123318   0.662   4.807   8.461
 7692WAT     H223319   0.776   4.843   8.572
 7693WAT      O23320   7.567   3.274   3.222
 7693WAT     H123321   7.484   3.254   3.170
 7693WAT     H223322   7.613   3.188   3.245
 7694WAT      O23323   0.867   2.206   0.444
 7694WAT     H123324   0.803   2.242   0.376
 7694WAT     H223325   0.952   2.260   0.441
 7695WAT      O23326   5.431   5.347   6.171
 7695WAT     H123327   5.351   5.342   6.231
 7695WAT     H223328   5.403   5.378   6.080
 7696WAT      O23329   7.154   0.296   8.548
 7696WAT     H123330   7.159   0.342   8.460
 7696WAT     H223331   7.108   0.355   8.614
 7697WAT      O23332   2.836   6.708   7.954
 7697WAT     H123333   2.857   6.779   7.887
 7697WAT     H223334   2.803   6.626   7.907
 7698WAT      O23335   0.926   0.980   7.925
 7698WAT     H123336   0.841   1.006   7.971
 7698WAT     H223337   0.967   1.061   7.883
 7699WAT      O23338   7.362   4.842   8.420
 7699WAT     H123339   7.340   4.752   8.382
 7699WAT     H223340   7.311   4.913   8.371
 7700WAT      O23341   6.784   4.790   1.961
 7700WAT     H123342   6.714   4.750   2.020
 7700WAT     H223343   6.871   4.742   1.974
 7701WAT      O23344   2.695   5.897   0.643
 7701WAT     H123345   2.735   5.970   0.698
 7701WAT     H223346   2.758   5.820   0.637
 7702WAT      O23347   1.190   6.175   4.055
 7702WAT     H123348   1.201   6.187   4.154
 7702WAT     H223349   1.112   6.228   4.023
 7703WAT      O23350   7.922   5.988   8.918
 7703WAT     H123351   7.903   5.971   8.822
 7703WAT     H223352   7.906   6.084   8.939
 7704WAT      O23353   6.444   5.346   5.451
 7704WAT     H123354   6.434   5.390   5.541
 7704WAT     H223355   6.395   5.259   5.452
 7705WAT      O23356   0.100   6.182   4.134
 7705WAT     H123357   0.072   6.208   4.226
 7705WAT     H223358   0.056   6.243   4.068
 7706WAT      O23359   2.662   5.508   5.142
 7706WAT     H123360   2.606   5.589   5.155
 7706WAT     H223361   2.606   5.426   5.155
 7707WAT      O23362   3.112   3.672   6.963
 7707WAT     H123363   3.095   3.614   6.884
 7707WAT     H223364   3.046   3.748   6.962
 7708WAT      O23365   3.661   0.998   2.861
 7708WAT     H123366   3.712   1.037   2.938
 7708WAT     H223367   3.606   1.070   2.818
 7709WAT      O23368   7.246   9.118   5.278
 7709WAT     H123369   7.303   9.049   5.234
 7709WAT     H223370   7.290   9.149   5.363
 7710WAT      O23371   1.510   0.469   9.063
 7710WAT     H123372   1.560   0.543   9.019
 7710WAT     H223373   1.479   0.404   8.993
 7711WAT      O23374   5.632   0.572   2.384
 7711WAT     H123375   5.677   0.585   2.295
 7711WAT     H223376   5.609   0.661   2.423
 7712WAT      O23377   8.250   6.986   6.757
 7712WAT     H123378   8.261   7.014   6.852
 7712WAT     H223379   8.312   7.038   6.699
 7713WAT      O23380   4.508   6.786   6.503
 7713WAT     H123381   4.495   6.752   6.597
 7713WAT     H223382   4.419   6.801   6.461
 7714WAT      O23383   9.269   8.164   6.586
 7714WAT     H123384   9.257   8.161   6.686
 7714WAT     H223385   9.183   8.191   6.543
 7715WAT      O23386   2.362   9.734   6.038
 7715WAT     H123387   2.454   9.728   6.076
 7715WAT     H223388   2.354   9.671   5.961
 7716WAT      O23389   3.426   0.666   2.982
 7716WAT     H123390   3.494   0.594   2.995
 7716WAT     H223391   3.335   0.625   2.982
 7717WAT      O23392   5.976   6.811   8.225
 7717WAT     H123393   6.036   6.804   8.304
 7717WAT     H223394   5.975   6.905   8.191
 7718WAT      O23395   7.534   3.358   5.740
 7718WAT     H123396   7.474   3.366   5.661
 7718WAT     H223397   7.506   3.281   5.797
 7719WAT      O23398   7.984   3.211   6.695
 7719WAT     H123399   7.915   3.233   6.626
 7719WAT     H223400   7.981   3.113   6.715
 7720WAT      O23401   7.560   7.823   8.014
 7720WAT     H123402   7.598   7.852   7.926
 7720WAT     H223403   7.460   7.825   8.010
 7721WAT      O23404   7.182   0.172   6.818
 7721WAT     H123405   7.094   0.124   6.815
 7721WAT     H223406   7.255   0.106   6.838
 7722WAT      O23407   2.357   3.520   3.601
 7722WAT     H123408   2.310   3.545   3.516
 7722WAT     H223409   2.399   3.601   3.641
 7723WAT      O23410   9.236   6.194   2.264
 7723WAT     H123411   9.156   6.167   2.318
 7723WAT     H223412   9.320   6.171   2.313
 7724WAT      O23413   5.952   2.897   4.210
 7724WAT     H123414   6.002   2.947   4.139
 7724WAT     H223415   5.855   2.892   4.186
 7725WAT      O23416   6.794   5.859   5.760
 7725WAT     H123417   6.705   5.863   5.806
 7725WAT     H223418   6.780   5.839   5.663
 7726WAT      O23419   1.569   1.962   3.508
 7726WAT     H123420   1.509   1.985   3.585
 7726WAT     H223421   1.517   1.915   3.438
 7727WAT      O23422   5.012   8.431   2.402
 7727WAT     H123423   5.082   8.405   2.336
 7727WAT     H223424   4.984   8.525   2.386
 7728WAT      O23425   1.726   5.126   1.570
 7728WAT     H123426   1.672   5.194   1.522
 7728WAT     H223427   1.702   5.127   1.667
 7729WAT      O23428   8.080   2.961   6.416
 7729WAT     H123429   8.115   3.032   6.477
 7729WAT     H223430   8.012   3.001   6.355
 7730WAT      O23431   1.338   9.333   3.068
 7730WAT     H123432   1.329   9.301   3.163
 7730WAT     H223433   1.250   9.370   3.038
 7731WAT      O23434   5.837   6.770   5.006
 7731WAT     H123435   5.759   6.805   5.059
 7731WAT     H223436   5.920   6.819   5.033
 7732WAT      O23437   1.683   2.877   9.786
 7732WAT     H123438   1.712   2.908   9.877
 7732WAT     H223439   1.736   2.797   9.760
 7733WAT      O23440   8.930   7.321   1.731
 7733WAT     H123441   8.868   7.243   1.724
 7733WAT     H223442   8.885   7.403   1.695
 7734WAT      O23443   8.602   0.141   0.979
 7734WAT     H123444   8.534   0.081   1.022
 7734WAT     H223445   8.682   0.148   1.039
 7735WAT      O23446   8.625   0.352   6.047
 7735WAT     H123447   8.677   0.381   5.967
 7735WAT     H223448   8.624   0.426   6.115
 7736WAT      O23449   0.824   3.495   0.835
 7736WAT     H123450   0.761   3.510   0.911
 7736WAT     H223451   0.786   3.537   0.752
 7737WAT      O23452   2.357   6.328   6.185
 7737WAT     H123453   2.351   6.292   6.091
 7737WAT     H223454   2.388   6.423   6.182
 7738WAT      O23455   4.252   4.277   3.053
 7738WAT     H123456   4.216   4.247   3.141
 7738WAT     H223457   4.326   4.342   3.067
 7739WAT      O23458   6.779   8.815   2.898
 7739WAT     H123459   6.694   8.768   2.873
 7739WAT     H223460   6.768   8.858   2.988
 7740WAT      O23461   7.500   3.987   3.156
 7740WAT     H123462   7.491   3.913   3.223
 7740WAT     H223463   7.548   3.952   3.075
 7741WAT      O23464   5.001   8.124   3.593
 7741WAT     H123465   5.013   8.198   3.527
 7741WAT     H223466   5.036   8.039   3.554
 7742WAT      O23467   4.143   8.668   7.502
 7742WAT     H123468   4.158   8.605   7.578
 7742WAT     H223469   4.157   8.621   7.415
 7743WAT      O23470   5.005   6.400   6.654
 7743WAT     H123471   4.949   6.362   6.580
 7743WAT     H223472   4.973   6.363   6.741
 7744WAT      O23473   3.534   1.433   9.848
 7744WAT     H123474   3.476   1.382   9.783
 7744WAT     H223475   3.613   1.470   9.800
 7745WAT      O23476   7.391   1.862   8.961
 7745WAT     H123477   7.326   1.919   8.912
 7745WAT     H223478   7.353   1.837   9.051
 7746WAT      O23479   7.080   9.168   4.195
 7746WAT     H123480   7.114   9.184   4.103
 7746WAT     H223481   7.130   9.225   4.260
 7747WAT      O23482   5.145   5.896   9.183
 7747WAT     H123483   5.235   5.851   9.179
 7747WAT     H223484   5.074   5.830   9.161
 7748WAT      O23485   0.150   2.453   5.262
 7748WAT     H123486   0.075   2.497   5.312
 7748WAT     H223487   0.169   2.504   5.178
 7749WAT      O23488   4.444   2.576   0.448
 7749WAT     H123489   4.353   2.612   0.429
 7749WAT     H223490   4.467   2.506   0.380
 7750WAT      O23491   9.171   1.767   0.618
 7750WAT     H123492   9.118   1.847   0.588
 7750WAT     H223493   9.261   1.797   0.649
 7751WAT      O23494   9.127   6.394   6.729
 7751WAT     H123495   9.082   6.305   6.733
 7751WAT     H223496   9.058   6.466   6.736
 7752WAT      O23497   3.045   6.954   8.302
 7752WAT     H123498   2.970   6.932   8.240
 7752WAT     H223499   3.112   6.879   8.303
 7753WAT      O23500   1.793   5.152   1.180
 7753WAT     H123501   1.742   5.233   1.152
 7753WAT     H223502   1.872   5.179   1.235
 7754WAT      O23503   6.506   4.462   5.399
 7754WAT     H123504   6.506   4.523   5.319
 7754WAT     H223505   6.441   4.496   5.466
 7755WAT      O23506   0.847   3.984   8.116
 7755WAT     H123507   0.814   4.078   8.130
 7755WAT     H223508   0.775   3.919   8.139
 7756WAT      O23509   6.369   0.075   9.261
 7756WAT     H123510   6.376   0.169   9.227
 7756WAT     H223511   6.281   0.036   9.234
 7757WAT      O23512   2.023   6.564   2.309
 7757WAT     H123513   1.965   6.643   2.291
 7757WAT     H223514   1.973   6.480   2.286
 7758WAT      O23515   3.950   6.278   0.055
 7758WAT     H123516   3.931   6.221  -0.025
 7758WAT     H223517   3.898   6.364   0.047
 7759WAT      O23518   1.221   2.714   2.844
 7759WAT     H123519   1.318   2.726   2.863
 7759WAT     H223520   1.168   2.779   2.898
 7760WAT      O23521   4.015   4.911   4.902
 7760WAT     H123522   4.069   4.973   4.844
 7760WAT     H223523   4.014   4.820   4.861
 7761WAT      O23524   7.341   3.470   0.054
 7761WAT     H123525   7.378   3.432  -0.030
 7761WAT     H223526   7.353   3.405   0.129
 7762WAT      O23527   9.733   4.526   8.084
 7762WAT     H123528   9.821   4.503   8.044
 7762WAT     H223529   9.660   4.493   8.025
 7763WAT      O23530   8.083   0.909   3.549
 7763WAT     H123531   8.016   0.867   3.488
 7763WAT     H223532   8.121   0.840   3.611
 7764WAT      O23533   8.688   1.237   4.576
 7764WAT     H123534   8.760   1.178   4.541
 7764WAT     H223535   8.719   1.332   4.577
 7765WAT      O23536   7.955   9.448   1.622
 7765WAT     H123537   8.047   9.465   1.587
 7765WAT     H223538   7.924   9.527   1.676
 7766WAT      O23539   7.447   4.008   1.560
 7766WAT     H123540   7.543   3.983   1.550
 7766WAT     H223541   7.441   4.099   1.602
 7767WAT      O23542   0.587   6.510   8.187
 7767WAT     H123543   0.488   6.510   8.196
 7767WAT     H223544   0.612   6.539   8.095
 7768WAT      O23545   7.717   2.967   1.860
 7768WAT     H123546   7.784   2.926   1.798
 7768WAT     H223547   7.656   2.896   1.895
 7769WAT      O23548   5.741   7.759   6.530
 7769WAT     H123549   5.725   7.809   6.445
 7769WAT     H223550   5.831   7.716   6.526
 7770WAT      O23551   5.146   6.044   6.387
 7770WAT     H123552   5.138   6.143   6.374
 7770WAT     H223553   5.054   6.005   6.398
 7771WAT      O23554   0.952   2.940   3.784
 7771WAT     H123555   0.858   2.948   3.750
 7771WAT     H223556   1.016   2.941   3.706
 7772WAT      O23557   3.590   7.007   6.979
 7772WAT     H123558   3.541   7.087   7.015
 7772WAT     H223559   3.670   6.990   7.037
 7773WAT      O23560   2.635   3.823   5.203
 7773WAT     H123561   2.543   3.790   5.224
 7773WAT     H223562   2.646   3.832   5.104
 7774WAT      O23563   6.454   0.371   6.279
 7774WAT     H123564   6.454   0.351   6.377
 7774WAT     H223565   6.361   0.389   6.248
 7775WAT      O23566   5.689   0.533   4.072
 7775WAT     H123567   5.639   0.521   3.986
 7775WAT     H223568   5.781   0.566   4.052
 7776WAT      O23569   9.213   0.535   9.471
 7776WAT     H123570   9.308   0.503   9.470
 7776WAT     H223571   9.183   0.553   9.377
 7777WAT      O23572   2.366   9.501   5.101
 7777WAT     H123573   2.322   9.540   5.182
 7777WAT     H223574   2.432   9.431   5.129
 7778WAT      O23575   8.961   9.781   7.430
 7778WAT     H123576   8.963   9.872   7.389
 7778WAT     H223577   8.997   9.785   7.523
 7779WAT      O23578   3.327   8.059   7.732
 7779WAT     H123579   3.315   7.972   7.779
 7779WAT     H223580   3.424   8.077   7.719
 7780WAT      O23581   2.370   1.113   2.771
 7780WAT     H123582   2.298   1.078   2.831
 7780WAT     H223583   2.456   1.066   2.790
 7781WAT      O23584   9.429   1.784   6.722
 7781WAT     H123585   9.399   1.744   6.808
 7781WAT     H223586   9.509   1.842   6.738
 7782WAT      O23587   9.216   4.709   4.832
 7782WAT     H123588   9.280   4.779   4.865
 7782WAT     H223589   9.187   4.652   4.908
 7783WAT      O23590   7.965   6.155   8.349
 7783WAT     H123591   7.876   6.163   8.304
 7783WAT     H223592   7.952   6.152   8.448
 7784WAT      O23593   4.580   6.953   9.222
 7784WAT     H123594   4.541   6.864   9.199
 7784WAT     H223595   4.514   7.005   9.276
 7785WAT      O23596   7.965   3.862   9.026
 7785WAT     H123597   7.991   3.783   9.082
 7785WAT     H223598   7.992   3.946   9.073
 7786WAT      O23599   2.088   5.216   2.672
 7786WAT     H123600   2.068   5.147   2.743
 7786WAT     H223601   2.144   5.175   2.600
 7787WAT      O23602   2.955   6.140   1.013
 7787WAT     H123603   2.885   6.192   1.062
 7787WAT     H223604   2.932   6.043   1.016
 7788WAT      O23605   3.367   9.299   8.843
 7788WAT     H123606   3.330   9.392   8.844
 7788WAT     H223607   3.464   9.302   8.870
 7789WAT      O23608   4.316   9.070   7.052
 7789WAT     H123609   4.310   9.060   6.953
 7789WAT     H223610   4.388   9.011   7.087
 7790WAT      O23611   1.524   1.330   7.976
 7790WAT     H123612   1.444   1.376   8.015
 7790WAT     H223613   1.541   1.366   7.884
 7791WAT      O23614   6.795   8.393   8.300
 7791WAT     H123615   6.787   8.437   8.211
 7791WAT     H223616   6.752   8.452   8.370
 7792WAT      O23617   8.068   2.283   5.466
 7792WAT     H123618   8.093   2.280   5.562
 7792WAT     H223619   8.029   2.372   5.444
 7793WAT      O23620   6.240   4.033   0.531
 7793WAT     H123621   6.305   4.106   0.507
 7793WAT     H223622   6.290   3.949   0.549
 7794WAT      O23623   4.790   8.278   9.878
 7794WAT     H123624   4.771   8.179   9.878
 7794WAT     H223625   4.878   8.294   9.832
 7795WAT      O23626   3.765   7.022   2.769
 7795WAT     H123627   3.822   7.089   2.723
 7795WAT     H223628   3.822   6.945   2.801
 7796WAT      O23629   5.668   1.121   4.620
 7796WAT     H123630   5.606   1.042   4.618
 7796WAT     H223631   5.690   1.144   4.714
 7797WAT      O23632   3.923   8.446   2.038
 7797WAT     H123633   4.022   8.451   2.043
 7797WAT     H223634   3.884   8.537   2.053
 7798WAT      O23635   5.536   6.127   5.687
 7798WAT     H123636   5.462   6.152   5.624
 7798WAT     H223637   5.607   6.077   5.637
 7799WAT      O23638   0.214   2.667   3.523
 7799WAT     H123639   0.167   2.627   3.444
 7799WAT     H223640   0.169   2.753   3.548
 7800WAT      O23641   8.509   0.884   0.429
 7800WAT     H123642   8.557   0.947   0.490
 7800WAT     H223643   8.499   0.795   0.474
 7801WAT      O23644   3.682   9.838   2.611
 7801WAT     H123645   3.751   9.768   2.589
 7801WAT     H223646   3.694   9.868   2.705
 7802WAT      O23647   4.387   1.338   1.844
 7802WAT     H123648   4.414   1.408   1.910
 7802WAT     H223649   4.371   1.252   1.893
 7803WAT      O23650   9.877   8.424   3.230
 7803WAT     H123651   9.838   8.369   3.304
 7803WAT     H223652   9.804   8.453   3.169
 7804WAT      O23653   0.804   3.524   7.737
 7804WAT     H123654   0.825   3.427   7.721
 7804WAT     H223655   0.855   3.580   7.672
 7805WAT      O23656   5.827   8.866   7.245
 7805WAT     H123657   5.915   8.853   7.200
 7805WAT     H223658   5.841   8.911   7.333
 7806WAT      O23659   2.543   9.554   7.233
 7806WAT     H123660   2.473   9.566   7.304
 7806WAT     H223661   2.630   9.589   7.267
 7807WAT      O23662   2.698   6.887   5.801
 7807WAT     H123663   2.652   6.973   5.779
 7807WAT     H223664   2.630   6.817   5.824
 7808WAT      O23665   4.337   2.741   4.131
 7808WAT     H123666   4.258   2.783   4.176
 7808WAT     H223667   4.317   2.726   4.035
 7809WAT      O23668   2.051   6.079   2.653
 7809WAT     H123669   1.967   6.128   2.630
 7809WAT     H223670   2.121   6.099   2.584
 7810WAT      O23671   6.580   6.944   6.974
 7810WAT     H123672   6.603   7.002   6.896
 7810WAT     H223673   6.535   6.860   6.941
 7811WAT      O23674   5.911   2.980   5.579
 7811WAT     H123675   5.817   2.985   5.546
 7811WAT     H223676   5.974   2.980   5.502
 7812WAT      O23677   3.989   1.991   0.241
 7812WAT     H123678   3.934   1.928   0.295
 7812WAT     H223679   3.946   2.005   0.152
 7813WAT      O23680   2.801   7.632   2.114
 7813WAT     H123681   2.754   7.559   2.164
 7813WAT     H223682   2.810   7.713   2.172
 7814WAT      O23683   3.087   5.615   6.711
 7814WAT     H123684   3.065   5.548   6.782
 7814WAT     H223685   3.165   5.670   6.739
 7815WAT      O23686   5.373   2.796   7.750
 7815WAT     H123687   5.296   2.775   7.810
 7815WAT     H223688   5.439   2.722   7.752
 7816WAT      O23689   2.111   1.090   4.990
 7816WAT     H123690   2.174   1.081   4.914
 7816WAT     H223691   2.019   1.110   4.956
 7817WAT      O23692   0.164   2.544   9.566
 7817WAT     H123693   0.213   2.463   9.598
 7817WAT     H223694   0.092   2.567   9.631
 7818WAT      O23695   6.134   6.321   1.653
 7818WAT     H123696   6.110   6.392   1.588
 7818WAT     H223697   6.089   6.339   1.741
 7819WAT      O23698   8.444   1.968   6.240
 7819WAT     H123699   8.491   2.036   6.296
 7819WAT     H223700   8.481   1.877   6.259
 7820WAT      O23701   9.022   6.553   3.287
 7820WAT     H123702   9.071   6.624   3.236
 7820WAT     H223703   9.058   6.549   3.380
 7821WAT      O23704   4.346   0.044   6.533
 7821WAT     H123705   4.298   0.033   6.620
 7821WAT     H223706   4.281   0.040   6.457
 7822WAT      O23707   6.703   3.881   3.451
 7822WAT     H123708   6.707   3.781   3.456
 7822WAT     H223709   6.737   3.911   3.363
 7823WAT      O23710   8.049   1.367   2.713
 7823WAT     H123711   8.048   1.443   2.778
 7823WAT     H223712   7.979   1.382   2.643
 7824WAT      O23713   6.538   5.858   9.855
 7824WAT     H123714   6.491   5.843   9.768
 7824WAT     H223715   6.582   5.774   9.885
 7825WAT      O23716   7.606   0.376   3.492
 7825WAT     H123717   7.514   0.390   3.455
 7825WAT     H223718   7.608   0.290   3.543
 7826WAT      O23719   7.789   6.221  -0.002
 7826WAT     H123720   7.714   6.173   0.042
 7826WAT     H223721   7.818   6.298   0.055
 7827WAT      O23722   0.755   9.275   4.925
 7827WAT     H123723   0.832   9.333   4.951
 7827WAT     H223724   0.699   9.322   4.857
 7828WAT      O23725   4.595   3.408   3.464
 7828WAT     H123726   4.594   3.454   3.552
 7828WAT     H223727   4.690   3.397   3.433
 7829WAT      O23728   6.252   1.584   0.722
 7829WAT     H123729   6.290   1.676   0.729
 7829WAT     H223730   6.302   1.522   0.782
 7830WAT      O23731   0.602   8.819   7.641
 7830WAT     H123732   0.604   8.788   7.546
 7830WAT     H223733   0.633   8.746   7.701
 7831WAT      O23734   9.182   8.657   9.458
 7831WAT     H123735   9.143   8.621   9.373
 7831WAT     H223736   9.281   8.659   9.451
 7832WAT      O23737   0.900   6.158   6.893
 7832WAT     H123738   0.841   6.095   6.944
 7832WAT     H223739   0.850   6.196   6.815
 7833WAT      O23740   4.948   0.240   6.045
 7833WAT     H123741   4.876   0.171   6.047
 7833WAT     H223742   5.009   0.228   6.123
 7834WAT      O23743   3.813   3.361   0.972
 7834WAT     H123744   3.730   3.383   1.024
 7834WAT     H223745   3.871   3.300   1.026
 7835WAT      O23746   1.265   8.919   8.856
 7835WAT     H123747   1.185   8.919   8.796
 7835WAT     H223748   1.242   8.876   8.943
 7836WAT      O23749   7.554   9.339   1.711
 7836WAT     H123750   7.569   9.394   1.794
 7836WAT     H223751   7.461   9.352   1.679
 7837WAT      O23752   0.203   0.423   5.877
 7837WAT     H123753   0.238   0.330   5.862
 7837WAT     H223754   0.105   0.424   5.860
 7838WAT      O23755   6.089   8.200   0.958
 7838WAT     H123756   6.111   8.106   0.987
 7838WAT     H223757   6.085   8.204   0.859
 7839WAT      O23758   7.800   8.212   0.432
 7839WAT     H123759   7.845   8.131   0.470
 7839WAT     H223760   7.864   8.289   0.434
 7840WAT      O23761   1.485   5.546   9.114
 7840WAT     H123762   1.461   5.451   9.133
 7840WAT     H223763   1.575   5.567   9.153
 7841WAT      O23764   2.471   6.209   7.717
 7841WAT     H123765   2.477   6.139   7.788
 7841WAT     H223766   2.375   6.225   7.694
 7842WAT      O23767   0.602   2.489   2.776
 7842WAT     H123768   0.693   2.487   2.817
 7842WAT     H223769   0.582   2.399   2.735
 7843WAT      O23770   6.204   2.089   5.983
 7843WAT     H123771   6.122   2.143   5.999
 7843WAT     H223772   6.285   2.144   6.004
 7844WAT      O23773   7.547   1.442   3.613
 7844WAT     H123774   7.536   1.487   3.524
 7844WAT     H223775   7.641   1.454   3.644
 7845WAT      O23776   1.211   1.776   4.996
 7845WAT     H123777   1.141   1.708   5.020
 7845WAT     H223778   1.250   1.815   5.079
 7846WAT      O23779   9.385   1.141   6.919
 7846WAT     H123780   9.410   1.092   7.003
 7846WAT     H223781   9.293   1.113   6.891
 7847WAT      O23782   5.256   8.473   0.229
 7847WAT     H123783   5.290   8.534   0.158
 7847WAT     H223784   5.279   8.379   0.207
 7848WAT      O23785   1.818   6.696   8.628
 7848WAT     H123786   1.767   6.764   8.576
 7848WAT     H223787   1.754   6.633   8.672
 7849WAT      O23788   2.388   9.623   7.430
 7849WAT     H123789   2.428   9.649   7.518
 7849WAT     H223790   2.288   9.623   7.439
 7850WAT      O23791   8.549   4.650   5.753
 7850WAT     H123792   8.573   4.706   5.675
 7850WAT     H223793   8.588   4.558   5.742
 7851WAT      O23794   8.164   3.444   3.054
 7851WAT     H123795   8.086   3.388   3.081
 7851WAT     H223796   8.243   3.384   3.037
 7852WAT      O23797   7.890   8.805   7.272
 7852WAT     H123798   7.872   8.875   7.202
 7852WAT     H223799   7.981   8.766   7.258
 7853WAT      O23800   7.351   5.172   0.652
 7853WAT     H123801   7.351   5.158   0.553
 7853WAT     H223802   7.405   5.101   0.697
 7854WAT      O23803   7.590   3.687   8.823
 7854WAT     H123804   7.650   3.727   8.754
 7854WAT     H223805   7.580   3.751   8.899
 7855WAT      O23806   2.883   5.666   5.583
 7855WAT     H123807   2.843   5.619   5.505
 7855WAT     H223808   2.868   5.765   5.575
 7856WAT      O23809   3.357   5.245   0.071
 7856WAT     H123810   3.408   5.330   0.081
 7856WAT     H223811   3.383   5.201  -0.015
 7857WAT      O23812   8.297   8.078   2.402
 7857WAT     H123813   8.244   8.010   2.452
 7857WAT     H223814   8.282   8.065   2.304
 7858WAT      O23815   3.063   6.352   0.627
 7858WAT     H123816   3.111   6.363   0.714
 7858WAT     H223817   3.115   6.397   0.555
 7859WAT      O23818   6.444   0.531   2.696
 7859WAT     H123819   6.425   0.598   2.767
 7859WAT     H223820   6.377   0.457   2.700
 7860WAT      O23821   8.734   1.387   9.396
 7860WAT     H123822   8.656   1.388   9.458
 7860WAT     H223823   8.819   1.387   9.450
 7861WAT      O23824   2.026   4.981   2.311
 7861WAT     H123825   1.936   4.952   2.281
 7861WAT     H223826   2.042   4.951   2.405
 7862WAT      O23827   6.714   5.303   7.454
 7862WAT     H123828   6.749   5.347   7.536
 7862WAT     H223829   6.786   5.297   7.385
 7863WAT      O23830   4.423   6.968   2.079
 7863WAT     H123831   4.385   6.952   1.988
 7863WAT     H223832   4.507   7.021   2.071
 7864WAT      O23833   9.692   9.285   6.709
 7864WAT     H123834   9.759   9.255   6.776
 7864WAT     H223835   9.618   9.218   6.703
 7865WAT      O23836   6.830   8.199   5.873
 7865WAT     H123837   6.885   8.138   5.929
 7865WAT     H223838   6.843   8.177   5.776
 7866WAT      O23839   7.171   3.880   6.458
 7866WAT     H123840   7.105   3.954   6.448
 7866WAT     H223841   7.127   3.792   6.442
 7867WAT      O23842   5.461   9.612   6.187
 7867WAT     H123843   5.549   9.602   6.141
 7867WAT     H223844   5.468   9.576   6.280
 7868WAT      O23845   6.129   7.344   1.376
 7868WAT     H123846   6.110   7.423   1.435
 7868WAT     H223847   6.228   7.333   1.366
 7869WAT      O23848   4.748   3.499   5.422
 7869WAT     H123849   4.685   3.576   5.414
 7869WAT     H223850   4.807   3.496   5.341
 7870WAT      O23851   3.507   3.471   7.526
 7870WAT     H123852   3.502   3.445   7.622
 7870WAT     H223853   3.579   3.538   7.513
 7871WAT      O23854   7.129   6.023   9.563
 7871WAT     H123855   7.076   5.942   9.590
 7871WAT     H223856   7.140   6.025   9.464
 7872WAT      O23857   6.101   5.403   0.563
 7872WAT     H123858   6.019   5.381   0.616
 7872WAT     H223859   6.113   5.335   0.490
 7873WAT      O23860   7.658   8.752   5.842
 7873WAT     H123861   7.589   8.743   5.913
 7873WAT     H223862   7.618   8.734   5.752
 7874WAT      O23863   7.021   4.078   7.058
 7874WAT     H123864   6.923   4.095   7.064
 7874WAT     H223865   7.055   4.049   7.148
 7875WAT      O23866   8.547   5.750   7.021
 7875WAT     H123867   8.533   5.840   6.982
 7875WAT     H223868   8.637   5.715   6.995
 7876WAT      O23869   8.516   8.474   3.661
 7876WAT     H123870   8.591   8.443   3.720
 7876WAT     H223871   8.458   8.396   3.638
 7877WAT      O23872   2.687   8.030   0.711
 7877WAT     H123873   2.743   7.948   0.708
 7877WAT     H223874   2.746   8.111   0.701
 7878WAT      O23875   0.872   0.406   4.441
 7878WAT     H123876   0.923   0.479   4.397
 7878WAT     H223877   0.897   0.399   4.537
 7879WAT      O23878   5.420   5.985   6.386
 7879WAT     H123879   5.324   6.012   6.373
 7879WAT     H223880   5.435   5.961   6.481
 7880WAT      O23881   5.953   3.956   8.633
 7880WAT     H123882   5.858   3.961   8.665
 7880WAT     H223883   5.954   3.955   8.533
 7881WAT      O23884   0.697   0.505   3.759
 7881WAT     H123885   0.647   0.561   3.825
 7881WAT     H223886   0.763   0.563   3.710
 7882WAT      O23887   7.178   1.375   8.717
 7882WAT     H123888   7.167   1.452   8.779
 7882WAT     H223889   7.242   1.309   8.757
 7883WAT      O23890   5.924   7.023   6.118
 7883WAT     H123891   5.867   7.104   6.109
 7883WAT     H223892   6.019   7.045   6.093
 7884WAT      O23893   8.029   2.171   7.710
 7884WAT     H123894   8.053   2.078   7.736
 7884WAT     H223895   8.044   2.232   7.788
 7885WAT      O23896   7.213   0.525   4.467
 7885WAT     H123897   7.217   0.580   4.550
 7885WAT     H223898   7.285   0.555   4.404
 7886WAT      O23899   7.679   5.325   2.576
 7886WAT     H123900   7.778   5.330   2.588
 7886WAT     H223901   7.636   5.398   2.630
 7887WAT      O23902   9.133   1.612   6.251
 7887WAT     H123903   9.228   1.582   6.243
 7887WAT     H223904   9.073   1.544   6.208
 7888WAT      O23905   7.815   3.011   7.866
 7888WAT     H123906   7.851   2.917   7.865
 7888WAT     H223907   7.883   3.072   7.906
 7889WAT      O23908   6.630   4.966   9.717
 7889WAT     H123909   6.597   5.056   9.745
 7889WAT     H223910   6.699   4.935   9.783
 7890WAT      O23911   3.082   2.633   3.947
 7890WAT     H123912   3.055   2.726   3.922
 7890WAT     H223913   3.179   2.632   3.973
 7891WAT      O23914   0.249   3.896   0.089
 7891WAT     H123915   0.154   3.892   0.120
 7891WAT     H223916   0.253   3.932  -0.004
 7892WAT      O23917   9.562   4.483   0.742
 7892WAT     H123918   9.483   4.442   0.788
 7892WAT     H223919   9.563   4.582   0.760
 7893WAT      O23920   5.427   5.423   2.534
 7893WAT     H123921   5.381   5.512   2.535
 7893WAT     H223922   5.396   5.371   2.454
 7894WAT      O23923   9.621   0.938   5.675
 7894WAT     H123924   9.689   0.870   5.648
 7894WAT     H223925   9.648   1.028   5.640
 7895WAT      O23926   0.026   9.772   4.136
 7895WAT     H123927  -0.009   9.858   4.099
 7895WAT     H223928   0.093   9.733   4.073
 7896WAT      O23929   7.395   9.439   7.474
 7896WAT     H123930   7.305   9.425   7.431
 7896WAT     H223931   7.452   9.495   7.414
 7897WAT      O23932   9.730   4.754   5.069
 7897WAT     H123933   9.662   4.728   5.001
 7897WAT     H223934   9.817   4.711   5.047
 7898WAT      O23935   7.782   8.751   1.576
 7898WAT     H123936   7.756   8.848   1.568
 7898WAT     H223937   7.881   8.744   1.581
 7899WAT      O23938   7.465   5.112   2.964
 7899WAT     H123939   7.514   5.071   3.041
 7899WAT     H223940   7.380   5.062   2.949
 7900WAT      O23941   6.362   6.086   9.109
 7900WAT     H123942   6.354   6.048   9.201
 7900WAT     H223943   6.274   6.122   9.079
 7901WAT      O23944   9.877   2.992   1.707
 7901WAT     H123945   9.902   3.081   1.745
 7901WAT     H223946   9.794   2.959   1.751
 7902WAT      O23947   6.686   8.743   4.308
 7902WAT     H123948   6.648   8.709   4.393
 7902WAT     H223949   6.668   8.677   4.234
 7903WAT      O23950   5.110   4.846   6.738
 7903WAT     H123951   5.094   4.771   6.802
 7903WAT     H223952   5.074   4.821   6.648
 7904WAT      O23953   2.372   8.028   6.859
 7904WAT     H123954   2.454   7.985   6.821
 7904WAT     H223955   2.340   7.974   6.937
 7905WAT      O23956   9.105   6.906   2.292
 7905WAT     H123957   9.059   6.833   2.342
 7905WAT     H223958   9.125   6.982   2.355
 7906WAT      O23959   6.713   8.046   1.055
 7906WAT     H123960   6.677   8.139   1.056
 7906WAT     H223961   6.813   8.049   1.048
 7907WAT      O23962   3.082   5.920   0.786
 7907WAT     H123963   3.003   5.896   0.842
 7907WAT     H223964   3.123   5.836   0.750
 7908WAT      O23965   0.151   6.779   5.036
 7908WAT     H123966   0.082   6.835   4.990
 7908WAT     H223967   0.242   6.803   5.000
 7909WAT      O23968   2.899   2.253   5.738
 7909WAT     H123969   2.867   2.240   5.831
 7909WAT     H223970   2.829   2.220   5.674
 7910WAT      O23971   2.245   5.224   5.644
 7910WAT     H123972   2.313   5.150   5.640
 7910WAT     H223973   2.166   5.194   5.696
 7911WAT      O23974   2.280   3.877   7.879
 7911WAT     H123975   2.232   3.873   7.791
 7911WAT     H223976   2.377   3.857   7.866
 7912WAT      O23977   6.346   4.499   4.045
 7912WAT     H123978   6.286   4.487   3.965
 7912WAT     H223979   6.318   4.435   4.117
 7913WAT      O23980   3.604   7.665   1.346
 7913WAT     H123981   3.701   7.654   1.323
 7913WAT     H223982   3.587   7.761   1.370
 7914WAT      O23983   5.280   8.806   7.097
 7914WAT     H123984   5.335   8.887   7.079
 7914WAT     H223985   5.323   8.726   7.055
 7915WAT      O23986   7.442   8.958   6.914
 7915WAT     H123987   7.449   8.921   6.821
 7915WAT     H223988   7.522   8.930   6.967
 7916WAT      O23989   0.341   7.089   6.341
 7916WAT     H123990   0.330   7.142   6.257
 7916WAT     H223991   0.252   7.072   6.382
 7917WAT      O23992   9.343   6.686   0.131
 7917WAT     H123993   9.425   6.637   0.101
 7917WAT     H223994   9.287   6.627   0.189
 7918WAT      O23995   8.227   0.547   2.796
 7918WAT     H123996   8.153   0.613   2.784
 7918WAT     H223997   8.189   0.459   2.823
 7919WAT      O23998   5.450   2.519   0.332
 7919WAT     H123999   5.441   2.462   0.414
 7919WAT     H224000   5.404   2.473   0.255
 7920WAT      O24001   7.798   1.590   2.611
 7920WAT     H124002   7.751   1.621   2.528
 7920WAT     H224003   7.802   1.665   2.677
 7921WAT      O24004   7.338   1.381   9.682
 7921WAT     H124005   7.435   1.384   9.707
 7921WAT     H224006   7.297   1.471   9.696
 7922WAT      O24007   7.152   9.290   8.160
 7922WAT     H124008   7.195   9.259   8.075
 7922WAT     H224009   7.067   9.338   8.139
 7923WAT      O24010   9.102   4.736   6.986
 7923WAT     H124011   9.010   4.776   6.982
 7923WAT     H224012   9.171   4.808   6.983
 7924WAT      O24013   5.481   9.730   2.252
 7924WAT     H124014   5.577   9.702   2.251
 7924WAT     H224015   5.432   9.682   2.180
 7925WAT      O24016   2.786   3.203   9.218
 7925WAT     H124017   2.826   3.254   9.294
 7925WAT     H224018   2.844   3.212   9.137
 7926WAT      O24019   1.020   5.282   8.272
 7926WAT     H124020   1.119   5.268   8.271
 7926WAT     H224021   0.980   5.232   8.349
 7927WAT      O24022   9.129   4.831   9.791
 7927WAT     H124023   9.198   4.769   9.754
 7927WAT     H224024   9.038   4.800   9.763
 7928WAT      O24025   2.739   6.751   5.392
 7928WAT     H124026   2.658   6.803   5.366
 7928WAT     H224027   2.779   6.790   5.475
 7929WAT      O24028   2.986   0.892   9.499
 7929WAT     H124029   2.927   0.845   9.565
 7929WAT     H224030   3.082   0.874   9.521
 7930WAT      O24031   7.825   0.731   5.409
 7930WAT     H124032   7.801   0.643   5.367
 7930WAT     H224033   7.914   0.722   5.454
 7931WAT      O24034   8.905   3.239   5.835
 7931WAT     H124035   8.829   3.275   5.780
 7931WAT     H224036   8.910   3.289   5.921
 7932WAT      O24037   1.978   8.731   3.180
 7932WAT     H124038   1.993   8.660   3.249
 7932WAT     H224039   1.944   8.688   3.096
 7933WAT      O24040   6.629   4.932   6.839
 7933WAT     H124041   6.652   5.029   6.848
 7933WAT     H224042   6.595   4.914   6.747
 7934WAT      O24043   0.264   0.918   6.103
 7934WAT     H124044   0.345   0.874   6.066
 7934WAT     H224045   0.291   0.991   6.167
 7935WAT      O24046   4.149   5.193   8.956
 7935WAT     H124047   4.074   5.222   8.896
 7935WAT     H224048   4.134   5.228   9.049
 7936WAT      O24049   0.335   1.737   7.997
 7936WAT     H124050   0.288   1.783   7.922
 7936WAT     H224051   0.309   1.640   7.998
 7937WAT      O24052   3.617   2.725   1.173
 7937WAT     H124053   3.611   2.625   1.181
 7937WAT     H224054   3.578   2.754   1.086
 7938WAT      O24055   6.484   8.627   5.233
 7938WAT     H124056   6.441   8.643   5.322
 7938WAT     H224057   6.435   8.679   5.163
 7939WAT      O24058   7.735   1.438   8.781
 7939WAT     H124059   7.816   1.423   8.724
 7939WAT     H224060   7.653   1.424   8.726
 7940WAT      O24061   8.806   0.484   1.778
 7940WAT     H124062   8.759   0.550   1.836
 7940WAT     H224063   8.882   0.442   1.828
 7941WAT      O24064   0.096   8.568   8.174
 7941WAT     H124065   0.041   8.632   8.228
 7941WAT     H224066   0.151   8.619   8.108
 7942WAT      O24067   6.166   8.099   1.435
 7942WAT     H124068   6.260   8.079   1.407
 7942WAT     H224069   6.136   8.184   1.392
 7943WAT      O24070   8.871   5.888   7.006
 7943WAT     H124071   8.872   5.793   6.974
 7943WAT     H224072   8.789   5.933   6.974
 7944WAT      O24073   5.404   1.016   2.164
 7944WAT     H124074   5.310   0.982   2.164
 7944WAT     H224075   5.440   1.016   2.071
 7945WAT      O24076   2.494   1.386   3.474
 7945WAT     H124077   2.556   1.411   3.400
 7945WAT     H224078   2.408   1.353   3.436
 7946WAT      O24079   3.172   3.117   1.574
 7946WAT     H124080   3.153   3.215   1.574
 7946WAT     H224081   3.227   3.094   1.655
 7947WAT      O24082   6.100   2.781   9.171
 7947WAT     H124083   6.140   2.692   9.149
 7947WAT     H224084   6.165   2.835   9.224
 7948WAT      O24085   0.205   6.819   5.651
 7948WAT     H124086   0.159   6.894   5.698
 7948WAT     H224087   0.141   6.744   5.636
 7949WAT      O24088   6.794   5.289   9.603
 7949WAT     H124089   6.880   5.258   9.642
 7949WAT     H224090   6.726   5.299   9.676
 7950WAT      O24091   8.213   6.197   0.130
 7950WAT     H124092   8.265   6.121   0.170
 7950WAT     H224093   8.254   6.284   0.158
 7951WAT      O24094   2.990   7.533   5.124
 7951WAT     H124095   3.074   7.582   5.147
 7951WAT     H224096   2.923   7.545   5.197
 7952WAT      O24097   4.245   0.791   8.047
 7952WAT     H124098   4.269   0.860   8.114
 7952WAT     H224099   4.184   0.831   7.978
 7953WAT      O24100   6.038   9.288   3.537
 7953WAT     H124101   6.094   9.365   3.565
 7953WAT     H224102   6.093   9.205   3.536
 7954WAT      O24103   5.958   4.398   0.627
 7954WAT     H124104   5.997   4.310   0.654
 7954WAT     H224105   5.989   4.469   0.690
 7955WAT      O24106   8.225   9.195   5.523
 7955WAT     H124107   8.313   9.237   5.502
 7955WAT     H224108   8.238   9.098   5.543
 7956WAT      O24109   6.050   7.835   6.307
 7956WAT     H124110   6.036   7.933   6.295
 7956WAT     H224111   6.147   7.813   6.295
 7957WAT      O24112   0.670   6.349   5.302
 7957WAT     H124113   0.616   6.347   5.386
 7957WAT     H224114   0.626   6.293   5.232
 7958WAT      O24115   3.081   0.227   7.709
 7958WAT     H124116   3.139   0.301   7.742
 7958WAT     H224117   3.098   0.213   7.611
 7959WAT      O24118   0.233   0.575   9.640
 7959WAT     H124119   0.274   0.509   9.703
 7959WAT     H224120   0.253   0.546   9.546
 7960WAT      O24121   8.529   7.194   8.996
 7960WAT     H124122   8.479   7.214   8.912
 7960WAT     H224123   8.589   7.116   8.981
 7961WAT      O24124   3.795   6.998   6.295
 7961WAT     H124125   3.861   7.065   6.263
 7961WAT     H224126   3.812   6.977   6.391
 7962WAT      O24127   2.982   6.555   1.156
 7962WAT     H124128   3.049   6.562   1.230
 7962WAT     H224129   3.026   6.576   1.069
 7963WAT      O24130   5.856   6.508   1.316
 7963WAT     H124131   5.853   6.505   1.416
 7963WAT     H224132   5.894   6.422   1.282
 7964WAT      O24133   4.296   1.417   9.686
 7964WAT     H124134   4.217   1.468   9.719
 7964WAT     H224135   4.356   1.478   9.635
 7965WAT      O24136   1.335   2.400   4.907
 7965WAT     H124137   1.349   2.393   5.005
 7965WAT     H224138   1.422   2.389   4.859
 7966WAT      O24139   8.168   3.861   9.371
 7966WAT     H124140   8.137   3.931   9.306
 7966WAT     H224141   8.097   3.846   9.440
 7967WAT      O24142   4.239   3.277   6.044
 7967WAT     H124143   4.259   3.344   5.973
 7967WAT     H224144   4.140   3.267   6.053
 7968WAT      O24145   8.028   6.281   5.847
 7968WAT     H124146   7.993   6.217   5.778
 7968WAT     H224147   8.065   6.362   5.801
 7969WAT      O24148   3.392   3.628   9.540
 7969WAT     H124149   3.372   3.635   9.638
 7969WAT     H224150   3.486   3.594   9.528
 7970WAT      O24151   4.240   5.934   8.326
 7970WAT     H124152   4.161   5.947   8.267
 7970WAT     H224153   4.324   5.950   8.274
 7971WAT      O24154   1.040   7.873   5.039
 7971WAT     H124155   1.082   7.872   4.948
 7971WAT     H224156   1.055   7.784   5.082
 7972WAT      O24157   6.432   6.834   8.165
 7972WAT     H124158   6.416   6.881   8.079
 7972WAT     H224159   6.459   6.900   8.235
 7973WAT      O24160   1.537   1.988   7.634
 7973WAT     H124161   1.566   2.016   7.542
 7973WAT     H224162   1.614   1.997   7.697
 7974WAT      O24163   1.189   5.028   4.953
 7974WAT     H124164   1.102   5.061   4.917
 7974WAT     H224165   1.172   4.962   5.026
 7975WAT      O24166   1.563   6.358   5.465
 7975WAT     H124167   1.526   6.271   5.433
 7975WAT     H224168   1.662   6.349   5.480
 7976WAT      O24169   3.875   3.713   6.062
 7976WAT     H124170   3.851   3.616   6.052
 7976WAT     H224171   3.828   3.766   5.991
 7977WAT      O24172   6.991   2.915   1.975
 7977WAT     H124173   6.932   2.838   1.999
 7977WAT     H224174   7.084   2.883   1.959
 7978WAT      O24175   2.698   7.822   1.076
 7978WAT     H124176   2.712   7.764   0.996
 7978WAT     H224177   2.651   7.906   1.049
 7979WAT      O24178   7.285   7.275   1.899
 7979WAT     H124179   7.330   7.358   1.866
 7979WAT     H224180   7.204   7.299   1.952
 7980WAT      O24181   4.433   3.364   7.993
 7980WAT     H124182   4.368   3.376   7.918
 7980WAT     H224183   4.515   3.419   7.975
 7981WAT      O24184   3.336   3.936   6.119
 7981WAT     H124185   3.352   3.940   6.218
 7981WAT     H224186   3.252   3.986   6.097
 7982WAT      O24187   1.199   3.499   6.802
 7982WAT     H124188   1.285   3.522   6.756
 7982WAT     H224189   1.219   3.435   6.877
 7983WAT      O24190   5.203   2.422   7.192
 7983WAT     H124191   5.154   2.339   7.218
 7983WAT     H224192   5.156   2.502   7.230
 7984WAT      O24193   5.061   1.265   8.909
 7984WAT     H124194   4.984   1.307   8.860
 7984WAT     H224195   5.081   1.176   8.869
 7985WAT      O24196   5.596   8.783   0.644
 7985WAT     H124197   5.545   8.711   0.596
 7985WAT     H224198   5.554   8.872   0.626
 7986WAT      O24199   1.111   5.438   4.376
 7986WAT     H124200   1.118   5.494   4.293
 7986WAT     H224201   1.163   5.482   4.449
 7987WAT      O24202   7.246   4.242   0.810
 7987WAT     H124203   7.323   4.295   0.847
 7987WAT     H224204   7.262   4.223   0.714
 7988WAT      O24205   3.582   5.720   6.707
 7988WAT     H124206   3.637   5.800   6.730
 7988WAT     H224207   3.637   5.637   6.719
 7989WAT      O24208   3.250   8.864   7.268
 7989WAT     H124209   3.325   8.925   7.248
 7989WAT     H224210   3.279   8.769   7.253
 7990WAT      O24211   4.893   1.295   7.727
 7990WAT     H124212   4.843   1.307   7.813
 7990WAT     H224213   4.991   1.298   7.745
 7991WAT      O24214   8.132   9.808   4.418
 7991WAT     H124215   8.075   9.838   4.495
 7991WAT     H224216   8.096   9.723   4.381
 7992WAT      O24217   3.816   4.557   5.018
 7992WAT     H124218   3.829   4.469   4.973
 7992WAT     H224219   3.751   4.612   4.965
 7993WAT      O24220   9.697   0.375   0.237
 7993WAT     H124221   9.750   0.460   0.232
 7993WAT     H224222   9.752   0.304   0.281
 7994WAT      O24223   1.798   0.119   7.039
 7994WAT     H124224   1.733   0.043   7.048
 7994WAT     H224225   1.758   0.202   7.079
 7995WAT      O24226   5.435   2.679   4.580
 7995WAT     H124227   5.372   2.752   4.554
 7995WAT     H224228   5.435   2.669   4.680
 7996WAT      O24229   3.000   7.914   1.935
 7996WAT     H124230   3.008   7.824   1.977
 7996WAT     H224231   2.904   7.943   1.934
 7997WAT      O24232   5.246   0.761   0.388
 7997WAT     H124233   5.183   0.752   0.466
 7997WAT     H224234   5.330   0.805   0.419
 7998WAT      O24235   9.142   5.211   3.907
 7998WAT     H124236   9.096   5.293   3.875
 7998WAT     H224237   9.217   5.237   3.969
 7999WAT      O24238   8.619   7.909   0.062
 7999WAT     H124239   8.580   8.000   0.053
 7999WAT     H224240   8.564   7.855   0.126
 8000WAT      O24241   2.646   1.268   7.358
 8000WAT     H124242   2.670   1.251   7.453
 8000WAT     H224243   2.550   1.244   7.343
 8001WAT      O24244   3.623   0.954   9.162
 8001WAT     H124245   3.559   0.979   9.235
 8001WAT     H224246   3.648   0.857   9.172
 8002WAT      O24247   0.397   1.221   8.818
 8002WAT     H124248   0.354   1.304   8.780
 8002WAT     H224249   0.326   1.158   8.848
 8003WAT      O24250   1.090   2.093   7.568
 8003WAT     H124251   1.081   2.149   7.650
 8003WAT     H224252   1.022   2.121   7.500
 8004WAT      O24253   4.945   5.838   6.353
 8004WAT     H124254   4.909   5.837   6.260
 8004WAT     H224255   5.033   5.791   6.356
 8005WAT      O24256   2.896   2.174   6.738
 8005WAT     H124257   2.884   2.190   6.640
 8005WAT     H224258   2.885   2.076   6.758
 8006WAT      O24259   5.702   9.193   7.687
 8006WAT     H124260   5.769   9.119   7.690
 8006WAT     H224261   5.681   9.223   7.780
 8007WAT      O24262   1.009   6.383   4.681
 8007WAT     H124263   1.083   6.450   4.688
 8007WAT     H224264   1.045   6.297   4.645
 8008WAT      O24265   8.549   5.512   0.318
 8008WAT     H124266   8.573   5.499   0.414
 8008WAT     H224267   8.597   5.444   0.263
 8009WAT      O24268   3.467   1.058   0.140
 8009WAT     H124269   3.399   1.101   0.080
 8009WAT     H224270   3.497   1.124   0.209
 8010WAT      O24271   5.936   5.797   5.845
 8010WAT     H124272   5.860   5.752   5.798
 8010WAT     H224273   5.899   5.859   5.915
 8011WAT      O24274   7.595   5.871   1.501
 8011WAT     H124275   7.671   5.818   1.539
 8011WAT     H224276   7.511   5.850   1.551
 8012WAT      O24277   7.441   4.935   9.835
 8012WAT     H124278   7.446   5.029   9.801
 8012WAT     H224279   7.348   4.902   9.827
 8013WAT      O24280   8.316   7.784   5.075
 8013WAT     H124281   8.292   7.688   5.086
 8013WAT     H224282   8.409   7.799   5.110
 8014WAT      O24283   0.340   5.605   0.296
 8014WAT     H124284   0.251   5.612   0.249
 8014WAT     H224285   0.340   5.665   0.376
 8015WAT      O24286   3.718   5.752   7.678
 8015WAT     H124287   3.718   5.838   7.628
 8015WAT     H224288   3.627   5.735   7.715
 8016WAT      O24289   0.724   5.655   5.170
 8016WAT     H124290   0.660   5.654   5.094
 8016WAT     H224291   0.787   5.577   5.162
 8017WAT      O24292   6.778   8.424   1.580
 8017WAT     H124293   6.704   8.457   1.521
 8017WAT     H224294   6.821   8.344   1.539
 8018WAT      O24295   3.198   1.942   6.533
 8018WAT     H124296   3.281   1.910   6.487
 8018WAT     H224297   3.216   1.951   6.632
 8019WAT      O24298   2.130   3.566   9.098
 8019WAT     H124299   2.151   3.471   9.074
 8019WAT     H224300   2.031   3.575   9.111
 8020WAT      O24301   9.453   6.048   4.719
 8020WAT     H124302   9.414   6.014   4.633
 8020WAT     H224303   9.391   6.116   4.759
 8021WAT      O24304   6.559   8.954   9.304
 8021WAT     H124305   6.510   8.972   9.219
 8021WAT     H224306   6.512   8.999   9.380
 8022WAT      O24307   1.854   5.513   7.954
 8022WAT     H124308   1.942   5.549   7.987
 8022WAT     H224309   1.780   5.546   8.012
 8023WAT      O24310   2.501   5.867   3.299
 8023WAT     H124311   2.499   5.924   3.381
 8023WAT     H224312   2.465   5.776   3.320
 8024WAT      O24313   0.123   3.008   4.909
 8024WAT     H124314   0.047   3.052   4.862
 8024WAT     H224315   0.088   2.939   4.973
 8025WAT      O24316   8.403   3.949   1.425
 8025WAT     H124317   8.487   3.904   1.392
 8025WAT     H224318   8.396   3.936   1.524
 8026WAT      O24319   7.148   9.740   1.723
 8026WAT     H124320   7.237   9.706   1.752
 8026WAT     H224321   7.076   9.689   1.772
 8027WAT      O24322   3.399   2.577   9.285
 8027WAT     H124323   3.321   2.583   9.222
 8027WAT     H224324   3.482   2.608   9.237
 8028WAT      O24325   6.422   3.782   6.933
 8028WAT     H124326   6.433   3.684   6.950
 8028WAT     H224327   6.325   3.806   6.938
 8029WAT      O24328   3.635   9.681   7.042
 8029WAT     H124329   3.597   9.764   7.000
 8029WAT     H224330   3.658   9.700   7.138
 8030WAT      O24331   0.471   8.522   8.612
 8030WAT     H124332   0.551   8.537   8.555
 8030WAT     H224333   0.411   8.454   8.569
 8031WAT      O24334   8.890   2.868   2.731
 8031WAT     H124335   8.878   2.788   2.673
 8031WAT     H224336   8.972   2.858   2.787
 8032WAT      O24337   4.755   8.957   8.503
 8032WAT     H124338   4.833   8.960   8.440
 8032WAT     H224339   4.722   8.862   8.510
 8033WAT      O24340   9.763   0.558   5.573
 8033WAT     H124341   9.808   0.646   5.586
 8033WAT     H224342   9.800   0.513   5.492
 8034WAT      O24343   6.805   1.664   3.621
 8034WAT     H124344   6.813   1.759   3.651
 8034WAT     H224345   6.895   1.631   3.592
 8035WAT      O24346   7.637   0.896   0.712
 8035WAT     H124347   7.552   0.915   0.664
 8035WAT     H224348   7.637   0.801   0.742
 8036WAT      O24349   4.569   1.938   7.203
 8036WAT     H124350   4.517   1.948   7.288
 8036WAT     H224351   4.535   2.003   7.135
 8037WAT      O24352   9.599   7.021   6.662
 8037WAT     H124353   9.611   7.094   6.729
 8037WAT     H224354   9.684   6.970   6.653
 8038WAT      O24355   3.929   6.837   3.509
 8038WAT     H124356   3.888   6.855   3.599
 8038WAT     H224357   4.022   6.873   3.507
 8039WAT      O24358   1.416   5.289   9.097
 8039WAT     H124359   1.400   5.262   9.002
 8039WAT     H224360   1.475   5.222   9.142
 8040WAT      O24361   6.550   6.654   3.363
 8040WAT     H124362   6.511   6.653   3.271
 8040WAT     H224363   6.569   6.561   3.392
 8041WAT      O24364   2.315   6.547   7.981
 8041WAT     H124365   2.386   6.496   8.030
 8041WAT     H224366   2.264   6.603   8.045
 8042WAT      O24367   2.828   0.594   2.873
 8042WAT     H124368   2.871   0.504   2.877
 8042WAT     H224369   2.873   0.655   2.938
 8043WAT      O24370   1.356   6.816   1.178
 8043WAT     H124371   1.437   6.849   1.227
 8043WAT     H224372   1.383   6.778   1.090
 8044WAT      O24373   4.149   3.055   0.483
 8044WAT     H124374   4.248   3.064   0.473
 8044WAT     H224375   4.124   3.069   0.579
 8045WAT      O24376   3.253   1.515   2.112
 8045WAT     H124377   3.266   1.534   2.210
 8045WAT     H224378   3.304   1.582   2.059
 8046WAT      O24379   7.644   0.069   6.436
 8046WAT     H124380   7.574   0.140   6.426
 8046WAT     H224381   7.600  -0.020   6.448
 8047WAT      O24382   8.500   0.244   5.106
 8047WAT     H124383   8.482   0.333   5.064
 8047WAT     H224384   8.526   0.178   5.036
 8048WAT      O24385   8.911   6.784   4.805
 8048WAT     H124386   8.916   6.874   4.762
 8048WAT     H224387   8.884   6.716   4.737
 8049WAT      O24388   4.630   5.404   7.223
 8049WAT     H124389   4.725   5.406   7.257
 8049WAT     H224390   4.625   5.346   7.142
 8050WAT      O24391   8.088   9.514   6.812
 8050WAT     H124392   8.044   9.436   6.768
 8050WAT     H224393   8.161   9.481   6.872
 8051WAT      O24394   2.333   9.765   0.069
 8051WAT     H124395   2.424   9.788   0.103
 8051WAT     H224396   2.275   9.847   0.073
 8052WAT      O24397   0.614   7.542   5.803
 8052WAT     H124398   0.674   7.463   5.791
 8052WAT     H224399   0.669   7.622   5.826
 8053WAT      O24400   6.658   1.876   9.042
 8053WAT     H124401   6.562   1.889   9.019
 8053WAT     H224402   6.715   1.925   8.975
 8054WAT      O24403   4.315   1.540   6.944
 8054WAT     H124404   4.352   1.626   6.909
 8054WAT     H224405   4.291   1.552   7.040
 8055WAT      O24406   7.730   7.089   4.499
 8055WAT     H124407   7.809   7.060   4.553
 8055WAT     H224408   7.646   7.054   4.540
 8056WAT      O24409   4.112   6.105   6.892
 8056WAT     H124410   4.153   6.013   6.894
 8056WAT     H224411   4.066   6.119   6.804
 8057WAT      O24412   0.671   6.909   6.418
 8057WAT     H124413   0.672   7.003   6.385
 8057WAT     H224414   0.673   6.847   6.339
 8058WAT      O24415   0.109   2.797   9.160
 8058WAT     H124416   0.038   2.787   9.090
 8058WAT     H224417   0.191   2.835   9.118
 8059WAT      O24418   8.801   6.677   5.771
 8059WAT     H124419   8.864   6.621   5.825
 8059WAT     H224420   8.811   6.773   5.798
 8060WAT      O24421   9.426   2.144   1.730
 8060WAT     H124422   9.407   2.048   1.710
 8060WAT     H224423   9.449   2.191   1.645
 8061WAT      O24424   1.193   8.740   3.547
 8061WAT     H124425   1.127   8.795   3.598
 8061WAT     H224426   1.230   8.794   3.471
 8062WAT      O24427   3.169   7.074   8.538
 8062WAT     H124428   3.227   7.002   8.576
 8062WAT     H224429   3.156   7.057   8.440
 8063WAT      O24430   6.782   7.439   5.154
 8063WAT     H124431   6.882   7.432   5.149
 8063WAT     H224432   6.742   7.417   5.066
 8064WAT      O24433   8.127   0.694   3.708
 8064WAT     H124434   8.032   0.724   3.714
 8064WAT     H224435   8.132   0.605   3.663
 8065WAT      O24436   1.964   7.851   8.473
 8065WAT     H124437   1.870   7.820   8.488
 8065WAT     H224438   2.028   7.777   8.493
 8066WAT      O24439   1.812   0.849   5.754
 8066WAT     H124440   1.735   0.810   5.804
 8066WAT     H224441   1.861   0.914   5.812
 8067WAT      O24442   3.556   0.474   0.029
 8067WAT     H124443   3.461   0.483  -0.002
 8067WAT     H224444   3.557   0.450   0.126
 8068WAT      O24445   3.298   7.535   7.397
 8068WAT     H124446   3.213   7.558   7.444
 8068WAT     H224447   3.317   7.437   7.407
 8069WAT      O24448   8.213   1.617   4.891
 8069WAT     H124449   8.186   1.583   4.801
 8069WAT     H224450   8.192   1.715   4.897
 8070WAT      O24451   0.882   5.474   4.897
 8070WAT     H124452   0.840   5.390   4.932
 8070WAT     H224453   0.981   5.470   4.912
 8071WAT      O24454   2.531   1.707   1.469
 8071WAT     H124455   2.526   1.806   1.457
 8071WAT     H224456   2.543   1.686   1.566
 8072WAT      O24457   2.900   6.782   2.822
 8072WAT     H124458   2.903   6.709   2.890
 8072WAT     H224459   2.989   6.828   2.817
 8073WAT      O24460   4.675   4.885   2.358
 8073WAT     H124461   4.599   4.852   2.303
 8073WAT     H224462   4.758   4.834   2.334
 8074WAT      O24463   2.789   4.031   7.493
 8074WAT     H124464   2.787   4.072   7.584
 8074WAT     H224465   2.754   3.938   7.498
 8075WAT      O24466   0.778   6.585   7.501
 8075WAT     H124467   0.680   6.601   7.491
 8075WAT     H224468   0.804   6.592   7.597
 8076WAT      O24469   7.349   0.412   9.419
 8076WAT     H124470   7.359   0.335   9.482
 8076WAT     H224471   7.321   0.493   9.470
 8077WAT      O24472   0.369   6.641   0.837
 8077WAT     H124473   0.344   6.681   0.925
 8077WAT     H224474   0.348   6.705   0.764
 8078WAT      O24475   2.019   3.377   0.039
 8078WAT     H124476   2.084   3.453   0.039
 8078WAT     H224477   1.990   3.359  -0.055
 8079WAT      O24478   6.695   7.137   6.363
 8079WAT     H124479   6.776   7.106   6.311
 8079WAT     H224480   6.719   7.147   6.459
 8080WAT      O24481   3.226   1.742   8.650
 8080WAT     H124482   3.146   1.769   8.704
 8080WAT     H224483   3.278   1.823   8.625
 8081WAT      O24484   1.859   4.636   7.872
 8081WAT     H124485   1.832   4.595   7.959
 8081WAT     H224486   1.898   4.566   7.812
 8082WAT      O24487   1.182   0.396   3.614
 8082WAT     H124488   1.226   0.307   3.602
 8082WAT     H224489   1.251   0.467   3.626
 8083WAT      O24490   4.429   5.970   1.678
 8083WAT     H124491   4.452   6.054   1.726
 8083WAT     H224492   4.337   5.978   1.639
 8084WAT      O24493   7.278   1.237   3.992
 8084WAT     H124494   7.212   1.307   4.021
 8084WAT     H224495   7.293   1.244   3.894
 8085WAT      O24496   2.264   2.766   9.256
 8085WAT     H124497   2.252   2.829   9.179
 8085WAT     H224498   2.338   2.702   9.234
 8086WAT      O24499   6.052   7.307   2.818
 8086WAT     H124500   6.080   7.347   2.906
 8086WAT     H224501   6.113   7.232   2.794
 8087WAT      O24502   6.853   2.628   3.115
 8087WAT     H124503   6.884   2.631   3.020
 8087WAT     H224504   6.771   2.684   3.125
 8088WAT      O24505   8.155   6.293   7.975
 8088WAT     H124506   8.238   6.338   7.942
 8088WAT     H224507   8.077   6.321   7.918
 8089WAT      O24508   6.835   3.089   3.478
 8089WAT     H124509   6.896   3.076   3.400
 8089WAT     H224510   6.886   3.129   3.554
 8090WAT      O24511   5.680   8.220   1.969
 8090WAT     H124512   5.646   8.263   1.886
 8090WAT     H224513   5.643   8.267   2.049
 8091WAT      O24514   3.358   1.872   7.255
 8091WAT     H124515   3.357   1.773   7.271
 8091WAT     H224516   3.305   1.892   7.172
 8092WAT      O24517   9.236   0.059   8.479
 8092WAT     H124518   9.183   0.108   8.409
 8092WAT     H224519   9.239   0.114   8.562
 8093WAT      O24520   1.723   5.246   7.606
 8093WAT     H124521   1.629   5.242   7.572
 8093WAT     H224522   1.762   5.154   7.609
 8094WAT      O24523   8.997   6.739   0.733
 8094WAT     H124524   9.048   6.773   0.654
 8094WAT     H224525   8.940   6.813   0.770
 8095WAT      O24526   5.514   9.084   0.560
 8095WAT     H124527   5.521   9.096   0.659
 8095WAT     H224528   5.430   9.035   0.538
 8096WAT      O24529   6.877   3.994   2.179
 8096WAT     H124530   6.911   4.084   2.153
 8096WAT     H224531   6.954   3.932   2.195
 8097WAT      O24532   6.211   9.613   4.471
 8097WAT     H124533   6.307   9.589   4.461
 8097WAT     H224534   6.197   9.709   4.445
 8098WAT      O24535   9.128   7.244   6.453
 8098WAT     H124536   9.148   7.328   6.402
 8098WAT     H224537   9.070   7.266   6.532
 8099WAT      O24538   1.238   6.555   8.133
 8099WAT     H124539   1.148   6.511   8.127
 8099WAT     H224540   1.226   6.650   8.163
 8100WAT      O24541   1.242   0.813   3.239
 8100WAT     H124542   1.222   0.875   3.162
 8100WAT     H224543   1.279   0.866   3.315
 8101WAT      O24544   6.991   3.871   0.006
 8101WAT     H124545   6.951   3.917   0.085
 8101WAT     H224546   7.049   3.796   0.036
 8102WAT      O24547   5.972   3.908   5.287
 8102WAT     H124548   5.978   3.809   5.293
 8102WAT     H224549   5.913   3.943   5.359
 8103WAT      O24550   0.978   9.244   6.685
 8103WAT     H124551   0.894   9.254   6.633
 8103WAT     H224552   1.002   9.147   6.692
 8104WAT      O24553   0.103   5.846   5.084
 8104WAT     H124554   0.072   5.757   5.050
 8104WAT     H224555   0.182   5.876   5.031
 8105WAT      O24556   1.775   2.247   4.515
 8105WAT     H124557   1.699   2.183   4.508
 8105WAT     H224558   1.851   2.215   4.460
 8106WAT      O24559   3.977   2.694   5.963
 8106WAT     H124560   3.991   2.602   6.000
 8106WAT     H224561   3.902   2.692   5.897
 8107WAT      O24562   8.530   3.336   0.553
 8107WAT     H124563   8.585   3.365   0.474
 8107WAT     H224564   8.472   3.260   0.526
 8108WAT      O24565   1.184   4.056   0.693
 8108WAT     H124566   1.257   4.113   0.656
 8108WAT     H224567   1.163   3.983   0.628
 8109WAT      O24568   3.034   7.583   6.005
 8109WAT     H124569   2.978   7.562   5.925
 8109WAT     H224570   2.994   7.540   6.086
 8110WAT      O24571   8.344   0.544   5.843
 8110WAT     H124572   8.358   0.449   5.870
 8110WAT     H224573   8.396   0.564   5.760
 8111WAT      O24574   8.840   8.862   2.710
 8111WAT     H124575   8.806   8.784   2.763
 8111WAT     H224576   8.764   8.906   2.662
 8112WAT      O24577   2.512   6.739   3.532
 8112WAT     H124578   2.487   6.693   3.617
 8112WAT     H224579   2.432   6.787   3.495
 8113WAT      O24580   6.444   0.823   6.075
 8113WAT     H124581   6.520   0.882   6.100
 8113WAT     H224582   6.439   0.816   5.975
 8114WAT      O24583   2.978   6.404   3.192
 8114WAT     H124584   2.891   6.391   3.241
 8114WAT     H224585   2.996   6.324   3.135
 8115WAT      O24586   1.390   2.687   9.451
 8115WAT     H124587   1.399   2.703   9.549
 8115WAT     H224588   1.471   2.641   9.417
 8116WAT      O24589   1.189   0.822   7.087
 8116WAT     H124590   1.255   0.808   7.014
 8116WAT     H224591   1.196   0.916   7.121
 8117WAT      O24592   0.085   5.686   0.187
 8117WAT     H124593   0.113   5.764   0.131
 8117WAT     H224594   0.013   5.635   0.140
 8118WAT      O24595   1.119   3.080   7.356
 8118WAT     H124596   1.048   3.017   7.324
 8118WAT     H224597   1.208   3.051   7.319
 8119WAT      O24598   3.750   1.895   0.767
 8119WAT     H124599   3.706   1.849   0.690
 8119WAT     H224600   3.736   1.842   0.850
 8120WAT      O24601   9.297   9.263   3.462
 8120WAT     H124602   9.304   9.246   3.560
 8120WAT     H224603   9.250   9.351   3.446
 8121WAT      O24604   7.547   0.597   6.171
 8121WAT     H124605   7.499   0.656   6.236
 8121WAT     H224606   7.526   0.627   6.078
 8122WAT      O24607   7.677   1.011   3.061
 8122WAT     H124608   7.725   1.081   3.008
 8122WAT     H224609   7.743   0.951   3.106
 8123WAT      O24610   8.847   1.117   2.330
 8123WAT     H124611   8.863   1.199   2.275
 8123WAT     H224612   8.829   1.040   2.269
 8124WAT      O24613   7.853   7.497   8.605
 8124WAT     H124614   7.925   7.429   8.590
 8124WAT     H224615   7.891   7.589   8.594
 8125WAT      O24616   7.730   6.548   1.162
 8125WAT     H124617   7.768   6.519   1.074
 8125WAT     H224618   7.706   6.468   1.215
 8126WAT      O24619   9.770   7.090   0.623
 8126WAT     H124620   9.785   7.185   0.650
 8126WAT     H224621   9.785   7.081   0.524
 8127WAT      O24622   4.880   5.961   3.073
 8127WAT     H124623   4.925   6.049   3.058
 8127WAT     H224624   4.944   5.899   3.119
 8128WAT      O24625   7.934   4.040   7.237
 8128WAT     H124626   7.931   4.077   7.144
 8128WAT     H224627   7.955   3.942   7.234
 8129WAT      O24628   1.217   8.634   0.133
 8129WAT     H124629   1.251   8.574   0.061
 8129WAT     H224630   1.294   8.676   0.181
 8130WAT      O24631   0.379   8.672   1.847
 8130WAT     H124632   0.437   8.613   1.903
 8130WAT     H224633   0.364   8.759   1.894
 8131WAT      O24634   6.706   4.464   6.425
 8131WAT     H124635   6.664   4.513   6.348
 8131WAT     H224636   6.664   4.495   6.510
 8132WAT      O24637   7.500   8.850   9.685
 8132WAT     H124638   7.532   8.772   9.632
 8132WAT     H224639   7.571   8.879   9.748
 8133WAT      O24640   9.108   0.238   2.287
 8133WAT     H124641   9.199   0.278   2.299
 8133WAT     H224642   9.115   0.139   2.285
 8134WAT      O24643   1.935   4.260   3.577
 8134WAT     H124644   1.899   4.171   3.606
 8134WAT     H224645   2.035   4.254   3.568
 8135WAT      O24646   3.256   6.015   6.244
 8135WAT     H124647   3.257   5.958   6.162
 8135WAT     H224648   3.325   5.982   6.309
 8136WAT      O24649   5.718   3.391   3.712
 8136WAT     H124650   5.763   3.428   3.793
 8136WAT     H224651   5.698   3.294   3.726
 8137WAT      O24652   2.245   0.827   4.758
 8137WAT     H124653   2.281   0.734   4.759
 8137WAT     H224654   2.151   0.827   4.793
 8138WAT      O24655   2.859   3.102   4.710
 8138WAT     H124656   2.888   3.011   4.681
 8138WAT     H224657   2.821   3.152   4.632
 8139WAT      O24658   2.670   0.775   5.419
 8139WAT     H124659   2.574   0.749   5.427
 8139WAT     H224660   2.709   0.735   5.336
 8140WAT      O24661   3.688   8.929   0.494
 8140WAT     H124662   3.645   9.007   0.448
 8140WAT     H224663   3.645   8.844   0.463
 8141WAT      O24664   6.942   5.775   0.497
 8141WAT     H124665   6.887   5.852   0.465
 8141WAT     H224666   6.964   5.716   0.419
 8142WAT      O24667   6.399   8.789   0.604
 8142WAT     H124668   6.300   8.805   0.594
 8142WAT     H224669   6.450   8.865   0.564
 8143WAT      O24670   5.571   8.091   0.836
 8143WAT     H124671   5.519   8.176   0.837
 8143WAT     H224672   5.654   8.102   0.781
 8144WAT      O24673   5.289   9.041   4.617
 8144WAT     H124674   5.309   9.021   4.521
 8144WAT     H224675   5.302   9.139   4.634
 8145WAT      O24676   9.052   2.787   1.885
 8145WAT     H124677   9.064   2.886   1.883
 8145WAT     H224678   9.139   2.743   1.863
 8146WAT      O24679   4.636   0.311   3.172
 8146WAT     H124680   4.675   0.394   3.212
 8146WAT     H224681   4.536   0.315   3.179
 8147WAT      O24682   7.104   0.583   9.715
 8147WAT     H124683   7.089   0.491   9.749
 8147WAT     H224684   7.017   0.630   9.705
 8148WAT      O24685   5.426   1.598   0.912
 8148WAT     H124686   5.360   1.631   0.846
 8148WAT     H224687   5.445   1.669   0.980
 8149WAT      O24688   0.364   2.204   3.822
 8149WAT     H124689   0.461   2.227   3.826
 8149WAT     H224690   0.320   2.258   3.750
 8150WAT      O24691   9.643   2.312   0.568
 8150WAT     H124692   9.732   2.269   0.554
 8150WAT     H224693   9.571   2.253   0.532
 8151WAT      O24694   6.378   0.507   1.676
 8151WAT     H124695   6.339   0.597   1.657
 8151WAT     H224696   6.341   0.472   1.762
 8152WAT      O24697   3.519   5.388   3.666
 8152WAT     H124698   3.598   5.344   3.623
 8152WAT     H224699   3.494   5.337   3.749
 8153WAT      O24700   7.075   4.014   8.576
 8153WAT     H124701   7.107   4.027   8.670
 8153WAT     H224702   7.093   3.920   8.548
 8154WAT      O24703   7.868   6.879   8.228
 8154WAT     H124704   7.902   6.967   8.195
 8154WAT     H224705   7.910   6.805   8.175
 8155WAT      O24706   9.652   8.211   3.083
 8155WAT     H124707   9.678   8.187   3.176
 8155WAT     H224708   9.643   8.310   3.075
 8156WAT      O24709   6.775   9.128   0.024
 8156WAT     H124710   6.771   9.035   0.061
 8156WAT     H224711   6.839   9.182   0.077
 8157WAT      O24712   1.034   6.221   4.983
 8157WAT     H124713   0.989   6.197   5.069
 8157WAT     H224714   1.043   6.321   4.978
 8158WAT      O24715   0.722   3.525   3.860
 8158WAT     H124716   0.760   3.475   3.783
 8158WAT     H224717   0.636   3.568   3.833
 8159WAT      O24718   8.799   3.509   3.520
 8159WAT     H124719   8.749   3.536   3.603
 8159WAT     H224720   8.735   3.475   3.452
 8160WAT      O24721   8.924   4.371   0.089
 8160WAT     H124722   8.952   4.383   0.185
 8160WAT     H224723   8.868   4.288   0.081
 8161WAT      O24724   2.679   8.919   5.326
 8161WAT     H124725   2.606   8.957   5.383
 8161WAT     H224726   2.727   8.993   5.279
 8162WAT      O24727   1.958   6.386   0.994
 8162WAT     H124728   1.893   6.454   1.030
 8162WAT     H224729   1.997   6.419   0.909
 8163WAT      O24730   7.887   9.250   9.446
 8163WAT     H124731   7.815   9.315   9.420
 8163WAT     H224732   7.958   9.248   9.375
 8164WAT      O24733   9.267   3.827   6.277
 8164WAT     H124734   9.302   3.801   6.187
 8164WAT     H224735   9.261   3.927   6.283
 8165WAT      O24736   3.836   1.867   7.332
 8165WAT     H124737   3.868   1.871   7.427
 8165WAT     H224738   3.809   1.773   7.310
 8166WAT      O24739   6.607   9.795   1.088
 8166WAT     H124740   6.608   9.715   1.148
 8166WAT     H224741   6.581   9.876   1.140
 8167WAT      O24742   1.120   6.858   5.506
 8167WAT     H124743   1.138   6.956   5.518
 8167WAT     H224744   1.021   6.843   5.504
 8168WAT      O24745   9.500   8.919   6.970
 8168WAT     H124746   9.489   9.012   7.005
 8168WAT     H224747   9.588   8.882   7.000
 8169WAT      O24748   4.788   0.226   8.681
 8169WAT     H124749   4.798   0.216   8.582
 8169WAT     H224750   4.876   0.205   8.725
 8170WAT      O24751   2.416   1.934   8.282
 8170WAT     H124752   2.359   1.952   8.202
 8170WAT     H224753   2.498   1.884   8.254
 8171WAT      O24754   5.343   9.788   8.883
 8171WAT     H124755   5.287   9.732   8.945
 8171WAT     H224756   5.390   9.728   8.817
 8172WAT      O24757   4.383   4.432   6.515
 8172WAT     H124758   4.383   4.333   6.528
 8172WAT     H224759   4.332   4.455   6.432
 8173WAT      O24760   7.402   2.484   8.079
 8173WAT     H124761   7.369   2.506   8.171
 8173WAT     H224762   7.493   2.523   8.067
 8174WAT      O24763   6.136   7.340   7.188
 8174WAT     H124764   6.050   7.389   7.204
 8174WAT     H224765   6.211   7.392   7.230
 8175WAT      O24766   2.813   6.227   6.616
 8175WAT     H124767   2.750   6.228   6.538
 8175WAT     H224768   2.897   6.180   6.590
 8176WAT      O24769   2.117   0.458   8.681
 8176WAT     H124770   2.192   0.485   8.740
 8176WAT     H224771   2.145   0.463   8.585
 8177WAT      O24772   5.370   1.150   7.578
 8177WAT     H124773   5.432   1.228   7.579
 8177WAT     H224774   5.392   1.091   7.500
 8178WAT      O24775   0.770   7.431   2.458
 8178WAT     H124776   0.701   7.440   2.386
 8178WAT     H224777   0.755   7.346   2.508
 8179WAT      O24778   3.177   2.141   5.425
 8179WAT     H124779   3.111   2.211   5.398
 8179WAT     H224780   3.197   2.083   5.346
 8180WAT      O24781   2.973   6.286   4.486
 8180WAT     H124782   2.966   6.385   4.484
 8180WAT     H224783   2.889   6.245   4.451
 8181WAT      O24784   1.924   6.156   0.853
 8181WAT     H124785   1.963   6.236   0.898
 8181WAT     H224786   1.940   6.075   0.910
 8182WAT      O24787   3.220   3.211   7.019
 8182WAT     H124788   3.251   3.150   7.092
 8182WAT     H224789   3.298   3.234   6.960
 8183WAT      O24790   0.769   9.639   8.178
 8183WAT     H124791   0.683   9.657   8.226
 8183WAT     H224792   0.785   9.711   8.111
 8184WAT      O24793   3.224   3.260   9.003
 8184WAT     H124794   3.267   3.233   9.089
 8184WAT     H224795   3.294   3.274   8.933
 8185WAT      O24796   7.555   1.769   0.889
 8185WAT     H124797   7.576   1.810   0.979
 8185WAT     H224798   7.639   1.765   0.835
 8186WAT      O24799   7.883   5.715   4.347
 8186WAT     H124800   7.904   5.811   4.363
 8186WAT     H224801   7.876   5.697   4.249
 8187WAT      O24802   4.743   4.676   8.512
 8187WAT     H124803   4.823   4.710   8.464
 8187WAT     H224804   4.705   4.748   8.570
 8188WAT      O24805   8.751   6.045   7.710
 8188WAT     H124806   8.685   5.972   7.691
 8188WAT     H224807   8.794   6.075   7.624
 8189WAT      O24808   0.168   8.718   4.074
 8189WAT     H124809   0.124   8.636   4.036
 8189WAT     H224810   0.151   8.796   4.014
 8190WAT      O24811   4.884   8.856   8.796
 8190WAT     H124812   4.877   8.828   8.892
 8190WAT     H224813   4.792   8.859   8.756
 8191WAT      O24814   2.108   5.213   9.821
 8191WAT     H124815   2.042   5.154   9.774
 8191WAT     H224816   2.179   5.156   9.863
 8192WAT      O24817   2.233   1.384   8.532
 8192WAT     H124818   2.284   1.346   8.609
 8192WAT     H224819   2.176   1.461   8.563
 8193WAT      O24820   7.967   3.206   7.627
 8193WAT     H124821   7.972   3.213   7.528
 8193WAT     H224822   7.948   3.111   7.653
 8194WAT      O24823   8.280   7.537   5.235
 8194WAT     H124824   8.348   7.543   5.307
 8194WAT     H224825   8.191   7.564   5.271
 8195WAT      O24826   3.341   7.799   4.904
 8195WAT     H124827   3.432   7.782   4.865
 8195WAT     H224828   3.291   7.862   4.845
 8196WAT      O24829   4.862   2.312   7.498
 8196WAT     H124830   4.814   2.306   7.411
 8196WAT     H224831   4.893   2.406   7.512
 8197WAT      O24832   2.002   6.225   3.602
 8197WAT     H124833   2.024   6.250   3.697
 8197WAT     H224834   2.074   6.164   3.567
 8198WAT      O24835   2.048   9.792   4.231
 8198WAT     H124836   2.083   9.706   4.268
 8198WAT     H224837   2.121   9.839   4.181
 8199WAT      O24838   5.182   8.519   1.091
 8199WAT     H124839   5.224   8.523   1.182
 8199WAT     H224840   5.248   8.550   1.023
 8200WAT      O24841   5.284   2.627   8.856
 8200WAT     H124842   5.349   2.702   8.844
 8200WAT     H224843   5.308   2.575   8.937
 8201WAT      O24844   5.151   5.290   1.294
 8201WAT     H124845   5.102   5.243   1.221
 8201WAT     H224846   5.128   5.387   1.293
 8202WAT      O24847   8.770   9.612   9.066
 8202WAT     H124848   8.769   9.514   9.043
 8202WAT     H224849   8.754   9.622   9.164
 8203WAT      O24850   1.364   3.337   9.281
 8203WAT     H124851   1.389   3.256   9.335
 8203WAT     H224852   1.341   3.310   9.188
 8204WAT      O24853   6.268   7.990   8.903
 8204WAT     H124854   6.336   8.033   8.963
 8204WAT     H224855   6.293   7.895   8.887
 8205WAT      O24856   3.351   5.741   3.332
 8205WAT     H124857   3.291   5.679   3.383
 8205WAT     H224858   3.446   5.721   3.355
 8206WAT      O24859   2.688   1.806   7.902
 8206WAT     H124860   2.788   1.812   7.897
 8206WAT     H224861   2.658   1.719   7.863
 8207WAT      O24862   3.182   3.323   9.546
 8207WAT     H124863   3.180   3.240   9.601
 8207WAT     H224864   3.275   3.339   9.513
 8208WAT      O24865   1.496   0.991   0.698
 8208WAT     H124866   1.576   1.040   0.734
 8208WAT     H224867   1.475   1.025   0.606
 8209WAT      O24868   1.884   2.045   2.098
 8209WAT     H124869   1.785   2.037   2.088
 8209WAT     H224870   1.912   2.139   2.079
 8210WAT      O24871   6.681   2.701   8.658
 8210WAT     H124872   6.744   2.779   8.653
 8210WAT     H224873   6.645   2.693   8.751
 8211WAT      O24874   5.522   8.479   4.427
 8211WAT     H124875   5.425   8.461   4.410
 8211WAT     H224876   5.576   8.403   4.392
 8212WAT      O24877   3.920   5.653   0.419
 8212WAT     H124878   3.923   5.751   0.441
 8212WAT     H224879   3.877   5.603   0.494
 8213WAT      O24880   2.264   1.050   6.738
 8213WAT     H124881   2.203   1.129   6.745
 8213WAT     H224882   2.337   1.059   6.806
 8214WAT      O24883   6.027   6.273   0.656
 8214WAT     H124884   5.993   6.267   0.563
 8214WAT     H224885   5.957   6.238   0.719
 8215WAT      O24886   4.442   5.758   2.368
 8215WAT     H124887   4.509   5.810   2.315
 8215WAT     H224888   4.369   5.819   2.399
 8216WAT      O24889   1.735   0.185   3.256
 8216WAT     H124890   1.816   0.210   3.203
 8216WAT     H224891   1.704   0.094   3.229
 8217WAT      O24892   6.789   5.275   0.110
 8217WAT     H124893   6.697   5.236   0.116
 8217WAT     H224894   6.852   5.208   0.071
 8218WAT      O24895   1.851   8.107   7.882
 8218WAT     H124896   1.792   8.149   7.952
 8218WAT     H224897   1.935   8.160   7.875
 8219WAT      O24898   1.362   1.214   4.364
 8219WAT     H124899   1.340   1.206   4.461
 8219WAT     H224900   1.414   1.134   4.335
 8220WAT      O24901   5.322   0.862   9.553
 8220WAT     H124902   5.388   0.920   9.601
 8220WAT     H224903   5.318   0.773   9.598
 8221WAT      O24904   7.651   0.684   6.516
 8221WAT     H124905   7.642   0.728   6.605
 8221WAT     H224906   7.572   0.707   6.459
 8222WAT      O24907   5.808   8.352   3.304
 8222WAT     H124908   5.779   8.397   3.389
 8222WAT     H224909   5.728   8.332   3.248
 8223WAT      O24910   9.599   1.027   5.359
 8223WAT     H124911   9.548   0.963   5.302
 8223WAT     H224912   9.697   1.004   5.355
 8224WAT      O24913   1.804   4.617   3.235
 8224WAT     H124914   1.875   4.651   3.298
 8224WAT     H224915   1.846   4.563   3.163
 8225WAT      O24916   1.929   1.332   1.242
 8225WAT     H124917   1.994   1.311   1.315
 8225WAT     H224918   1.856   1.264   1.242
 8226WAT      O24919   3.116   7.622   8.014
 8226WAT     H124920   3.146   7.690   8.081
 8226WAT     H224921   3.019   7.603   8.028
 8227WAT      O24922   1.953   6.716   3.048
 8227WAT     H124923   1.991   6.626   3.027
 8227WAT     H224924   1.998   6.753   3.129
 8228WAT      O24925   9.034   7.192   6.920
 8228WAT     H124926   9.092   7.182   6.839
 8228WAT     H224927   9.077   7.147   6.998
 8229WAT      O24928   1.854   2.494   2.106
 8229WAT     H124929   1.936   2.458   2.150
 8229WAT     H224930   1.821   2.573   2.157
 8230WAT      O24931   9.350   3.196   8.992
 8230WAT     H124932   9.262   3.190   9.038
 8230WAT     H224933   9.361   3.287   8.952
 8231WAT      O24934   2.768   7.204   2.115
 8231WAT     H124935   2.736   7.295   2.142
 8231WAT     H224936   2.695   7.137   2.130
 8232WAT      O24937   6.722   6.254   7.495
 8232WAT     H124938   6.804   6.217   7.540
 8232WAT     H224939   6.646   6.254   7.560
 8233WAT      O24940   8.900   5.555   1.119
 8233WAT     H124941   8.835   5.520   1.051
 8233WAT     H224942   8.878   5.649   1.141
 8234WAT      O24943   8.016   5.458   4.971
 8234WAT     H124944   8.075   5.414   5.038
 8234WAT     H224945   8.009   5.399   4.890
 8235WAT      O24946   7.268   9.556   0.874
 8235WAT     H124947   7.268   9.457   0.889
 8235WAT     H224948   7.247   9.602   0.960
 8236WAT      O24949   3.430   7.183   9.533
 8236WAT     H124950   3.472   7.268   9.500
 8236WAT     H224951   3.499   7.130   9.583
 8237WAT      O24952   8.050   2.685   1.664
 8237WAT     H124953   8.109   2.666   1.742
 8237WAT     H224954   8.098   2.662   1.580
 8238WAT      O24955   1.975   0.518   2.534
 8238WAT     H124956   1.893   0.529   2.589
 8238WAT     H224957   2.052   0.491   2.593
 8239WAT      O24958   8.359   4.600   3.677
 8239WAT     H124959   8.317   4.553   3.755
 8239WAT     H224960   8.396   4.533   3.613
 8240WAT      O24961   0.896   0.801   6.089
 8240WAT     H124962   0.846   0.886   6.069
 8240WAT     H224963   0.887   0.780   6.186
 8241WAT      O24964   9.538   2.314   2.649
 8241WAT     H124965   9.492   2.230   2.676
 8241WAT     H224966   9.627   2.320   2.694
 8242WAT      O24967   7.101   1.281   8.124
 8242WAT     H124968   7.069   1.207   8.182
 8242WAT     H224969   7.071   1.369   8.162
 8243WAT      O24970   0.431   3.584   4.642
 8243WAT     H124971   0.346   3.632   4.622
 8243WAT     H224972   0.411   3.489   4.668
 8244WAT      O24973   7.181   3.892   9.414
 8244WAT     H124974   7.183   3.840   9.500
 8244WAT     H224975   7.136   3.979   9.429
 8245WAT      O24976   9.784   6.659   1.869
 8245WAT     H124977   9.731   6.688   1.948
 8245WAT     H224978   9.760   6.564   1.846
 8246WAT      O24979   7.114   7.510   5.727
 8246WAT     H124980   7.110   7.599   5.771
 8246WAT     H224981   7.160   7.445   5.788
 8247WAT      O24982   7.917   4.014   8.797
 8247WAT     H124983   7.944   3.972   8.883
 8247WAT     H224984   7.837   3.967   8.760
 8248WAT      O24985   7.418   7.227   4.118
 8248WAT     H124986   7.329   7.267   4.140
 8248WAT     H224987   7.477   7.229   4.199
 8249WAT      O24988   2.541   0.222   6.524
 8249WAT     H124989   2.507   0.241   6.432
 8249WAT     H224990   2.636   0.190   6.519
 8250WAT      O24991   8.663   8.738   5.143
 8250WAT     H124992   8.633   8.668   5.208
 8250WAT     H224993   8.672   8.698   5.052
 8251WAT      O24994   3.240   4.441   4.977
 8251WAT     H124995   3.200   4.349   4.979
 8251WAT     H224996   3.288   4.458   5.063
 8252WAT      O24997   1.552   6.352   4.680
 8252WAT     H124998   1.607   6.376   4.760
 8252WAT     H224999   1.456   6.375   4.697
 8253WAT      O25000   7.636   6.631   4.137
 8253WAT     H125001   7.646   6.706   4.071
 8253WAT     H225002   7.624   6.669   4.229
 8254WAT      O25003   5.033   6.502   8.032
 8254WAT     H125004   4.939   6.470   8.027
 8254WAT     H225005   5.035   6.598   8.059
 8255WAT      O25006   7.334   4.499   2.451
 8255WAT     H125007   7.322   4.597   2.434
 8255WAT     H225008   7.414   4.466   2.401
 8256WAT      O25009   2.592   5.058   1.731
 8256WAT     H125010   2.565   5.110   1.812
 8256WAT     H225011   2.689   5.035   1.737
 8257WAT      O25012   8.214   2.358   1.983
 8257WAT     H125013   8.311   2.367   2.007
 8257WAT     H225014   8.159   2.414   2.045
 8258WAT      O25015   2.417   3.152   3.823
 8258WAT     H125016   2.439   3.216   3.750
 8258WAT     H225017   2.367   3.074   3.785
 8259WAT      O25018   2.749   1.888   1.848
 8259WAT     H125019   2.809   1.809   1.837
 8259WAT     H225020   2.690   1.875   1.928
 8260WAT      O25021   4.573   3.444   4.643
 8260WAT     H125022   4.512   3.365   4.635
 8260WAT     H225023   4.568   3.499   4.560
 8261WAT      O25024   2.840   5.894   8.016
 8261WAT     H125025   2.743   5.874   8.001
 8261WAT     H225026   2.877   5.940   7.936
 8262WAT      O25027   0.495   3.644   3.746
 8262WAT     H125028   0.483   3.742   3.731
 8262WAT     H225029   0.412   3.607   3.788
 8263WAT      O25030   4.472   0.469   7.212
 8263WAT     H125031   4.460   0.469   7.312
 8263WAT     H225032   4.449   0.559   7.176
 8264WAT      O25033   5.272   7.720   5.551
 8264WAT     H125034   5.218   7.747   5.471
 8264WAT     H225035   5.240   7.632   5.584
 8265WAT      O25036   2.994   5.633   4.070
 8265WAT     H125037   2.906   5.631   4.117
 8265WAT     H225038   3.017   5.542   4.038
 8266WAT      O25039   2.975   0.195   5.777
 8266WAT     H125040   3.049   0.241   5.827
 8266WAT     H225041   2.966   0.101   5.810
 8267WAT      O25042   2.622   8.443   0.824
 8267WAT     H125043   2.526   8.446   0.853
 8267WAT     H225044   2.629   8.396   0.736
 8268WAT      O25045   6.168   9.582   0.238
 8268WAT     H125046   6.117   9.524   0.175
 8268WAT     H225047   6.243   9.529   0.279
 8269WAT      O25048   3.428   3.411   1.639
 8269WAT     H125049   3.350   3.447   1.588
 8269WAT     H225050   3.470   3.484   1.693
 8270WAT      O25051   1.042   0.605   5.497
 8270WAT     H125052   1.056   0.684   5.557
 8270WAT     H225053   1.008   0.636   5.408
 8271WAT      O25054   9.492   5.586   8.068
 8271WAT     H125055   9.519   5.631   7.982
 8271WAT     H225056   9.571   5.542   8.109
 8272WAT      O25057   0.995   6.013   6.615
 8272WAT     H125058   0.897   5.999   6.628
 8272WAT     H225059   1.030   6.072   6.687
 8273WAT      O25060   0.813   5.864   2.281
 8273WAT     H125061   0.808   5.955   2.321
 8273WAT     H225062   0.825   5.871   2.182
 8274WAT      O25063   9.069   3.861   3.670
 8274WAT     H125064   9.167   3.858   3.648
 8274WAT     H225065   9.016   3.844   3.587
 8275WAT      O25066   4.030   8.250   2.419
 8275WAT     H125067   4.076   8.288   2.500
 8275WAT     H225068   4.097   8.235   2.347
 8276WAT      O25069   4.972   2.518   0.791
 8276WAT     H125070   5.035   2.441   0.787
 8276WAT     H225071   5.009   2.594   0.739
 8277WAT      O25072   1.376   7.994   0.198
 8277WAT     H125073   1.458   8.050   0.186
 8277WAT     H225074   1.355   7.987   0.295
 8278WAT      O25075   4.273   4.424   1.728
 8278WAT     H125076   4.201   4.452   1.792
 8278WAT     H225077   4.312   4.336   1.757
 8279WAT      O25078   0.817   6.820   8.308
 8279WAT     H125079   0.735   6.858   8.350
 8279WAT     H225080   0.823   6.723   8.330
 8280WAT      O25081   5.319   2.175   9.266
 8280WAT     H125082   5.363   2.217   9.346
 8280WAT     H225083   5.276   2.089   9.293
 8281WAT      O25084   9.237   5.063   4.204
 8281WAT     H125085   9.167   5.125   4.240
 8281WAT     H225086   9.324   5.081   4.249
 8282WAT      O25087   3.289   1.279   8.306
 8282WAT     H125088   3.341   1.354   8.265
 8282WAT     H225089   3.242   1.228   8.234
 8283WAT      O25090   6.573   1.526   3.628
 8283WAT     H125091   6.499   1.590   3.650
 8283WAT     H225092   6.660   1.575   3.627
 8284WAT      O25093   0.294   3.644   1.966
 8284WAT     H125094   0.282   3.556   2.013
 8284WAT     H225095   0.380   3.642   1.915
 8285WAT      O25096   2.876   6.870   2.176
 8285WAT     H125097   2.904   6.828   2.090
 8285WAT     H225098   2.779   6.895   2.171
 8286WAT      O25099   6.261   6.956   9.202
 8286WAT     H125100   6.312   6.967   9.287
 8286WAT     H225101   6.275   7.036   9.143
 8287WAT      O25102   9.871   6.364   3.962
 8287WAT     H125103   9.870   6.336   3.866
 8287WAT     H225104   9.814   6.446   3.973
 8288WAT      O25105   4.836   2.388   2.525
 8288WAT     H125106   4.794   2.479   2.530
 8288WAT     H225107   4.878   2.376   2.436
 8289WAT      O25108   8.018   0.091   7.475
 8289WAT     H125109   8.025   0.029   7.553
 8289WAT     H225110   7.955   0.053   7.408
 8290WAT      O25111   5.723   8.385   5.470
 8290WAT     H125112   5.789   8.430   5.409
 8290WAT     H225113   5.696   8.449   5.542
 8291WAT      O25114   9.348   9.467   6.745
 8291WAT     H125115   9.424   9.492   6.685
 8291WAT     H225116   9.286   9.545   6.753
 8292WAT      O25117   2.709   8.818   4.362
 8292WAT     H125118   2.779   8.864   4.416
 8292WAT     H225119   2.750   8.776   4.281
 8293WAT      O25120   9.175   0.927   8.564
 8293WAT     H125121   9.159   0.837   8.602
 8293WAT     H225122   9.154   0.997   8.632
 8294WAT      O25123   6.249   5.274   4.434
 8294WAT     H125124   6.333   5.291   4.485
 8294WAT     H225125   6.261   5.305   4.339
 8295WAT      O25126   5.246   0.114   0.418
 8295WAT     H125127   5.340   0.149   0.412
 8295WAT     H225128   5.222   0.099   0.514
 8296WAT      O25129   7.541   2.947   2.687
 8296WAT     H125130   7.536   2.848   2.671
 8296WAT     H225131   7.547   2.965   2.785
 8297WAT      O25132   6.547   1.050   7.695
 8297WAT     H125133   6.482   1.096   7.634
 8297WAT     H225134   6.578   1.113   7.766
 8298WAT      O25135   9.120   0.236   7.833
 8298WAT     H125136   9.072   0.179   7.899
 8298WAT     H225137   9.053   0.279   7.771
 8299WAT      O25138   9.799   4.534   8.897
 8299WAT     H125139   9.839   4.508   8.809
 8299WAT     H225140   9.752   4.455   8.937
 8300WAT      O25141   5.705   4.573   0.278
 8300WAT     H125142   5.785   4.633   0.266
 8300WAT     H225143   5.645   4.612   0.348
 8301WAT      O25144   8.952   3.579   4.111
 8301WAT     H125145   8.949   3.587   4.011
 8301WAT     H225146   8.950   3.671   4.151
 8302WAT      O25147   4.558   9.047   6.500
 8302WAT     H125148   4.482   9.076   6.442
 8302WAT     H225149   4.522   8.994   6.578
 8303WAT      O25150   8.956   0.894   4.708
 8303WAT     H125151   8.879   0.834   4.727
 8303WAT     H225152   8.939   0.943   4.622
 8304WAT      O25153   8.277   0.482   4.497
 8304WAT     H125154   8.331   0.439   4.426
 8304WAT     H225155   8.337   0.530   4.561
 8305WAT      O25156   2.965   7.332   4.628
 8305WAT     H125157   2.885   7.286   4.667
 8305WAT     H225158   2.936   7.389   4.551
 8306WAT      O25159   9.107   6.784   0.465
 8306WAT     H125160   9.062   6.844   0.399
 8306WAT     H225161   9.140   6.702   0.417
 8307WAT      O25162   8.461   9.617   4.014
 8307WAT     H125163   8.375   9.647   4.055
 8307WAT     H225164   8.522   9.695   4.003
 8308WAT      O25165   2.466   7.363   4.709
 8308WAT     H125166   2.376   7.396   4.680
 8308WAT     H225167   2.535   7.392   4.642
 8309WAT      O25168   3.917   9.364   8.736
 8309WAT     H125169   3.893   9.283   8.683
 8309WAT     H225170   3.910   9.445   8.678
 8310WAT      O25171   4.822   8.142   7.281
 8310WAT     H125172   4.865   8.069   7.334
 8310WAT     H225173   4.726   8.150   7.307
 8311WAT      O25174   9.587   2.931   2.927
 8311WAT     H125175   9.558   2.864   2.860
 8311WAT     H225176   9.547   2.909   3.016
 8312WAT      O25177   8.450   6.978   9.579
 8312WAT     H125178   8.511   7.053   9.553
 8312WAT     H225179   8.372   6.976   9.516
 8313WAT      O25180   2.642   5.979   2.196
 8313WAT     H125181   2.712   5.990   2.267
 8313WAT     H225182   2.664   6.038   2.118
 8314WAT      O25183   6.202   3.539   1.345
 8314WAT     H125184   6.240   3.481   1.416
 8314WAT     H225185   6.268   3.610   1.320
 8315WAT      O25186   3.428   0.409   7.890
 8315WAT     H125187   3.329   0.420   7.892
 8315WAT     H225188   3.466   0.469   7.819
 8316WAT      O25189   8.435   5.503   6.999
 8316WAT     H125190   8.450   5.601   6.985
 8316WAT     H225191   8.505   5.466   7.060
 8317WAT      O25192   4.178   0.123   8.753
 8317WAT     H125193   4.154   0.096   8.846
 8317WAT     H225194   4.274   0.152   8.751
 8318WAT      O25195   0.753   5.339   0.288
 8318WAT     H125196   0.733   5.257   0.342
 8318WAT     H225197   0.824   5.317   0.220
 8319WAT      O25198   2.748   5.095   2.694
 8319WAT     H125199   2.651   5.107   2.673
 8319WAT     H225200   2.802   5.118   2.614
 8320WAT      O25201   0.664   1.984   3.718
 8320WAT     H125202   0.568   1.956   3.710
 8320WAT     H225203   0.672   2.055   3.789
 8321WAT      O25204   7.323   0.319   6.990
 8321WAT     H125205   7.250   0.281   6.933
 8321WAT     H225206   7.402   0.343   6.933
 8322WAT      O25207   9.748   8.881   0.624
 8322WAT     H125208   9.795   8.959   0.583
 8322WAT     H225209   9.739   8.895   0.722
 8323WAT      O25210   5.384   9.698   4.767
 8323WAT     H125211   5.446   9.776   4.757
 8323WAT     H225212   5.332   9.708   4.852
 8324WAT      O25213   8.424   6.679   3.672
 8324WAT     H125214   8.433   6.639   3.581
 8324WAT     H225215   8.400   6.608   3.738
 8325WAT      O25216   1.242   3.567   5.205
 8325WAT     H125217   1.287   3.650   5.171
 8325WAT     H225218   1.164   3.545   5.147
 8326WAT      O25219   8.909   0.904   4.257
 8326WAT     H125220   8.950   0.815   4.277
 8326WAT     H225221   8.982   0.973   4.249
 8327WAT      O25222   1.889   4.304   9.219
 8327WAT     H125223   1.973   4.266   9.180
 8327WAT     H225224   1.913   4.373   9.287
 8328WAT      O25225   4.937   0.416   6.412
 8328WAT     H125226   4.987   0.442   6.495
 8328WAT     H225227   4.988   0.345   6.363
 8329WAT      O25228   6.013   9.208   1.033
 8329WAT     H125229   5.916   9.187   1.051
 8329WAT     H225230   6.052   9.136   0.977
 8330WAT      O25231   8.179   0.164   7.100
 8330WAT     H125232   8.107   0.111   7.144
 8330WAT     H225233   8.141   0.247   7.061
 8331WAT      O25234   8.752   7.807   7.743
 8331WAT     H125235   8.679   7.754   7.700
 8331WAT     H225236   8.754   7.787   7.841
 8332WAT      O25237   5.620   0.355   0.525
 8332WAT     H125238   5.682   0.412   0.470
 8332WAT     H225239   5.562   0.413   0.581
 8333WAT      O25240   4.558   1.611   4.147
 8333WAT     H125241   4.489   1.641   4.213
 8333WAT     H225242   4.591   1.689   4.094
 8334WAT      O25243   0.567   0.756   4.691
 8334WAT     H125244   0.601   0.714   4.775
 8334WAT     H225245   0.568   0.688   4.617
 8335WAT      O25246   6.743   6.400   9.427
 8335WAT     H125247   6.826   6.455   9.421
 8335WAT     H225248   6.679   6.444   9.490
 8336WAT      O25249   1.036   1.361   5.791
 8336WAT     H125250   0.985   1.347   5.706
 8336WAT     H225251   1.041   1.275   5.842
 8337WAT      O25252   3.585   3.041   1.323
 8337WAT     H125253   3.497   3.006   1.353
 8337WAT     H225254   3.630   3.089   1.398
 8338WAT      O25255   7.296   1.182   0.291
 8338WAT     H125256   7.352   1.222   0.219
 8338WAT     H225257   7.301   1.239   0.373
 8339WAT      O25258   0.215   4.569   2.535
 8339WAT     H125259   0.299   4.602   2.492
 8339WAT     H225260   0.202   4.617   2.622
 8340WAT      O25261   7.178   7.818   4.389
 8340WAT     H125262   7.108   7.793   4.457
 8340WAT     H225263   7.208   7.912   4.406
 8341WAT      O25264   2.484   4.960   0.163
 8341WAT     H125265   2.567   4.907   0.143
 8341WAT     H225266   2.447   4.932   0.251
 8342WAT      O25267   5.432   9.158   0.174
 8342WAT     H125268   5.341   9.159   0.133
 8342WAT     H225269   5.482   9.076   0.145
 8343WAT      O25270   3.108   4.845   7.548
 8343WAT     H125271   3.198   4.815   7.581
 8343WAT     H225272   3.038   4.817   7.613
 8344WAT      O25273   5.067   0.119   5.324
 8344WAT     H125274   5.112   0.163   5.246
 8344WAT     H225275   4.978   0.162   5.339
 8345WAT      O25276   6.865   9.410   5.072
 8345WAT     H125277   6.796   9.376   5.136
 8345WAT     H225278   6.952   9.366   5.091
 8346WAT      O25279   3.508   1.735   1.214
 8346WAT     H125280   3.602   1.743   1.247
 8346WAT     H225281   3.445   1.762   1.287
 8347WAT      O25282   0.670   7.129   4.785
 8347WAT     H125283   0.662   7.222   4.821
 8347WAT     H225284   0.580   7.087   4.778
 8348WAT      O25285   8.353   2.243   0.948
 8348WAT     H125286   8.317   2.179   1.016
 8348WAT     H225287   8.278   2.281   0.895
 8349WAT      O25288   0.828   9.321   6.998
 8349WAT     H125289   0.903   9.258   7.020
 8349WAT     H225290   0.786   9.355   7.082
 8350WAT      O25291   3.459   2.780   3.425
 8350WAT     H125292   3.556   2.788   3.446
 8350WAT     H225293   3.428   2.863   3.378
 8351WAT      O25294   7.916   2.345   1.585
 8351WAT     H125295   8.006   2.379   1.560
 8351WAT     H225296   7.863   2.418   1.629
 8352WAT      O25297   5.114   9.434   3.918
 8352WAT     H125298   5.160   9.396   3.998
 8352WAT     H225299   5.036   9.489   3.948
 8353WAT      O25300   7.714   6.271   1.265
 8353WAT     H125301   7.731   6.248   1.169
 8353WAT     H225302   7.801   6.273   1.314
 8354WAT      O25303   7.159   6.952   6.095
 8354WAT     H125304   7.156   6.855   6.074
 8354WAT     H225305   7.141   6.966   6.193
 8355WAT      O25306   9.467   4.897   9.326
 8355WAT     H125307   9.415   4.816   9.297
 8355WAT     H225308   9.564   4.881   9.311
 8356WAT      O25309   4.337   4.723   4.576
 8356WAT     H125310   4.377   4.694   4.489
 8356WAT     H225311   4.248   4.764   4.559
 8357WAT      O25312   1.809   8.133   1.484
 8357WAT     H125313   1.843   8.079   1.561
 8357WAT     H225314   1.746   8.203   1.518
 8358WAT      O25315   1.518   1.578   7.118
 8358WAT     H125316   1.483   1.579   7.025
 8358WAT     H225317   1.617   1.591   7.117
 8359WAT      O25318   2.390   2.868   3.237
 8359WAT     H125319   2.462   2.799   3.236
 8359WAT     H225320   2.333   2.856   3.318
 8360WAT      O25321   0.650   2.204   1.639
 8360WAT     H125322   0.702   2.288   1.648
 8360WAT     H225323   0.558   2.217   1.676
 8361WAT      O25324   4.411   4.489   9.167
 8361WAT     H125325   4.436   4.553   9.240
 8361WAT     H225326   4.456   4.516   9.082
 8362WAT      O25327   9.887   4.850   1.514
 8362WAT     H125328   9.789   4.859   1.495
 8362WAT     H225329   9.931   4.939   1.500
 8363WAT      O25330   6.001   7.078   8.169
 8363WAT     H125331   6.039   7.113   8.084
 8363WAT     H225332   6.058   7.105   8.246
 8364WAT      O25333   6.166   1.677   6.372
 8364WAT     H125334   6.260   1.646   6.359
 8364WAT     H225335   6.103   1.607   6.339
 8365WAT      O25336   9.665   2.038   2.553
 8365WAT     H125337   9.740   1.999   2.500
 8365WAT     H225338   9.661   1.994   2.643
 8366WAT      O25339   3.386   8.171   6.980
 8366WAT     H125340   3.353   8.212   7.065
 8366WAT     H225341   3.356   8.075   6.975
 8367WAT      O25342   8.410   2.077   4.799
 8367WAT     H125343   8.473   2.154   4.788
 8367WAT     H225344   8.455   2.004   4.851
 8368WAT      O25345   4.287   0.652   2.542
 8368WAT     H125346   4.284   0.638   2.443
 8368WAT     H225347   4.259   0.568   2.588
 8369WAT      O25348   2.800   4.625   2.083
 8369WAT     H125349   2.897   4.646   2.067
 8369WAT     H225350   2.769   4.560   2.014
 8370WAT      O25351   1.495   9.193   5.951
 8370WAT     H125352   1.502   9.162   6.046
 8370WAT     H225353   1.411   9.156   5.911
 8371WAT      O25354   9.605   0.167   2.323
 8371WAT     H125355   9.676   0.201   2.262
 8371WAT     H225356   9.549   0.099   2.275
 8372WAT      O25357   7.133   1.202   9.578
 8372WAT     H125358   7.087   1.135   9.636
 8372WAT     H225359   7.207   1.246   9.630
 8373WAT      O25360   8.255   4.380   3.010
 8373WAT     H125361   8.155   4.376   3.000
 8373WAT     H225362   8.296   4.305   2.958
 8374WAT      O25363   6.994   9.802   0.845
 8374WAT     H125364   6.983   9.803   0.746
 8374WAT     H225365   6.937   9.873   0.886
 8375WAT      O25366   0.393   1.453   2.958
 8375WAT     H125367   0.457   1.413   3.024
 8375WAT     H225368   0.442   1.474   2.873
 8376WAT      O25369   3.420   5.597   2.411
 8376WAT     H125370   3.417   5.499   2.427
 8376WAT     H225371   3.339   5.624   2.358
 8377WAT      O25372   4.789   1.976   1.638
 8377WAT     H125373   4.844   2.048   1.679
 8377WAT     H225374   4.833   1.887   1.654
 8378WAT      O25375   7.300   8.736   8.035
 8378WAT     H125376   7.334   8.644   8.051
 8378WAT     H225377   7.317   8.792   8.116
 8379WAT      O25378   2.300   7.504   0.885
 8379WAT     H125379   2.240   7.582   0.901
 8379WAT     H225380   2.367   7.527   0.814
 8380WAT      O25381   7.172   2.542   7.349
 8380WAT     H125382   7.244   2.539   7.279
 8380WAT     H225383   7.212   2.529   7.439
 8381WAT      O25384   4.929   7.751   8.044
 8381WAT     H125385   4.932   7.840   8.000
 8381WAT     H225386   4.843   7.741   8.095
 8382WAT      O25387   0.612   3.629   3.446
 8382WAT     H125388   0.576   3.577   3.523
 8382WAT     H225389   0.679   3.574   3.396
 8383WAT      O25390   5.539   7.317   6.273
 8383WAT     H125391   5.592   7.377   6.213
 8383WAT     H225392   5.521   7.364   6.360
 8384WAT      O25393   3.158   3.469   2.830
 8384WAT     H125394   3.099   3.418   2.767
 8384WAT     H225395   3.102   3.531   2.885
 8385WAT      O25396   3.446   7.802   1.615
 8385WAT     H125397   3.531   7.821   1.663
 8385WAT     H225398   3.440   7.859   1.533
 8386WAT      O25399   9.383   3.956   4.911
 8386WAT     H125400   9.410   4.045   4.948
 8386WAT     H225401   9.370   3.964   4.812
 8387WAT      O25402   4.183   5.375   6.661
 8387WAT     H125403   4.181   5.468   6.624
 8387WAT     H225404   4.186   5.379   6.760
 8388WAT      O25405   6.207   3.701   1.860
 8388WAT     H125406   6.273   3.738   1.926
 8388WAT     H225407   6.213   3.601   1.859
 8389WAT      O25408   5.312   2.762   6.289
 8389WAT     H125409   5.355   2.737   6.376
 8389WAT     H225410   5.214   2.742   6.293
 8390WAT      O25411   9.321   8.837   1.084
 8390WAT     H125412   9.259   8.887   1.023
 8390WAT     H225413   9.414   8.870   1.071
 8391WAT      O25414   7.778   0.057   5.112
 8391WAT     H125415   7.751   0.127   5.177
 8391WAT     H225416   7.750   0.084   5.020
 8392WAT      O25417   2.019   7.462   9.014
 8392WAT     H125418   2.068   7.540   8.975
 8392WAT     H225419   1.921   7.472   8.996
 8393WAT      O25420   3.301   9.326   5.269
 8393WAT     H125421   3.370   9.283   5.211
 8393WAT     H225422   3.229   9.365   5.212
 8394WAT      O25423   6.699   3.808   4.650
 8394WAT     H125424   6.674   3.739   4.718
 8394WAT     H225425   6.616   3.847   4.610
 8395WAT      O25426   2.829   4.169   7.730
 8395WAT     H125427   2.875   4.258   7.729
 8395WAT     H225428   2.896   4.097   7.748
 8396WAT      O25429   7.671   7.382   1.159
 8396WAT     H125430   7.743   7.333   1.111
 8396WAT     H225431   7.631   7.451   1.099
 8397WAT      O25432   9.142   7.967   7.883
 8397WAT     H125433   9.177   7.880   7.919
 8397WAT     H225434   9.158   7.971   7.784
 8398WAT      O25435   4.383   0.137   3.228
 8398WAT     H125436   4.430   0.160   3.313
 8398WAT     H225437   4.396   0.040   3.207
 8399WAT      O25438   4.369   2.821   6.040
 8399WAT     H125439   4.308   2.845   5.964
 8399WAT     H225440   4.461   2.857   6.021
 8400WAT      O25441   6.384   8.189   0.321
 8400WAT     H125442   6.303   8.221   0.273
 8400WAT     H225443   6.466   8.221   0.273
 8401WAT      O25444   9.497   7.498   0.061
 8401WAT     H125445   9.425   7.493   0.131
 8401WAT     H225446   9.531   7.406   0.042
 8402WAT      O25447   2.087   4.871   7.544
 8402WAT     H125448   2.058   4.924   7.465
 8402WAT     H225449   2.173   4.823   7.523
 8403WAT      O25450   4.707   1.196   9.631
 8403WAT     H125451   4.672   1.252   9.705
 8403WAT     H225452   4.725   1.253   9.551
 8404WAT      O25453   5.853   6.114   0.891
 8404WAT     H125454   5.887   6.037   0.946
 8404WAT     H225455   5.888   6.200   0.929
 8405WAT      O25456   6.833   4.800   1.621
 8405WAT     H125457   6.773   4.866   1.666
 8405WAT     H225458   6.795   4.708   1.631
 8406WAT      O25459   2.172   1.145   3.721
 8406WAT     H125460   2.102   1.107   3.780
 8406WAT     H225461   2.260   1.100   3.740
 8407WAT      O25462   7.263   7.740   9.843
 8407WAT     H125463   7.353   7.743   9.887
 8407WAT     H225464   7.251   7.653   9.796
 8408WAT      O25465   3.002   7.935   0.167
 8408WAT     H125466   3.000   7.965   0.071
 8408WAT     H225467   2.909   7.934   0.204
 8409WAT      O25468   7.719   0.841   4.085
 8409WAT     H125469   7.635   0.799   4.050
 8409WAT     H225470   7.710   0.940   4.081
 8410WAT      O25471   6.734   9.204   1.975
 8410WAT     H125472   6.759   9.227   2.069
 8410WAT     H225473   6.643   9.241   1.956
 8411WAT      O25474   5.286   5.454   1.626
 8411WAT     H125475   5.305   5.483   1.720
 8411WAT     H225476   5.332   5.516   1.563
 8412WAT      O25477   1.272   5.486   3.942
 8412WAT     H125478   1.327   5.565   3.917
 8412WAT     H225479   1.228   5.448   3.860
 8413WAT      O25480   6.879   9.036   1.417
 8413WAT     H125481   6.952   9.001   1.358
 8413WAT     H225482   6.799   8.977   1.411
 8414WAT      O25483   3.399   3.929   0.667
 8414WAT     H125484   3.388   4.027   0.683
 8414WAT     H225485   3.315   3.893   0.626
 8415WAT      O25486   3.721   0.125   0.071
 8415WAT     H125487   3.679   0.037   0.092
 8415WAT     H225488   3.812   0.110   0.031
 8416WAT      O25489   6.808   4.326   9.520
 8416WAT     H125490   6.791   4.313   9.423
 8416WAT     H225491   6.739   4.276   9.573
 8417WAT      O25492   6.161   1.700   9.812
 8417WAT     H125493   6.069   1.731   9.789
 8417WAT     H225494   6.191   1.633   9.744
 8418WAT      O25495   5.254   1.926   3.269
 8418WAT     H125496   5.225   1.989   3.196
 8418WAT     H225497   5.173   1.892   3.317
 8419WAT      O25498   3.063   6.849   4.343
 8419WAT     H125499   3.108   6.799   4.268
 8419WAT     H225500   2.985   6.796   4.376
 8420WAT      O25501   4.013   3.672   8.979
 8420WAT     H125502   4.068   3.733   8.922
 8420WAT     H225503   3.916   3.696   8.971
 8421WAT      O25504   8.659   1.648   3.754
 8421WAT     H125505   8.682   1.617   3.846
 8421WAT     H225506   8.638   1.569   3.696
 8422WAT      O25507   4.350   0.089   7.125
 8422WAT     H125508   4.369   0.106   7.222
 8422WAT     H225509   4.412   0.017   7.091
 8423WAT      O25510   2.586   7.492   1.284
 8423WAT     H125511   2.683   7.469   1.270
 8423WAT     H225512   2.578   7.589   1.306
 8424WAT      O25513   4.093   3.034   1.445
 8424WAT     H125514   4.187   3.045   1.412
 8424WAT     H225515   4.035   3.004   1.370
 8425WAT      O25516   8.141   1.422   3.112
 8425WAT     H125517   8.100   1.351   3.054
 8425WAT     H225518   8.082   1.439   3.191
 8426WAT      O25519   0.586   6.572   4.792
 8426WAT     H125520   0.606   6.634   4.716
 8426WAT     H225521   0.672   6.537   4.830
 8427WAT      O25522   9.529   1.278   6.751
 8427WAT     H125523   9.539   1.373   6.781
 8427WAT     H225524   9.486   1.225   6.824
 8428WAT      O25525   8.502   8.278   5.990
 8428WAT     H125526   8.551   8.303   5.907
 8428WAT     H225527   8.531   8.187   6.021
 8429WAT      O25528   3.988   4.156   2.651
 8429WAT     H125529   4.075   4.141   2.604
 8429WAT     H225530   3.947   4.069   2.675
 8430WAT      O25531   0.089   7.970   1.373
 8430WAT     H125532   0.135   7.905   1.313
 8430WAT     H225533   0.150   8.047   1.391
 8431WAT      O25534   1.380   5.669   1.973
 8431WAT     H125535   1.291   5.712   1.987
 8431WAT     H225536   1.417   5.639   2.061
 8432WAT      O25537   3.866   2.519   0.796
 8432WAT     H125538   3.806   2.585   0.750
 8432WAT     H225539   3.812   2.439   0.824
 8433WAT      O25540   1.768   1.673   7.099
 8433WAT     H125541   1.864   1.644   7.097
 8433WAT     H225542   1.764   1.771   7.117
 8434WAT      O25543   6.675   0.809   7.054
 8434WAT     H125544   6.731   0.763   7.123
 8434WAT     H225545   6.700   0.906   7.049
 8435WAT      O25546   1.400   5.334   9.692
 8435WAT     H125547   1.303   5.341   9.668
 8435WAT     H225548   1.409   5.306   9.787
 8436WAT      O25549   3.254   3.533   3.316
 8436WAT     H125550   3.312   3.472   3.370
 8436WAT     H225551   3.304   3.564   3.236
 8437WAT      O25552   3.049   0.155   2.479
 8437WAT     H125553   3.124   0.106   2.435
 8437WAT     H225554   3.008   0.097   2.550
 8438WAT      O25555   2.498   9.378   6.840
 8438WAT     H125556   2.558   9.426   6.776
 8438WAT     H225557   2.473   9.289   6.801
 8439WAT      O25558   4.832   8.698   0.819
 8439WAT     H125559   4.869   8.712   0.910
 8439WAT     H225560   4.740   8.658   0.826
 8440WAT      O25561   0.453   1.888   3.025
 8440WAT     H125562   0.425   1.984   3.024
 8440WAT     H225563   0.552   1.882   3.036
 8441WAT      O25564   7.999   6.000   3.664
 8441WAT     H125565   8.021   5.987   3.567
 8441WAT     H225566   8.082   6.019   3.715
 8442WAT      O25567   1.618   1.304   7.284
 8442WAT     H125568   1.714   1.331   7.278
 8442WAT     H225569   1.585   1.276   7.195
 8443WAT      O25570   9.015   2.567   6.737
 8443WAT     H125571   9.015   2.595   6.641
 8443WAT     H225572   8.921   2.542   6.763
 8444WAT      O25573   8.770   5.357   2.665
 8444WAT     H125574   8.852   5.384   2.717
 8444WAT     H225575   8.696   5.421   2.685
 8445WAT      O25576   6.252   0.622   7.545
 8445WAT     H125577   6.193   0.544   7.524
 8445WAT     H225578   6.305   0.604   7.627
 8446WAT      O25579   3.867   6.289   6.689
 8446WAT     H125580   3.938   6.296   6.619
 8446WAT     H225581   3.791   6.234   6.654
 8447WAT      O25582   7.681   8.417   2.066
 8447WAT     H125583   7.617   8.341   2.056
 8447WAT     H225584   7.705   8.428   2.163
 8448WAT      O25585   0.451   4.463   7.174
 8448WAT     H125586   0.533   4.474   7.229
 8448WAT     H225587   0.468   4.497   7.081
 8449WAT      O25588   5.158   7.426   9.283
 8449WAT     H125589   5.089   7.483   9.328
 8449WAT     H225590   5.122   7.333   9.273
 8450WAT      O25591   0.735   2.945   9.796
 8450WAT     H125592   0.714   2.879   9.724
 8450WAT     H225593   0.791   3.018   9.759
 8451WAT      O25594   4.204   8.206   1.091
 8451WAT     H125595   4.236   8.112   1.082
 8451WAT     H225596   4.178   8.241   1.001
 8452WAT      O25597   2.996   7.572   3.888
 8452WAT     H125598   2.908   7.604   3.923
 8452WAT     H225599   2.982   7.493   3.829
 8453WAT      O25600   4.900   8.198   2.326
 8453WAT     H125601   4.932   8.278   2.376
 8453WAT     H225602   4.977   8.139   2.302
 8454WAT      O25603   6.082   1.341   5.036
 8454WAT     H125604   6.015   1.412   5.014
 8454WAT     H225605   6.174   1.376   5.017
 8455WAT      O25606   4.006   6.358   0.490
 8455WAT     H125607   4.055   6.442   0.468
 8455WAT     H225608   4.058   6.279   0.460
 8456WAT      O25609   0.679   9.026   4.990
 8456WAT     H125610   0.732   8.943   4.971
 8456WAT     H225611   0.722   9.104   4.946
 8457WAT      O25612   1.527   0.462   2.102
 8457WAT     H125613   1.626   0.475   2.106
 8457WAT     H225614   1.507   0.371   2.065
 8458WAT      O25615   9.237   8.323   2.034
 8458WAT     H125616   9.298   8.401   2.024
 8458WAT     H225617   9.143   8.352   2.015
 8459WAT      O25618   3.174   0.883   6.393
 8459WAT     H125619   3.220   0.964   6.356
 8459WAT     H225620   3.235   0.804   6.385
 8460WAT      O25621   7.800   4.098   5.155
 8460WAT     H125622   7.720   4.125   5.103
 8460WAT     H225623   7.787   4.120   5.251
 8461WAT      O25624   1.443   9.779   9.094
 8461WAT     H125625   1.363   9.834   9.120
 8461WAT     H225626   1.521   9.805   9.151
 8462WAT      O25627   3.365   4.989   9.372
 8462WAT     H125628   3.267   4.979   9.389
 8462WAT     H225629   3.385   4.966   9.276
 8463WAT      O25630   9.590   7.329   4.922
 8463WAT     H125631   9.669   7.378   4.959
 8463WAT     H225632   9.509   7.388   4.927
 8464WAT      O25633   6.496   0.044   2.068
 8464WAT     H125634   6.525  -0.052   2.071
 8464WAT     H225635   6.480   0.077   2.161
 8465WAT      O25636   3.647   0.742   6.187
 8465WAT     H125637   3.737   0.778   6.160
 8465WAT     H225638   3.604   0.805   6.252
 8466WAT      O25639   3.089   7.097   0.790
 8466WAT     H125640   3.081   7.000   0.814
 8466WAT     H225641   3.150   7.107   0.712
 8467WAT      O25642   8.090   2.645   0.511
 8467WAT     H125643   8.134   2.559   0.537
 8467WAT     H225644   8.016   2.627   0.447
 8468WAT      O25645   3.182   3.671   4.412
 8468WAT     H125646   3.127   3.596   4.449
 8468WAT     H225647   3.124   3.750   4.393
 8469WAT      O25648   7.373   6.768   9.371
 8469WAT     H125649   7.320   6.820   9.304
 8469WAT     H225650   7.422   6.694   9.324
 8470WAT      O25651   4.052   3.664   6.531
 8470WAT     H125652   4.028   3.605   6.608
 8470WAT     H225653   4.120   3.731   6.561
 8471WAT      O25654   5.993   9.500   1.803
 8471WAT     H125655   5.970   9.404   1.819
 8471WAT     H225656   6.034   9.509   1.712
 8472WAT      O25657   3.620   5.157   1.620
 8472WAT     H125658   3.699   5.214   1.643
 8472WAT     H225659   3.639   5.107   1.535
 8473WAT      O25660   8.297   0.716   6.824
 8473WAT     H125661   8.322   0.766   6.741
 8473WAT     H225662   8.362   0.740   6.897
 8474WAT      O25663   5.017   9.318   8.229
 8474WAT     H125664   5.012   9.372   8.312
 8474WAT     H225665   4.943   9.344   8.167
 8475WAT      O25666   3.902   4.208   3.528
 8475WAT     H125667   3.895   4.143   3.604
 8475WAT     H225668   3.845   4.288   3.548
 8476WAT      O25669   8.060   4.006   5.207
 8476WAT     H125670   8.038   3.916   5.170
 8476WAT     H225671   7.976   4.057   5.224
 8477WAT      O25672   4.534   1.145   4.021
 8477WAT     H125673   4.446   1.107   4.052
 8477WAT     H225674   4.582   1.077   3.966
 8478WAT      O25675   0.783   9.174   0.663
 8478WAT     H125676   0.784   9.165   0.763
 8478WAT     H225677   0.760   9.268   0.639
 8479WAT      O25678   5.703   2.765   8.122
 8479WAT     H125679   5.685   2.698   8.050
 8479WAT     H225680   5.706   2.856   8.082
 8480WAT      O25681   6.170   1.389   1.243
 8480WAT     H125682   6.208   1.441   1.320
 8480WAT     H225683   6.085   1.432   1.213
 8481WAT      O25684   1.819   4.193   1.437
 8481WAT     H125685   1.743   4.159   1.380
 8481WAT     H225686   1.874   4.115   1.467
 8482WAT      O25687   6.130   0.242   1.414
 8482WAT     H125688   6.201   0.281   1.354
 8482WAT     H225689   6.040   0.265   1.378
 8483WAT      O25690   3.220   8.674   8.775
 8483WAT     H125691   3.144   8.711   8.722
 8483WAT     H225692   3.300   8.735   8.765
 8484WAT      O25693   2.376   8.933   9.041
 8484WAT     H125694   2.326   8.955   9.125
 8484WAT     H225695   2.385   9.015   8.985
 8485WAT      O25696   9.708   6.924   3.524
 8485WAT     H125697   9.673   6.830   3.528
 8485WAT     H225698   9.807   6.922   3.535
 8486WAT      O25699   4.701   3.400   6.878
 8486WAT     H125700   4.796   3.404   6.847
 8486WAT     H225701   4.642   3.373   6.802
 8487WAT      O25702   0.232   6.244   6.543
 8487WAT     H125703   0.267   6.329   6.504
 8487WAT     H225704   0.300   6.206   6.605
 8488WAT      O25705   3.771   3.312   6.694
 8488WAT     H125706   3.724   3.233   6.733
 8488WAT     H225707   3.771   3.305   6.594
 8489WAT      O25708   4.559   8.403   4.363
 8489WAT     H125709   4.520   8.390   4.272
 8489WAT     H225710   4.497   8.457   4.419
 8490WAT      O25711   0.161   8.659   1.662
 8490WAT     H125712   0.231   8.647   1.733
 8490WAT     H225713   0.161   8.754   1.631
 8491WAT      O25714   1.954   8.497   8.780
 8491WAT     H125715   2.031   8.536   8.730
 8491WAT     H225716   1.869   8.522   8.735
 8492WAT      O25717   5.849   3.532   6.282
 8492WAT     H125718   5.845   3.485   6.371
 8492WAT     H225719   5.897   3.619   6.293
 8493WAT      O25720   1.547   1.476   2.074
 8493WAT     H125721   1.458   1.468   2.030
 8493WAT     H225722   1.542   1.543   2.148
 8494WAT      O25723   8.236   5.084   6.036
 8494WAT     H125724   8.215   4.987   6.050
 8494WAT     H225725   8.333   5.094   6.014
 8495WAT      O25726   7.410   4.618   0.623
 8495WAT     H125727   7.473   4.546   0.652
 8495WAT     H225728   7.451   4.707   0.639
 8496WAT      O25729   3.923   9.140   4.343
 8496WAT     H125730   3.988   9.091   4.401
 8496WAT     H225731   3.968   9.163   4.256
 8497WAT      O25732   5.087   8.961   3.641
 8497WAT     H125733   5.126   8.869   3.634
 8497WAT     H225734   5.079   8.986   3.737
 8498WAT      O25735   8.269   6.863   4.687
 8498WAT     H125736   8.343   6.904   4.741
 8498WAT     H225737   8.204   6.820   4.749
 8499WAT      O25738   8.089   4.077   4.339
 8499WAT     H125739   8.180   4.053   4.372
 8499WAT     H225740   8.042   4.133   4.407
 8500WAT      O25741   7.782   6.500   5.749
 8500WAT     H125742   7.817   6.488   5.841
 8500WAT     H225743   7.712   6.572   5.749
 8501WAT      O25744   3.813   8.371   9.239
 8501WAT     H125745   3.799   8.451   9.297
 8501WAT     H225746   3.905   8.373   9.200
 8502WAT      O25747   5.816   9.600   6.822
 8502WAT     H125748   5.773   9.551   6.897
 8502WAT     H225749   5.904   9.557   6.800
 8503WAT      O25750   5.878   5.805   4.495
 8503WAT     H125751   5.897   5.720   4.447
 8503WAT     H225752   5.930   5.880   4.454
 8504WAT      O25753   1.983   4.106   6.287
 8504WAT     H125754   1.946   4.021   6.325
 8504WAT     H225755   1.920   4.142   6.219
 8505WAT      O25756   7.706   6.304   4.992
 8505WAT     H125757   7.609   6.326   4.988
 8505WAT     H225758   7.722   6.233   5.061
 8506WAT      O25759   2.546   2.018   5.853
 8506WAT     H125760   2.465   2.075   5.841
 8506WAT     H225761   2.624   2.076   5.875
 8507WAT      O25762   6.261   4.479   1.314
 8507WAT     H125763   6.210   4.402   1.274
 8507WAT     H225764   6.353   4.482   1.274
 8508WAT      O25765   5.144   5.663   6.361
 8508WAT     H125766   5.164   5.699   6.452
 8508WAT     H225767   5.137   5.563   6.365
 8509WAT      O25768   4.676   7.628   9.043
 8509WAT     H125769   4.678   7.529   9.054
 8509WAT     H225770   4.742   7.670   9.106
 8510WAT      O25771   1.329   6.364   0.832
 8510WAT     H125772   1.397   6.419   0.880
 8510WAT     H225773   1.255   6.424   0.800
 8511WAT      O25774   7.734   7.652   9.266
 8511WAT     H125775   7.828   7.640   9.232
 8511WAT     H225776   7.682   7.568   9.250
 8512WAT      O25777   3.884   1.592   4.021
 8512WAT     H125778   3.792   1.611   4.056
 8512WAT     H225779   3.927   1.522   4.078
 8513WAT      O25780   6.851   2.543   2.856
 8513WAT     H125781   6.941   2.531   2.816
 8513WAT     H225782   6.802   2.455   2.858
 8514WAT      O25783   0.394   1.369   0.133
 8514WAT     H125784   0.479   1.347   0.180
 8514WAT     H225785   0.406   1.360   0.034
 8515WAT      O25786   7.039   9.724   9.731
 8515WAT     H125787   7.122   9.696   9.683
 8515WAT     H225788   6.960   9.681   9.687
 8516WAT      O25789   3.920   4.587   8.811
 8516WAT     H125790   3.898   4.594   8.714
 8516WAT     H225791   3.846   4.627   8.865
 8517WAT      O25792   5.338   3.614   9.856
 8517WAT     H125793   5.347   3.709   9.824
 8517WAT     H225794   5.304   3.614   9.950
 8518WAT      O25795   3.765   3.696   1.195
 8518WAT     H125796   3.683   3.753   1.191
 8518WAT     H225797   3.793   3.672   1.102
 8519WAT      O25798   0.589   0.141   7.925
 8519WAT     H125799   0.561   0.211   7.860
 8519WAT     H225800   0.664   0.087   7.886
 8520WAT      O25801   7.681   4.798   5.593
 8520WAT     H125802   7.762   4.857   5.599
 8520WAT     H225803   7.646   4.800   5.499
 8521WAT      O25804   6.443   2.033   8.990
 8521WAT     H125805   6.463   2.095   8.914
 8521WAT     H225806   6.353   1.991   8.976
 8522WAT      O25807   1.725   6.880   8.191
 8522WAT     H125808   1.720   6.903   8.094
 8522WAT     H225809   1.644   6.827   8.217
 8523WAT      O25810   6.872   9.492   5.973
 8523WAT     H125811   6.849   9.553   5.897
 8523WAT     H225812   6.815   9.514   6.052
 8524WAT      O25813   2.290   9.658   0.335
 8524WAT     H125814   2.295   9.690   0.240
 8524WAT     H225815   2.286   9.558   0.336
 8525WAT      O25816   0.945   1.163   2.149
 8525WAT     H125817   0.879   1.130   2.217
 8525WAT     H225818   0.927   1.259   2.130
 8526WAT      O25819   2.279   9.529   8.314
 8526WAT     H125820   2.336   9.456   8.277
 8526WAT     H225821   2.314   9.559   8.402
 8527WAT      O25822   0.251   2.051   9.160
 8527WAT     H125823   0.185   2.112   9.116
 8527WAT     H225824   0.204   1.968   9.189
 8528WAT      O25825   3.746   4.950   6.535
 8528WAT     H125826   3.697   4.873   6.495
 8528WAT     H225827   3.809   4.917   6.606
 8529WAT      O25828   4.423   5.074   7.826
 8529WAT     H125829   4.371   4.996   7.860
 8529WAT     H225830   4.521   5.058   7.840
 8530WAT      O25831   1.274   6.429   1.309
 8530WAT     H125832   1.296   6.337   1.277
 8530WAT     H225833   1.264   6.491   1.231
 8531WAT      O25834   1.297   3.045   3.653
 8531WAT     H125835   1.207   3.063   3.614
 8531WAT     H225836   1.353   2.995   3.587
 8532WAT      O25837   8.565   6.528   5.816
 8532WAT     H125838   8.633   6.600   5.809
 8532WAT     H225839   8.589   6.466   5.890
 8533WAT      O25840   7.120   8.900   2.045
 8533WAT     H125841   7.151   8.898   1.950
 8533WAT     H225842   7.174   8.836   2.100
 8534WAT      O25843   4.450   8.318   4.099
 8534WAT     H125844   4.510   8.395   4.079
 8534WAT     H225845   4.379   8.312   4.028
 8535WAT      O25846   0.377   5.761   7.792
 8535WAT     H125847   0.357   5.848   7.838
 8535WAT     H225848   0.449   5.713   7.843
 8536WAT      O25849   3.057   5.407   2.940
 8536WAT     H125850   3.147   5.387   2.902
 8536WAT     H225851   3.008   5.470   2.879
 8537WAT      O25852   1.842   7.109   0.701
 8537WAT     H125853   1.878   7.137   0.790
 8537WAT     H225854   1.742   7.101   0.708
 8538WAT      O25855   8.904   4.469   4.582
 8538WAT     H125856   8.815   4.515   4.589
 8538WAT     H225857   8.976   4.536   4.567
 8539WAT      O25858   5.969   5.885   8.864
 8539WAT     H125859   6.041   5.935   8.815
 8539WAT     H225860   5.928   5.945   8.932
 8540WAT      O25861   8.888   3.146   1.120
 8540WAT     H125862   8.984   3.169   1.130
 8540WAT     H225863   8.878   3.046   1.119
 8541WAT      O25864   7.567   3.601   0.137
 8541WAT     H125865   7.496   3.548   0.091
 8541WAT     H225866   7.615   3.543   0.203
 8542WAT      O25867   8.220   0.540   7.170
 8542WAT     H125868   8.186   0.532   7.076
 8542WAT     H225869   8.270   0.456   7.194
 8543WAT      O25870   3.091   6.476   3.591
 8543WAT     H125871   3.185   6.493   3.560
 8543WAT     H225872   3.044   6.563   3.604
 8544WAT      O25873   8.010   7.808   0.152
 8544WAT     H125874   8.032   7.904   0.135
 8544WAT     H225875   8.095   7.759   0.174
 8545WAT      O25876   7.095   9.579   8.814
 8545WAT     H125877   7.149   9.650   8.858
 8545WAT     H225878   7.040   9.618   8.740
 8546WAT      O25879   2.028   0.138   1.074
 8546WAT     H125880   2.084   0.208   1.118
 8546WAT     H225881   1.938   0.176   1.051
 8547WAT      O25882   8.642   9.156   3.599
 8547WAT     H125883   8.700   9.082   3.563
 8547WAT     H225884   8.670   9.177   3.693
 8548WAT      O25885   2.576   3.578   7.904
 8548WAT     H125886   2.542   3.513   7.972
 8548WAT     H225887   2.619   3.529   7.829
 8549WAT      O25888   2.982   3.957   4.928
 8549WAT     H125889   2.884   3.971   4.920
 8549WAT     H225890   3.012   3.891   4.858
 8550WAT      O25891   6.032   5.365   1.843
 8550WAT     H125892   6.107   5.364   1.909
 8550WAT     H225893   6.048   5.436   1.774
 8551WAT      O25894   7.456   9.148   3.687
 8551WAT     H125895   7.495   9.240   3.682
 8551WAT     H225896   7.421   9.122   3.597
 8552WAT      O25897   3.572   9.717   0.077
 8552WAT     H125898   3.553   9.719  -0.022
 8552WAT     H225899   3.487   9.732   0.127
 8553WAT      O25900   6.225   8.609   6.047
 8553WAT     H125901   6.212   8.680   6.116
 8553WAT     H225902   6.136   8.583   6.009
 8554WAT      O25903   8.139   4.623   9.336
 8554WAT     H125904   8.067   4.642   9.269
 8554WAT     H225905   8.125   4.680   9.416
 8555WAT      O25906   0.846   1.870   8.439
 8555WAT     H125907   0.882   1.787   8.483
 8555WAT     H225908   0.878   1.874   8.344
 8556WAT      O25909   5.590   7.296   4.118
 8556WAT     H125910   5.526   7.369   4.096
 8556WAT     H225911   5.684   7.332   4.117
 8557WAT      O25912   8.008   1.864   8.645
 8557WAT     H125913   7.917   1.900   8.668
 8557WAT     H225914   7.997   1.776   8.598
 8558WAT      O25915   4.725   9.716   3.151
 8558WAT     H125916   4.780   9.633   3.143
 8558WAT     H225917   4.628   9.691   3.150
 8559WAT      O25918   4.081   2.742   3.565
 8559WAT     H125919   4.135   2.823   3.585
 8559WAT     H225920   4.039   2.751   3.475
 8560WAT      O25921   6.918   1.136   7.356
 8560WAT     H125922   6.905   1.234   7.346
 8560WAT     H225923   7.004   1.118   7.404
 8561WAT      O25924   9.379   4.523   3.531
 8561WAT     H125925   9.441   4.540   3.608
 8561WAT     H225926   9.322   4.443   3.552
 8562WAT      O25927   7.305   8.830   6.449
 8562WAT     H125928   7.319   8.871   6.358
 8562WAT     H225929   7.297   8.731   6.440
 8563WAT      O25930   4.716   2.753   0.310
 8563WAT     H125931   4.725   2.840   0.262
 8563WAT     H225932   4.625   2.714   0.294
 8564WAT      O25933   5.468   7.565   8.547
 8564WAT     H125934   5.479   7.475   8.503
 8564WAT     H225935   5.447   7.633   8.477
 8565WAT      O25936   2.614   3.340   9.864
 8565WAT     H125937   2.582   3.403   9.934
 8565WAT     H225938   2.541   3.276   9.841
 8566WAT      O25939   8.710   4.449   3.883
 8566WAT     H125940   8.689   4.361   3.840
 8566WAT     H225941   8.789   4.490   3.837
 8567WAT      O25942   6.166   1.750   2.143
 8567WAT     H125943   6.144   1.677   2.207
 8567WAT     H225944   6.264   1.748   2.122
 8568WAT      O25945   9.090   1.784   6.919
 8568WAT     H125946   9.127   1.749   7.006
 8568WAT     H225947   8.993   1.761   6.913
 8569WAT      O25948   2.944   9.357   4.901
 8569WAT     H125949   2.879   9.344   4.976
 8569WAT     H225950   3.013   9.285   4.903
 8570WAT      O25951   3.347   3.694   9.825
 8570WAT     H125952   3.309   3.785   9.837
 8570WAT     H225953   3.275   3.632   9.793
 8571WAT      O25954   3.146   3.307   6.462
 8571WAT     H125955   3.186   3.301   6.370
 8571WAT     H225956   3.160   3.399   6.498
 8572WAT      O25957   4.109   9.019   3.918
 8572WAT     H125958   4.110   9.093   3.986
 8572WAT     H225959   4.037   8.954   3.940
 8573WAT      O25960   2.241   0.361   7.992
 8573WAT     H125961   2.171   0.423   8.026
 8573WAT     H225962   2.325   0.372   8.045
 8574WAT      O25963   7.570   4.457   7.134
 8574WAT     H125964   7.613   4.429   7.219
 8574WAT     H225965   7.497   4.393   7.110
 8575WAT      O25966   9.527   1.740   8.729
 8575WAT     H125967   9.482   1.740   8.818
 8575WAT     H225968   9.581   1.656   8.719
 8576WAT      O25969   5.441   7.262   8.761
 8576WAT     H125970   5.417   7.173   8.799
 8576WAT     H225971   5.528   7.292   8.798
 8577WAT      O25972   5.991   1.130   9.060
 8577WAT     H125973   6.006   1.115   9.158
 8577WAT     H225974   6.033   1.054   9.009
 8578WAT      O25975   9.074   2.717   3.239
 8578WAT     H125976   9.138   2.771   3.184
 8578WAT     H225977   9.105   2.716   3.334
 8579WAT      O25978   8.571   2.932   1.016
 8579WAT     H125979   8.576   3.032   1.016
 8579WAT     H225980   8.653   2.894   0.974
 8580WAT      O25981   2.795   9.576   2.555
 8580WAT     H125982   2.779   9.674   2.560
 8580WAT     H225983   2.710   9.527   2.575
 8581WAT      O25984   8.937   9.577   2.992
 8581WAT     H125985   8.878   9.629   3.054
 8581WAT     H225986   8.995   9.639   2.941
 8582WAT      O25987   0.329   6.575   1.533
 8582WAT     H125988   0.381   6.548   1.452
 8582WAT     H225989   0.376   6.543   1.615
 8583WAT      O25990   3.282   0.110   5.775
 8583WAT     H125991   3.280   0.041   5.703
 8583WAT     H225992   3.322   0.194   5.738
 8584WAT      O25993   6.004   1.625   4.766
 8584WAT     H125994   5.947   1.595   4.843
 8584WAT     H225995   5.954   1.610   4.681
 8585WAT      O25996   5.457   3.617   8.306
 8585WAT     H125997   5.422   3.703   8.268
 8585WAT     H225998   5.507   3.567   8.235
 8586WAT      O25999   6.944   6.049   9.828
 8586WAT     H126000   6.965   6.050   9.926
 8586WAT     H226001   6.969   5.961   9.789
 8587WAT      O26002   6.667   1.369   3.962
 8587WAT     H126003   6.739   1.428   3.925
 8587WAT     H226004   6.578   1.410   3.943
 8588WAT      O26005   0.976   9.451   9.019
 8588WAT     H126006   0.971   9.396   9.102
 8588WAT     H226007   0.883   9.478   8.991
 8589WAT      O26008   2.717   4.269   8.107
 8589WAT     H126009   2.678   4.248   8.197
 8589WAT     H226010   2.751   4.185   8.065
 8590WAT      O26011   6.359   8.171   3.627
 8590WAT     H126012   6.391   8.224   3.549
 8590WAT     H226013   6.394   8.210   3.712
 8591WAT      O26014   1.810   3.324   5.942
 8591WAT     H126015   1.865   3.324   5.859
 8591WAT     H226016   1.806   3.417   5.979
 8592WAT      O26017   9.287   6.631   6.212
 8592WAT     H126018   9.327   6.630   6.304
 8592WAT     H226019   9.264   6.725   6.187
 8593WAT      O26020   6.903   4.484   1.020
 8593WAT     H126021   6.883   4.556   1.087
 8593WAT     H226022   6.915   4.526   0.930
 8594WAT      O26023   2.427   3.713   2.028
 8594WAT     H126024   2.377   3.798   2.010
 8594WAT     H226025   2.454   3.711   2.125
 8595WAT      O26026   5.317   8.067   1.560
 8595WAT     H126027   5.392   8.006   1.535
 8595WAT     H226028   5.230   8.018   1.553
 8596WAT      O26029   1.650   5.896   8.552
 8596WAT     H126030   1.664   5.995   8.548
 8596WAT     H226031   1.727   5.849   8.509
 8597WAT      O26032   8.067   5.674   6.114
 8597WAT     H126033   7.975   5.712   6.109
 8597WAT     H226034   8.069   5.585   6.068
 8598WAT      O26035   2.406   9.081   2.481
 8598WAT     H126036   2.363   9.102   2.569
 8598WAT     H226037   2.502   9.109   2.483
 8599WAT      O26038   0.964   7.108   1.019
 8599WAT     H126039   1.050   7.080   0.977
 8599WAT     H226040   0.976   7.113   1.119
 8600WAT      O26041   9.585   7.376   1.931
 8600WAT     H126042   9.682   7.371   1.955
 8600WAT     H226043   9.551   7.285   1.911
 8601WAT      O26044   7.398   5.815   4.700
 8601WAT     H126045   7.406   5.759   4.617
 8601WAT     H226046   7.479   5.874   4.708
 8602WAT      O26047   4.404   4.435   7.649
 8602WAT     H126048   4.392   4.347   7.695
 8602WAT     H226049   4.502   4.449   7.630
 8603WAT      O26050   7.794   6.830   5.705
 8603WAT     H126051   7.719   6.774   5.740
 8603WAT     H226052   7.817   6.801   5.612
 8604WAT      O26053   0.986   7.237   8.831
 8604WAT     H126054   1.006   7.152   8.783
 8604WAT     H226055   0.890   7.237   8.859
 8605WAT      O26056   5.172   2.196   0.510
 8605WAT     H126057   5.250   2.258   0.512
 8605WAT     H226058   5.202   2.105   0.481
 8606WAT      O26059   7.085   3.335   5.641
 8606WAT     H126060   7.039   3.304   5.724
 8606WAT     H226061   7.094   3.259   5.577
 8607WAT      O26062   3.762   6.650   3.014
 8607WAT     H126063   3.719   6.728   2.970
 8607WAT     H226064   3.797   6.677   3.104
 8608WAT      O26065   4.767   9.015   4.897
 8608WAT     H126066   4.766   8.933   4.954
 8608WAT     H226067   4.682   9.022   4.846
 8609WAT      O26068   4.875   2.463   8.318
 8609WAT     H126069   4.809   2.487   8.388
 8609WAT     H226070   4.832   2.465   8.228
 8610WAT      O26071   4.521   1.116   2.438
 8610WAT     H126072   4.524   1.098   2.536
 8610WAT     H226073   4.578   1.194   2.416
 8611WAT      O26074   0.746   0.124   8.203
 8611WAT     H126075   0.787   0.213   8.225
 8611WAT     H226076   0.649   0.137   8.184
 8612WAT      O26077   4.884   8.397   3.108
 8612WAT     H126078   4.832   8.480   3.092
 8612WAT     H226079   4.853   8.325   3.046
 8613WAT      O26080   9.150   9.117   0.431
 8613WAT     H126081   9.184   9.053   0.361
 8613WAT     H226082   9.104   9.193   0.386
 8614WAT      O26083   6.795   5.114   4.073
 8614WAT     H126084   6.745   5.037   4.035
 8614WAT     H226085   6.864   5.145   4.008
 8615WAT      O26086   9.724   7.882   7.637
 8615WAT     H126087   9.726   7.793   7.683
 8615WAT     H226088   9.667   7.875   7.555
 8616WAT      O26089   3.199   0.864   0.261
 8616WAT     H126090   3.289   0.834   0.228
 8616WAT     H226091   3.128   0.829   0.200
 8617WAT      O26092   5.454   5.415   1.251
 8617WAT     H126093   5.476   5.447   1.343
 8617WAT     H226094   5.356   5.430   1.233
 8618WAT      O26095   3.148   7.057   6.707
 8618WAT     H126096   3.080   7.055   6.633
 8618WAT     H226097   3.175   6.963   6.730
 8619WAT      O26098   6.421   7.454   2.354
 8619WAT     H126099   6.348   7.420   2.294
 8619WAT     H226100   6.399   7.546   2.384
 8620WAT      O26101   2.615   5.733   5.699
 8620WAT     H126102   2.564   5.791   5.636
 8620WAT     H226103   2.712   5.734   5.675
 8621WAT      O26104   4.899   7.268   4.983
 8621WAT     H126105   4.821   7.322   5.015
 8621WAT     H226106   4.981   7.325   4.982
 8622WAT      O26107   6.293   5.643   3.504
 8622WAT     H126108   6.204   5.598   3.514
 8622WAT     H226109   6.286   5.738   3.533
 8623WAT      O26110   9.710   6.596   2.522
 8623WAT     H126111   9.804   6.613   2.492
 8623WAT     H226112   9.697   6.631   2.614
 8624WAT      O26113   1.696   2.136   2.484
 8624WAT     H126114   1.705   2.218   2.427
 8624WAT     H226115   1.755   2.064   2.447
 8625WAT      O26116   4.860   0.690   4.522
 8625WAT     H126117   4.875   0.656   4.615
 8625WAT     H226118   4.768   0.666   4.492
 8626WAT      O26119   9.745   1.964   9.402
 8626WAT     H126120   9.802   1.930   9.476
 8626WAT     H226121   9.680   1.893   9.374
 8627WAT      O26122   7.827   1.451   3.052
 8627WAT     H126123   7.876   1.444   3.139
 8627WAT     H226124   7.819   1.360   3.011
 8628WAT      O26125   1.175   9.402   6.557
 8628WAT     H126126   1.100   9.340   6.580
 8628WAT     H226127   1.246   9.397   6.627
 8629WAT      O26128   5.319   6.334   0.357
 8629WAT     H126129   5.271   6.357   0.442
 8629WAT     H226130   5.254   6.338   0.281
 8630WAT      O26131   5.130   5.695   8.551
 8630WAT     H126132   5.111   5.768   8.617
 8630WAT     H226133   5.217   5.714   8.505
 8631WAT      O26134   5.368   6.663   3.723
 8631WAT     H126135   5.410   6.693   3.637
 8631WAT     H226136   5.341   6.567   3.714
 8632WAT      O26137   8.058   4.463   6.872
 8632WAT     H126138   8.014   4.490   6.958
 8632WAT     H226139   7.988   4.450   6.802
 8633WAT      O26140   8.213   1.824   1.931
 8633WAT     H126141   8.282   1.796   1.864
 8633WAT     H226142   8.147   1.885   1.887
 8634WAT      O26143   8.557   8.713   0.727
 8634WAT     H126144   8.615   8.662   0.663
 8634WAT     H226145   8.576   8.811   0.718
 8635WAT      O26146   7.631   7.823   5.850
 8635WAT     H126147   7.602   7.801   5.943
 8635WAT     H226148   7.700   7.895   5.853
 8636WAT      O26149   7.100   6.414   9.072
 8636WAT     H126150   7.126   6.348   9.142
 8636WAT     H226151   7.007   6.445   9.088
 8637WAT      O26152   2.263   3.888   7.110
 8637WAT     H126153   2.330   3.885   7.036
 8637WAT     H226154   2.227   3.981   7.120
 8638WAT      O26155   0.099   0.960   3.940
 8638WAT     H126156   0.136   1.039   3.891
 8638WAT     H226157   0.036   0.910   3.881
 8639WAT      O26158   6.300   8.963   4.596
 8639WAT     H126159   6.238   9.032   4.635
 8639WAT     H226160   6.274   8.946   4.501
 8640WAT      O26161   2.464   0.628   4.598
 8640WAT     H126162   2.559   0.660   4.603
 8640WAT     H226163   2.439   0.614   4.503
 8641WAT      O26164   4.189   7.268   4.489
 8641WAT     H126165   4.284   7.250   4.516
 8641WAT     H226166   4.145   7.182   4.464
 8642WAT      O26167   1.131   0.485   2.338
 8642WAT     H126168   1.154   0.525   2.427
 8642WAT     H226169   1.144   0.554   2.266
 8643WAT      O26170   2.394   4.321   2.188
 8643WAT     H126171   2.494   4.324   2.186
 8643WAT     H226172   2.358   4.399   2.136
 8644WAT      O26173   3.605   7.769   4.444
 8644WAT     H126174   3.536   7.834   4.477
 8644WAT     H226175   3.560   7.699   4.389
 8645WAT      O26176   8.928   6.873   1.042
 8645WAT     H126177   8.839   6.907   1.072
 8645WAT     H226178   8.961   6.927   0.965
 8646WAT      O26179   0.341   5.954   0.991
 8646WAT     H126180   0.421   5.898   0.968
 8646WAT     H226181   0.355   6.048   0.959
 8647WAT      O26182   5.217   2.307   2.062
 8647WAT     H126183   5.212   2.216   2.022
 8647WAT     H226184   5.311   2.341   2.055
 8648WAT      O26185   5.468   3.367   1.859
 8648WAT     H126186   5.420   3.416   1.931
 8648WAT     H226187   5.445   3.406   1.770
 8649WAT      O26188   7.797   3.795   4.037
 8649WAT     H126189   7.838   3.705   4.021
 8649WAT     H226190   7.791   3.812   4.135
 8650WAT      O26191   7.053   7.740   5.878
 8650WAT     H126192   7.126   7.740   5.945
 8650WAT     H226193   6.966   7.763   5.923
 8651WAT      O26194   6.344   4.764   1.469
 8651WAT     H126195   6.271   4.706   1.434
 8651WAT     H226196   6.352   4.751   1.568
 8652WAT      O26197   2.638   5.100   5.325
 8652WAT     H126198   2.655   5.022   5.385
 8652WAT     H226199   2.719   5.118   5.270
 8653WAT      O26200   9.545   5.320   6.806
 8653WAT     H126201   9.539   5.230   6.762
 8653WAT     H226202   9.638   5.334   6.839
 8654WAT      O26203   5.223   1.680   4.471
 8654WAT     H126204   5.169   1.676   4.555
 8654WAT     H226205   5.189   1.612   4.405
 8655WAT      O26206   7.689   5.932   9.718
 8655WAT     H126207   7.696   6.028   9.742
 8655WAT     H226208   7.661   5.879   9.799
 8656WAT      O26209   0.089   2.659   3.254
 8656WAT     H126210   0.150   2.599   3.203
 8656WAT     H226211   0.083   2.748   3.209
 8657WAT      O26212   6.456   9.205   1.391
 8657WAT     H126213   6.426   9.210   1.296
 8657WAT     H226214   6.382   9.236   1.451
 8658WAT      O26215   1.608   5.035   1.818
 8658WAT     H126216   1.656   4.979   1.885
 8658WAT     H226217   1.619   5.132   1.841
 8659WAT      O26218   2.778   9.841   5.921
 8659WAT     H126219   2.847   9.795   5.865
 8659WAT     H226220   2.756   9.784   6.000
 8660WAT      O26221   1.221   3.287   8.200
 8660WAT     H126222   1.143   3.237   8.163
 8660WAT     H226223   1.203   3.385   8.196
 8661WAT      O26224   0.357   2.590   1.763
 8661WAT     H126225   0.292   2.665   1.769
 8661WAT     H226226   0.385   2.562   1.855
 8662WAT      O26227   1.733   5.385   8.899
 8662WAT     H126228   1.780   5.316   8.844
 8662WAT     H226229   1.654   5.420   8.848
 8663WAT      O26230   8.500   3.598   5.718
 8663WAT     H126231   8.474   3.683   5.763
 8663WAT     H226232   8.421   3.536   5.715
 8664WAT      O26233   2.756   4.123   9.752
 8664WAT     H126234   2.698   4.065   9.696
 8664WAT     H226235   2.848   4.127   9.712
 8665WAT      O26236   6.464   7.047   3.337
 8665WAT     H126237   6.492   6.977   3.403
 8665WAT     H226238   6.493   7.020   3.245
 8666WAT      O26239   8.225   2.152   6.363
 8666WAT     H126240   8.170   2.119   6.286
 8666WAT     H226241   8.307   2.199   6.328
 8667WAT      O26242   1.391   8.666   5.162
 8667WAT     H126243   1.365   8.575   5.129
 8667WAT     H226244   1.341   8.736   5.111
 8668WAT      O26245   7.351   6.362   0.202
 8668WAT     H126246   7.256   6.339   0.225
 8668WAT     H226247   7.380   6.311   0.121
 8669WAT      O26248   0.086   6.091   6.375
 8669WAT     H126249   0.118   6.146   6.452
 8669WAT     H226250   0.157   6.025   6.350
 8670WAT      O26251   7.049   0.233   8.865
 8670WAT     H126252   7.139   0.249   8.825
 8670WAT     H226253   7.052   0.255   8.963
 8671WAT      O26254   6.630   8.820   7.297
 8671WAT     H126255   6.700   8.891   7.300
 8671WAT     H226256   6.599   8.807   7.203
 8672WAT      O26257   2.011   0.838   0.781
 8672WAT     H126258   2.026   0.913   0.845
 8672WAT     H226259   1.914   0.814   0.778
 8673WAT      O26260   1.510   2.748   6.850
 8673WAT     H126261   1.467   2.821   6.901
 8673WAT     H226262   1.553   2.683   6.913
 8674WAT      O26263   3.264   3.685   1.093
 8674WAT     H126264   3.197   3.641   1.153
 8674WAT     H226265   3.271   3.633   1.008
 8675WAT      O26266   9.213   1.549   9.806
 8675WAT     H126267   9.137   1.485   9.810
 8675WAT     H226268   9.195   1.618   9.735
 8676WAT      O26269   1.905   8.859   5.526
 8676WAT     H126270   1.937   8.870   5.620
 8676WAT     H226271   1.865   8.945   5.494
 8677WAT      O26272   7.527   5.933   1.256
 8677WAT     H126273   7.617   5.943   1.214
 8677WAT     H226274   7.538   5.914   1.353
 8678WAT      O26275   4.539   8.041   9.092
 8678WAT     H126276   4.454   8.088   9.069
 8678WAT     H226277   4.610   8.108   9.115
 8679WAT      O26278   6.646   8.987   5.804
 8679WAT     H126279   6.718   9.040   5.848
 8679WAT     H226280   6.562   9.041   5.800
 8680WAT      O26281   1.402   3.609   2.197
 8680WAT     H126282   1.494   3.594   2.161
 8680WAT     H226283   1.336   3.560   2.140
 8681WAT      O26284   2.212   6.066   3.487
 8681WAT     H126285   2.308   6.068   3.512
 8681WAT     H226286   2.194   6.134   3.416
 8682WAT      O26287   3.996   8.155   7.323
 8682WAT     H126288   4.003   8.252   7.302
 8682WAT     H226289   4.005   8.142   7.422
 8683WAT      O26290   0.937   7.992   5.506
 8683WAT     H126291   0.974   8.018   5.417
 8683WAT     H226292   1.012   7.977   5.570
 8684WAT      O26293   9.778   4.108   9.732
 8684WAT     H126294   9.870   4.073   9.746
 8684WAT     H226295   9.715   4.032   9.717
 8685WAT      O26296   7.214   6.074   0.787
 8685WAT     H126297   7.148   6.066   0.712
 8685WAT     H226298   7.305   6.094   0.750
 8686WAT      O26299   9.523   4.552   5.655
 8686WAT     H126300   9.434   4.573   5.614
 8686WAT     H226301   9.523   4.579   5.751
 8687WAT      O26302   9.415   4.553   3.076
 8687WAT     H126303   9.513   4.573   3.077
 8687WAT     H226304   9.370   4.604   3.149
 8688WAT      O26305   6.390   3.204   3.959
 8688WAT     H126306   6.485   3.187   3.933
 8688WAT     H226307   6.382   3.296   3.997
 8689WAT      O26308   7.211   0.965   9.184
 8689WAT     H126309   7.241   1.030   9.254
 8689WAT     H226310   7.174   0.883   9.229
 8690WAT      O26311   0.359   1.157   7.810
 8690WAT     H126312   0.435   1.211   7.847
 8690WAT     H226313   0.284   1.156   7.876
 8691WAT      O26314   2.965   2.600   4.940
 8691WAT     H126315   2.980   2.580   4.843
 8691WAT     H226316   2.868   2.620   4.955
 8692WAT      O26317   6.796   4.166   3.885
 8692WAT     H126318   6.718   4.226   3.901
 8692WAT     H226319   6.770   4.093   3.821
 8693WAT      O26320   8.708   3.711   2.232
 8693WAT     H126321   8.761   3.735   2.314
 8693WAT     H226322   8.614   3.742   2.243
 8694WAT      O26323   9.468   8.376   0.947
 8694WAT     H126324   9.523   8.307   0.994
 8694WAT     H226325   9.407   8.331   0.881
 8695WAT      O26326   2.991   2.030   0.877
 8695WAT     H126327   2.949   1.971   0.945
 8695WAT     H226328   2.938   2.115   0.870
 8696WAT      O26329   5.805   2.479   0.937
 8696WAT     H126330   5.712   2.447   0.955
 8696WAT     H226331   5.802   2.574   0.905
 8697WAT      O26332   4.403   4.717   7.111
 8697WAT     H126333   4.445   4.627   7.124
 8697WAT     H226334   4.310   4.715   7.148
 8698WAT      O26335   5.500   8.531   3.937
 8698WAT     H126336   5.473   8.439   3.965
 8698WAT     H226337   5.575   8.562   3.995
 8699WAT      O26338   1.621   7.036   2.093
 8699WAT     H126339   1.619   6.945   2.136
 8699WAT     H226340   1.534   7.053   2.048
 8700WAT      O26341   8.217   0.326   9.751
 8700WAT     H126342   8.138   0.368   9.706
 8700WAT     H226343   8.230   0.234   9.716
 8701WAT      O26344   8.715   5.856   3.785
 8701WAT     H126345   8.620   5.835   3.806
 8701WAT     H226346   8.720   5.910   3.701
 8702WAT      O26347   3.179   1.767   5.936
 8702WAT     H126348   3.145   1.848   5.889
 8702WAT     H226349   3.278   1.777   5.952
 8703WAT      O26350   9.536   4.316   6.631
 8703WAT     H126351   9.463   4.296   6.566
 8703WAT     H226352   9.612   4.359   6.583
 8704WAT      O26353   0.565   1.272   7.962
 8704WAT     H126354   0.586   1.368   7.944
 8704WAT     H226355   0.643   1.228   8.008
 8705WAT      O26356   2.274   6.550   5.552
 8705WAT     H126357   2.361   6.512   5.583
 8705WAT     H226358   2.205   6.478   5.547
 8706WAT      O26359   6.163   3.183   0.742
 8706WAT     H126360   6.092   3.253   0.735
 8706WAT     H226361   6.252   3.225   0.728
 8707WAT      O26362   7.389   1.736   9.470
 8707WAT     H126363   7.356   1.694   9.555
 8707WAT     H226364   7.489   1.732   9.469
 8708WAT      O26365   3.621   1.476   5.484
 8708WAT     H126366   3.704   1.435   5.522
 8708WAT     H226367   3.541   1.428   5.519
 8709WAT      O26368   8.079   1.436   8.197
 8709WAT     H126369   7.994   1.485   8.212
 8709WAT     H226370   8.092   1.420   8.099
 8710WAT      O26371   0.737   8.094   5.143
 8710WAT     H126372   0.759   8.186   5.112
 8710WAT     H226373   0.668   8.054   5.082
 8711WAT      O26374   9.646   2.929   5.972
 8711WAT     H126375   9.668   2.862   6.042
 8711WAT     H226376   9.679   3.019   6.001
 8712WAT      O26377   7.783   0.978   7.854
 8712WAT     H126378   7.830   1.053   7.900
 8712WAT     H226379   7.848   0.906   7.832
 8713WAT      O26380   3.540   3.114   8.448
 8713WAT     H126381   3.469   3.130   8.379
 8713WAT     H226382   3.561   3.017   8.451
 8714WAT      O26383   8.035   5.961   7.322
 8714WAT     H126384   8.102   5.964   7.248
 8714WAT     H226385   7.985   6.047   7.325
 8715WAT      O26386   6.885   0.507   7.455
 8715WAT     H126387   6.949   0.436   7.426
 8715WAT     H226388   6.826   0.470   7.527
 8716WAT      O26389   3.321   5.737   6.805
 8716WAT     H126390   3.329   5.786   6.892
 8716WAT     H226391   3.411   5.728   6.763
 8717WAT      O26392   6.530   0.002   1.684
 8717WAT     H126393   6.507  -0.043   1.598
 8717WAT     H226394   6.507   0.099   1.678
 8718WAT      O26395   8.174   1.024   6.269
 8718WAT     H126396   8.236   0.954   6.304
 8718WAT     H226397   8.080   1.000   6.293
 8719WAT      O26398   4.139   2.106   1.901
 8719WAT     H126399   4.053   2.127   1.947
 8719WAT     H226400   4.204   2.180   1.918
 8720WAT      O26401   8.396   2.493   3.908
 8720WAT     H126402   8.469   2.552   3.943
 8720WAT     H226403   8.349   2.539   3.833
 8721WAT      O26404   6.075   0.498   2.307
 8721WAT     H126405   6.074   0.399   2.288
 8721WAT     H226406   6.149   0.518   2.371
 8722WAT      O26407   2.997   2.412   2.722
 8722WAT     H126408   3.012   2.313   2.724
 8722WAT     H226409   2.955   2.441   2.808
 8723WAT      O26410   2.570   2.657   6.486
 8723WAT     H126411   2.645   2.715   6.518
 8723WAT     H226412   2.535   2.602   6.562
 8724WAT      O26413   1.630   2.395   8.818
 8724WAT     H126414   1.649   2.427   8.725
 8724WAT     H226415   1.666   2.460   8.884
 8725WAT      O26416   6.727   7.341   3.276
 8725WAT     H126417   6.820   7.323   3.245
 8725WAT     H226418   6.662   7.317   3.204
 8726WAT      O26419   9.747   2.402   9.131
 8726WAT     H126420   9.688   2.450   9.066
 8726WAT     H226421   9.747   2.451   9.218
 8727WAT      O26422   5.376   3.360   9.837
 8727WAT     H126423   5.357   3.458   9.846
 8727WAT     H226424   5.334   3.311   9.913
 8728WAT      O26425   0.777   3.256   2.366
 8728WAT     H126426   0.872   3.225   2.370
 8728WAT     H226427   0.773   3.351   2.336
 8729WAT      O26428   4.495   1.344   9.306
 8729WAT     H126429   4.445   1.257   9.304
 8729WAT     H226430   4.593   1.325   9.319
 8730WAT      O26431   1.538   8.119   5.619
 8730WAT     H126432   1.519   8.041   5.560
 8730WAT     H226433   1.486   8.110   5.704
 8731WAT      O26434   5.998   8.997   7.454
 8731WAT     H126435   6.061   8.975   7.379
 8731WAT     H226436   6.044   9.057   7.519
 8732WAT      O26437   6.568   3.520   1.064
 8732WAT     H126438   6.635   3.579   1.019
 8732WAT     H226439   6.602   3.493   1.154
 8733WAT      O26440   5.014   2.366   3.648
 8733WAT     H126441   4.926   2.405   3.620
 8733WAT     H226442   5.079   2.440   3.665
 8734WAT      O26443   4.716   8.739   4.176
 8734WAT     H126444   4.704   8.837   4.162
 8734WAT     H226445   4.711   8.719   4.273
 8735WAT      O26446   2.056   6.131   3.035
 8735WAT     H126447   1.998   6.193   2.982
 8735WAT     H226448   2.092   6.060   2.974
 8736WAT      O26449   5.213   5.537   3.989
 8736WAT     H126450   5.156   5.565   4.066
 8736WAT     H226451   5.171   5.459   3.944
 8737WAT      O26452   4.793   6.869   2.330
 8737WAT     H126453   4.706   6.827   2.301
 8737WAT     H226454   4.774   6.956   2.375
 8738WAT      O26455   6.569   5.336   8.289
 8738WAT     H126456   6.650   5.388   8.263
 8738WAT     H226457   6.517   5.312   8.207
 8739WAT      O26458   8.309   3.473   1.204
 8739WAT     H126459   8.270   3.564   1.192
 8739WAT     H226460   8.245   3.404   1.170
 8740WAT      O26461   0.870   7.306   4.958
 8740WAT     H126462   0.930   7.245   4.907
 8740WAT     H226463   0.835   7.258   5.039
 8741WAT      O26464   1.223   3.099   9.692
 8741WAT     H126465   1.186   3.190   9.711
 8741WAT     H226466   1.199   3.072   9.599
 8742WAT      O26467   8.539   5.496   5.237
 8742WAT     H126468   8.605   5.567   5.213
 8742WAT     H226469   8.525   5.496   5.337
 8743WAT      O26470   9.688   5.925   7.168
 8743WAT     H126471   9.610   5.933   7.230
 8743WAT     H226472   9.771   5.906   7.221
 8744WAT      O26473   8.087   2.472   2.204
 8744WAT     H126474   8.183   2.458   2.227
 8744WAT     H226475   8.069   2.570   2.195
 8745WAT      O26476   7.824   1.864   9.743
 8745WAT     H126477   7.737   1.838   9.784
 8745WAT     H226478   7.899   1.837   9.805
 8746WAT      O26479   8.211   5.529   6.848
 8746WAT     H126480   8.143   5.565   6.912
 8746WAT     H226481   8.300   5.523   6.894
 8747WAT      O26482   0.293   0.490   7.701
 8747WAT     H126483   0.217   0.436   7.737
 8747WAT     H226484   0.379   0.441   7.716
 8748WAT      O26485   7.915   4.215   7.656
 8748WAT     H126486   7.837   4.276   7.671
 8748WAT     H226487   7.886   4.120   7.666
 8749WAT      O26488   9.278   6.606   6.818
 8749WAT     H126489   9.248   6.514   6.793
 8749WAT     H226490   9.321   6.650   6.739
 8750WAT      O26491   7.149   2.028   4.165
 8750WAT     H126492   7.232   2.074   4.198
 8750WAT     H226493   7.161   2.003   4.069
 8751WAT      O26494   8.171   0.446   1.319
 8751WAT     H126495   8.246   0.401   1.271
 8751WAT     H226496   8.098   0.379   1.335
 8752WAT      O26497   2.872   9.559   3.697
 8752WAT     H126498   2.836   9.517   3.614
 8752WAT     H226499   2.838   9.652   3.705
 8753WAT      O26500   4.286   7.108   8.034
 8753WAT     H126501   4.204   7.111   8.090
 8753WAT     H226502   4.331   7.198   8.035
 8754WAT      O26503   4.783   8.286   8.843
 8754WAT     H126504   4.733   8.367   8.872
 8754WAT     H226505   4.723   8.227   8.790
 8755WAT      O26506   5.126   9.748   3.325
 8755WAT     H126507   5.133   9.781   3.231
 8755WAT     H226508   5.082   9.817   3.382
 8756WAT      O26509   1.298   0.267   9.391
 8756WAT     H126510   1.258   0.221   9.470
 8756WAT     H226511   1.286   0.211   9.310
 8757WAT      O26512   2.801   9.292   2.957
 8757WAT     H126513   2.846   9.365   2.907
 8757WAT     H226514   2.737   9.245   2.896
 8758WAT      O26515   6.215   6.565   4.435
 8758WAT     H126516   6.278   6.638   4.462
 8758WAT     H226517   6.121   6.595   4.450
 8759WAT      O26518   0.669   2.972   9.432
 8759WAT     H126519   0.577   2.952   9.398
 8759WAT     H226520   0.689   3.069   9.419
 8760WAT      O26521   6.769   9.696   8.395
 8760WAT     H126522   6.702   9.623   8.381
 8760WAT     H226523   6.723   9.783   8.410
 8761WAT      O26524   6.905   3.667   5.138
 8761WAT     H126525   6.979   3.734   5.135
 8761WAT     H226526   6.912   3.612   5.221
 8762WAT      O26527   2.744   0.041   0.725
 8762WAT     H126528   2.647   0.021   0.713
 8762WAT     H226529   2.799  -0.037   0.695
 8763WAT      O26530   2.828   7.827   5.037
 8763WAT     H126531   2.825   7.927   5.033
 8763WAT     H226532   2.909   7.798   5.087
 8764WAT      O26533   0.903   4.706   7.860
 8764WAT     H126534   0.809   4.678   7.840
 8764WAT     H226535   0.965   4.628   7.850
 8765WAT      O26536   3.239   2.802   0.973
 8765WAT     H126537   3.222   2.894   0.940
 8765WAT     H226538   3.188   2.736   0.918
 8766WAT      O26539   1.756   3.484   2.132
 8766WAT     H126540   1.838   3.427   2.136
 8766WAT     H226541   1.732   3.515   2.225
 8767WAT      O26542   2.025   7.339   8.609
 8767WAT     H126543   2.081   7.377   8.536
 8767WAT     H226544   1.980   7.413   8.659
 8768WAT      O26545   0.527   4.432   7.570
 8768WAT     H126546   0.578   4.438   7.484
 8768WAT     H226547   0.544   4.343   7.613
 8769WAT      O26548   7.918   8.760   4.688
 8769WAT     H126549   7.851   8.819   4.643
 8769WAT     H226550   8.011   8.793   4.669
 8770WAT      O26551   7.634   4.205   8.664
 8770WAT     H126552   7.594   4.156   8.741
 8770WAT     H226553   7.595   4.171   8.578
 8771WAT      O26554   5.235   7.406   8.696
 8771WAT     H126555   5.311   7.344   8.714
 8771WAT     H226556   5.266   7.481   8.637
 8772WAT      O26557   1.825   1.838   5.195
 8772WAT     H126558   1.741   1.823   5.248
 8772WAT     H226559   1.850   1.753   5.148
 8773WAT      O26560   2.005   0.444   7.212
 8773WAT     H126561   2.076   0.392   7.259
 8773WAT     H226562   2.041   0.533   7.186
 8774WAT      O26563   8.221   0.619   2.001
 8774WAT     H126564   8.159   0.698   2.000
 8774WAT     H226565   8.307   0.643   1.956
 8775WAT      O26566   0.191   7.438   8.403
 8775WAT     H126567   0.153   7.462   8.313
 8775WAT     H226568   0.147   7.356   8.437
 8776WAT      O26569   5.279   2.916   4.558
 8776WAT     H126570   5.232   2.906   4.645
 8776WAT     H226571   5.360   2.974   4.570
 8777WAT      O26572   3.399   7.005   5.107
 8777WAT     H126573   3.337   7.052   5.046
 8777WAT     H226574   3.450   6.935   5.057
 8778WAT      O26575   6.035   5.547   5.901
 8778WAT     H126576   5.977   5.509   5.972
 8778WAT     H226577   6.001   5.638   5.875
 8779WAT      O26578   5.196   3.362   6.985
 8779WAT     H126579   5.173   3.265   6.987
 8779WAT     H226580   5.296   3.373   6.981
 8780WAT      O26581   8.496   9.156   7.895
 8780WAT     H126582   8.592   9.166   7.869
 8780WAT     H226583   8.465   9.238   7.942
 8781WAT      O26584   2.326   2.058   3.619
 8781WAT     H126585   2.249   2.000   3.645
 8781WAT     H226586   2.353   2.037   3.525
 8782WAT      O26587   8.519   6.219   6.812
 8782WAT     H126588   8.432   6.261   6.838
 8782WAT     H226589   8.507   6.171   6.725
 8783WAT      O26590   9.764   4.985   8.164
 8783WAT     H126591   9.711   5.038   8.098
 8783WAT     H226592   9.839   5.042   8.199
 8784WAT      O26593   7.125   6.578   5.089
 8784WAT     H126594   7.038   6.531   5.104
 8784WAT     H226595   7.200   6.512   5.089
 8785WAT      O26596   2.143   1.686   2.895
 8785WAT     H126597   2.140   1.753   2.821
 8785WAT     H226598   2.238   1.666   2.918
 8786WAT      O26599   2.639   3.328   3.266
 8786WAT     H126600   2.584   3.386   3.206
 8786WAT     H226601   2.579   3.268   3.318
 8787WAT      O26602   8.062   9.741   1.352
 8787WAT     H126603   7.976   9.705   1.390
 8787WAT     H226604   8.105   9.802   1.418
 8788WAT      O26605   5.886   5.228   0.683
 8788WAT     H126606   5.826   5.308   0.682
 8788WAT     H226607   5.878   5.181   0.771
 8789WAT      O26608   6.159   4.288   7.129
 8789WAT     H126609   6.187   4.381   7.106
 8789WAT     H226610   6.182   4.227   7.054
 8790WAT      O26611   2.744   7.714   6.699
 8790WAT     H126612   2.670   7.655   6.668
 8790WAT     H226613   2.754   7.705   6.798
 8791WAT      O26614   1.424   0.118   5.726
 8791WAT     H126615   1.357   0.079   5.662
 8791WAT     H226616   1.415   0.072   5.814
 8792WAT      O26617   0.477   5.203   7.603
 8792WAT     H126618   0.390   5.153   7.599
 8792WAT     H226619   0.477   5.263   7.683
 8793WAT      O26620   5.453   1.732   6.285
 8793WAT     H126621   5.499   1.677   6.354
 8793WAT     H226622   5.453   1.684   6.197
 8794WAT      O26623   1.892   4.326   1.228
 8794WAT     H126624   1.860   4.286   1.314
 8794WAT     H226625   1.830   4.399   1.199
 8795WAT      O26626   4.636   2.723   8.984
 8795WAT     H126627   4.680   2.690   9.067
 8795WAT     H226628   4.659   2.664   8.907
 8796WAT      O26629   6.676   1.177   0.825
 8796WAT     H126630   6.757   1.215   0.779
 8796WAT     H226631   6.626   1.118   0.762
 8797WAT      O26632   3.225   3.174   9.786
 8797WAT     H126633   3.320   3.189   9.812
 8797WAT     H226634   3.166   3.240   9.832
 8798WAT      O26635   8.646   9.836   4.272
 8798WAT     H126636   8.726   9.785   4.304
 8798WAT     H226637   8.563   9.786   4.296
 8799WAT      O26638   2.292   6.777   8.810
 8799WAT     H126639   2.351   6.697   8.792
 8799WAT     H226640   2.325   6.854   8.756
 8800WAT      O26641   6.239   5.606   4.997
 8800WAT     H126642   6.334   5.623   5.023
 8800WAT     H226643   6.192   5.560   5.072
 8801WAT      O26644   6.477   2.377   2.222
 8801WAT     H126645   6.503   2.463   2.265
 8801WAT     H226646   6.378   2.373   2.209
 8802WAT      O26647   2.281   1.637   4.863
 8802WAT     H126648   2.331   1.590   4.936
 8802WAT     H226649   2.340   1.705   4.820
 8803WAT      O26650   1.561   2.818   5.483
 8803WAT     H126651   1.639   2.815   5.419
 8803WAT     H226652   1.568   2.742   5.547
 8804WAT      O26653   8.114   3.716   6.041
 8804WAT     H126654   8.124   3.794   5.978
 8804WAT     H226655   8.017   3.694   6.051
 8805WAT      O26656   1.554   2.588   7.349
 8805WAT     H126657   1.638   2.609   7.397
 8805WAT     H226658   1.481   2.650   7.380
 8806WAT      O26659   3.713   2.423   6.786
 8806WAT     H126660   3.809   2.440   6.764
 8806WAT     H226661   3.691   2.463   6.875
 8807WAT      O26662   7.145   6.943   2.760
 8807WAT     H126663   7.203   6.909   2.835
 8807WAT     H226664   7.146   6.877   2.685
 8808WAT      O26665   3.821   7.993   6.543
 8808WAT     H126666   3.831   8.091   6.554
 8808WAT     H226667   3.835   7.968   6.447
 8809WAT      O26668   2.299   2.923   8.005
 8809WAT     H126669   2.296   2.825   7.984
 8809WAT     H226670   2.247   2.973   7.936
 8810WAT      O26671   1.324   3.068   8.844
 8810WAT     H126672   1.328   3.138   8.915
 8810WAT     H226673   1.261   3.097   8.772
 8811WAT      O26674   7.663   0.107   7.879
 8811WAT     H126675   7.636   0.106   7.782
 8811WAT     H226676   7.621   0.029   7.925
 8812WAT      O26677   7.078   2.151   3.306
 8812WAT     H126678   7.025   2.208   3.243
 8812WAT     H226679   7.131   2.084   3.255
 8813WAT      O26680   9.746   4.300   7.416
 8813WAT     H126681   9.838   4.259   7.413
 8813WAT     H226682   9.689   4.259   7.345
 8814WAT      O26683   1.680   6.929   4.276
 8814WAT     H126684   1.660   6.859   4.206
 8814WAT     H226685   1.777   6.953   4.271
 8815WAT      O26686   4.099   3.672   3.764
 8815WAT     H126687   4.110   3.771   3.772
 8815WAT     H226688   4.061   3.636   3.849
 8816WAT      O26689   0.056   3.501   7.124
 8816WAT     H126690  -0.019   3.500   7.058
 8816WAT     H226691   0.106   3.414   7.120
 8817WAT      O26692   8.679   2.088   6.400
 8817WAT     H126693   8.770   2.045   6.403
 8817WAT     H226694   8.635   2.079   6.489
 8818WAT      O26695   0.838   4.325   4.512
 8818WAT     H126696   0.898   4.248   4.532
 8818WAT     H226697   0.745   4.292   4.497
 8819WAT      O26698   9.036   3.127   5.357
 8819WAT     H126699   9.036   3.103   5.454
 8819WAT     H226700   8.974   3.066   5.308
 8820WAT      O26701   8.513   2.870   5.339
 8820WAT     H126702   8.487   2.779   5.305
 8820WAT     H226703   8.589   2.860   5.404
 8821WAT      O26704   1.108   7.247   1.701
 8821WAT     H126705   1.054   7.329   1.683
 8821WAT     H226706   1.047   7.168   1.709
 8822WAT      O26707   7.649   0.375   6.310
 8822WAT     H126708   7.580   0.346   6.376
 8822WAT     H226709   7.622   0.462   6.270
 8823WAT      O26710   7.401   4.012   5.658
 8823WAT     H126711   7.365   3.987   5.568
 8823WAT     H226712   7.443   3.932   5.701
 8824WAT      O26713   4.695   9.657   1.660
 8824WAT     H126714   4.780   9.606   1.648
 8824WAT     H226715   4.663   9.690   1.571
 8825WAT      O26716   6.525   7.881   3.996
 8825WAT     H126717   6.537   7.903   3.899
 8825WAT     H226718   6.546   7.784   4.011
 8826WAT      O26719   6.367   6.688   1.682
 8826WAT     H126720   6.417   6.609   1.718
 8826WAT     H226721   6.432   6.754   1.645
 8827WAT      O26722   6.617   7.591   4.503
 8827WAT     H126723   6.593   7.582   4.599
 8827WAT     H226724   6.707   7.551   4.486
 8828WAT      O26725   5.521   4.324   5.492
 8828WAT     H126726   5.441   4.384   5.504
 8828WAT     H226727   5.580   4.331   5.573
 8829WAT      O26728   4.185   6.185   8.865
 8829WAT     H126729   4.168   6.279   8.836
 8829WAT     H226730   4.128   6.123   8.810
 8830WAT      O26731   3.261   5.825   4.465
 8830WAT     H126732   3.336   5.865   4.413
 8830WAT     H226733   3.286   5.819   4.561
 8831WAT      O26734   4.222   6.750   6.714
 8831WAT     H126735   4.201   6.815   6.642
 8831WAT     H226736   4.320   6.749   6.732
 8832WAT      O26737   1.024   0.913   0.240
 8832WAT     H126738   1.123   0.903   0.243
 8832WAT     H226739   0.986   0.901   0.332
 8833WAT      O26740   6.272   8.252   4.173
 8833WAT     H126741   6.270   8.152   4.170
 8833WAT     H226742   6.313   8.282   4.259
 8834WAT      O26743   7.920   4.573   7.391
 8834WAT     H126744   7.995   4.530   7.442
 8834WAT     H226745   7.950   4.660   7.353
 8835WAT      O26746   1.590   9.550   1.157
 8835WAT     H126747   1.584   9.465   1.105
 8835WAT     H226748   1.663   9.542   1.225
 8836WAT      O26749   2.603   6.135   2.695
 8836WAT     H126750   2.571   6.148   2.601
 8836WAT     H226751   2.702   6.152   2.698
 8837WAT      O26752   3.740   0.503   1.419
 8837WAT     H126753   3.644   0.498   1.447
 8837WAT     H226754   3.777   0.594   1.442
 8838WAT      O26755   9.273   4.308   4.302
 8838WAT     H126756   9.253   4.306   4.400
 8838WAT     H226757   9.190   4.331   4.251
 8839WAT      O26758   8.287   8.818   0.646
 8839WAT     H126759   8.273   8.766   0.730
 8839WAT     H226760   8.385   8.832   0.632
 8840WAT      O26761   9.602   7.386   0.399
 8840WAT     H126762   9.545   7.306   0.382
 8840WAT     H226763   9.671   7.364   0.468
 8841WAT      O26764   3.973   2.545   6.430
 8841WAT     H126765   3.910   2.468   6.420
 8841WAT     H226766   4.067   2.511   6.430
 8842WAT      O26767   8.817   2.651   8.061
 8842WAT     H126768   8.733   2.692   8.025
 8842WAT     H226769   8.803   2.624   8.156
 8843WAT      O26770   7.086   2.273   2.779
 8843WAT     H126771   7.178   2.266   2.818
 8843WAT     H226772   7.039   2.185   2.789
 8844WAT      O26773   6.791   1.169   1.836
 8844WAT     H126774   6.817   1.124   1.921
 8844WAT     H226775   6.818   1.112   1.758
 8845WAT      O26776   4.566   3.307   2.675
 8845WAT     H126777   4.636   3.370   2.642
 8845WAT     H226778   4.598   3.263   2.759
 8846WAT      O26779   0.735   3.514   2.586
 8846WAT     H126780   0.777   3.499   2.496
 8846WAT     H226781   0.646   3.559   2.575
 8847WAT      O26782   6.272   0.777   5.587
 8847WAT     H126783   6.177   0.759   5.612
 8847WAT     H226784   6.300   0.714   5.514
 8848WAT      O26785   3.153   5.538   8.750
 8848WAT     H126786   3.206   5.530   8.665
 8848WAT     H226787   3.212   5.573   8.823
 8849WAT      O26788   3.022   2.377   1.884
 8849WAT     H126789   3.092   2.439   1.849
 8849WAT     H226790   2.932   2.410   1.856
 8850WAT      O26791   3.169   6.611   2.718
 8850WAT     H126792   3.122   6.696   2.743
 8850WAT     H226793   3.268   6.625   2.723
 8851WAT      O26794   8.162   4.311   7.744
 8851WAT     H126795   8.140   4.330   7.839
 8851WAT     H226796   8.087   4.258   7.703
 8852WAT      O26797   7.282   6.034   3.368
 8852WAT     H126798   7.318   6.128   3.370
 8852WAT     H226799   7.248   6.014   3.276
 8853WAT      O26800   8.165   8.924   9.367
 8853WAT     H126801   8.087   8.930   9.305
 8853WAT     H226802   8.141   8.966   9.454
 8854WAT      O26803   1.043   1.270   4.643
 8854WAT     H126804   1.025   1.254   4.740
 8854WAT     H226805   1.025   1.187   4.591
 8855WAT      O26806   5.653   7.291   6.604
 8855WAT     H126807   5.591   7.366   6.582
 8855WAT     H226808   5.678   7.296   6.701
 8856WAT      O26809   2.717   1.934   2.311
 8856WAT     H126810   2.778   2.000   2.355
 8856WAT     H226811   2.674   1.877   2.381
 8857WAT      O26812   0.684   6.626   5.273
 8857WAT     H126813   0.652   6.672   5.356
 8857WAT     H226814   0.681   6.527   5.286
 8858WAT      O26815   9.782   3.772   5.203
 8858WAT     H126816   9.763   3.691   5.148
 8858WAT     H226817   9.752   3.756   5.298
 8859WAT      O26818   0.318   0.115   5.371
 8859WAT     H126819   0.335   0.112   5.273
 8859WAT     H226820   0.249   0.184   5.391
 8860WAT      O26821   2.757   9.415   5.571
 8860WAT     H126822   2.767   9.327   5.524
 8860WAT     H226823   2.848   9.448   5.599
 8861WAT      O26824   0.565   2.605   5.492
 8861WAT     H126825   0.643   2.668   5.491
 8861WAT     H226826   0.579   2.533   5.424
 8862WAT      O26827   7.427   0.856   5.306
 8862WAT     H126828   7.485   0.874   5.386
 8862WAT     H226829   7.332   0.845   5.336
 8863WAT      O26830   9.857   2.936   2.165
 8863WAT     H126831   9.923   2.944   2.239
 8863WAT     H226832   9.767   2.914   2.204
 8864WAT      O26833   2.454   0.254   2.358
 8864WAT     H126834   2.550   0.228   2.365
 8864WAT     H226835   2.445   0.337   2.302
 8865WAT      O26836   2.796   7.244   7.083
 8865WAT     H126837   2.789   7.169   7.017
 8865WAT     H226838   2.705   7.269   7.116
 8866WAT      O26839   2.879   9.205   9.698
 8866WAT     H126840   2.932   9.143   9.641
 8866WAT     H226841   2.914   9.298   9.690
 8867WAT      O26842   6.027   6.284   8.438
 8867WAT     H126843   6.041   6.349   8.512
 8867WAT     H226844   5.995   6.197   8.475
 8868WAT      O26845   4.777   6.796   3.706
 8868WAT     H126846   4.871   6.787   3.740
 8868WAT     H226847   4.726   6.858   3.766
 8869WAT      O26848   8.472   2.078   8.715
 8869WAT     H126849   8.423   2.092   8.801
 8869WAT     H226850   8.563   2.120   8.721
 8870WAT      O26851   7.020   5.314   6.881
 8870WAT     H126852   7.015   5.391   6.818
 8870WAT     H226853   6.975   5.338   6.967
 8871WAT      O26854   3.626   8.870   9.691
 8871WAT     H126855   3.615   8.822   9.605
 8871WAT     H226856   3.623   8.805   9.767
 8872WAT      O26857   8.227   5.111   6.320
 8872WAT     H126858   8.204   5.102   6.223
 8872WAT     H226859   8.251   5.206   6.340
 8873WAT      O26860   0.277   0.945   9.774
 8873WAT     H126861   0.341   0.881   9.731
 8873WAT     H226862   0.324   0.997   9.845
 8874WAT      O26863   5.935   3.349   3.977
 8874WAT     H126864   5.951   3.444   4.003
 8874WAT     H226865   6.006   3.319   3.913
 8875WAT      O26866   0.131   8.440   0.120
 8875WAT     H126867   0.107   8.448   0.216
 8875WAT     H226868   0.054   8.470   0.064
 8876WAT      O26869   3.260   2.913   8.860
 8876WAT     H126870   3.166   2.919   8.895
 8876WAT     H226871   3.297   2.822   8.880
 8877WAT      O26872   8.134   3.918   5.882
 8877WAT     H126873   8.131   3.950   5.787
 8877WAT     H226874   8.122   3.996   5.943
 8878WAT      O26875   2.585   2.891   8.561
 8878WAT     H126876   2.525   2.813   8.547
 8878WAT     H226877   2.562   2.936   8.648
 8879WAT      O26878   4.896   4.746   0.341
 8879WAT     H126879   4.965   4.817   0.356
 8879WAT     H226880   4.940   4.658   0.330
 8880WAT      O26881   1.900   4.262   5.397
 8880WAT     H126882   1.814   4.246   5.347
 8880WAT     H226883   1.882   4.318   5.478
 8881WAT      O26884   5.879   3.886   1.676
 8881WAT     H126885   5.783   3.910   1.664
 8881WAT     H226886   5.904   3.813   1.613
 8882WAT      O26887   4.055   7.668   0.514
 8882WAT     H126888   4.060   7.626   0.423
 8882WAT     H226889   4.074   7.766   0.506
 8883WAT      O26890   3.757   6.848   2.134
 8883WAT     H126891   3.693   6.772   2.136
 8883WAT     H226892   3.735   6.912   2.207
 8884WAT      O26893   7.208   8.733   5.378
 8884WAT     H126894   7.205   8.739   5.478
 8884WAT     H226895   7.122   8.695   5.344
 8885WAT      O26896   6.772   0.546   3.983
 8885WAT     H126897   6.754   0.450   4.003
 8885WAT     H226898   6.688   0.599   3.990
 8886WAT      O26899   8.028   0.135   2.047
 8886WAT     H126900   8.035   0.061   2.114
 8886WAT     H226901   8.113   0.140   1.994
 8887WAT      O26902   8.159   2.372   3.984
 8887WAT     H126903   8.248   2.405   3.954
 8887WAT     H226904   8.137   2.287   3.936
 8888WAT      O26905   1.374   4.545   4.109
 8888WAT     H126906   1.356   4.450   4.084
 8888WAT     H226907   1.435   4.587   4.042
 8889WAT      O26908   7.484   9.458   6.705
 8889WAT     H126909   7.461   9.379   6.648
 8889WAT     H226910   7.569   9.499   6.671
 8890WAT      O26911   4.549   6.958   7.585
 8890WAT     H126912   4.491   6.879   7.604
 8890WAT     H226913   4.571   7.005   7.670
 8891WAT      O26914   2.334   6.161   8.328
 8891WAT     H126915   2.246   6.192   8.292
 8891WAT     H226916   2.324   6.067   8.363
 8892WAT      O26917   1.669   4.332   8.890
 8892WAT     H126918   1.660   4.352   8.988
 8892WAT     H226919   1.747   4.382   8.852
 8893WAT      O26920   1.622   4.397   3.366
 8893WAT     H126921   1.605   4.312   3.316
 8893WAT     H226922   1.682   4.456   3.312
 8894WAT      O26923   0.251   3.643   3.871
 8894WAT     H126924   0.186   3.691   3.812
 8894WAT     H226925   0.285   3.704   3.941
 8895WAT      O26926   3.249   0.857   9.550
 8895WAT     H126927   3.259   0.761   9.523
 8895WAT     H226928   3.322   0.911   9.509
 8896WAT      O26929   0.306   1.449   6.026
 8896WAT     H126930   0.358   1.375   6.069
 8896WAT     H226931   0.221   1.464   6.077
 8897WAT      O26932   4.589   6.922   4.669
 8897WAT     H126933   4.536   6.843   4.636
 8897WAT     H226934   4.684   6.913   4.638
 8898WAT      O26935   0.401   7.487   6.678
 8898WAT     H126936   0.363   7.571   6.641
 8898WAT     H226937   0.352   7.409   6.639
 8899WAT      O26938   1.693   0.888   4.034
 8899WAT     H126939   1.599   0.853   4.031
 8899WAT     H226940   1.756   0.813   4.055
 8900WAT      O26941   1.918   3.736   0.709
 8900WAT     H126942   1.967   3.651   0.726
 8900WAT     H226943   1.965   3.811   0.756
 8901WAT      O26944   7.285   2.394   5.759
 8901WAT     H126945   7.199   2.350   5.732
 8901WAT     H226946   7.314   2.458   5.688
 8902WAT      O26947   0.911   6.123   1.175
 8902WAT     H126948   0.898   6.217   1.207
 8902WAT     H226949   0.822   6.084   1.150
 8903WAT      O26950   4.928   0.124   8.213
 8903WAT     H126951   5.012   0.102   8.262
 8903WAT     H226952   4.947   0.191   8.141
 8904WAT      O26953   0.729   8.886   3.733
 8904WAT     H126954   0.710   8.835   3.817
 8904WAT     H226955   0.730   8.984   3.754
 8905WAT      O26956   1.335   1.793   3.793
 8905WAT     H126957   1.317   1.884   3.757
 8905WAT     H226958   1.404   1.798   3.866
 8906WAT      O26959   1.819   4.741   4.013
 8906WAT     H126960   1.719   4.733   4.022
 8906WAT     H226961   1.843   4.762   3.919
 8907WAT      O26962   2.874   1.661   8.273
 8907WAT     H126963   2.949   1.669   8.209
 8907WAT     H226964   2.909   1.640   8.364
 8908WAT      O26965   9.642   4.157   1.868
 8908WAT     H126966   9.664   4.162   1.965
 8908WAT     H226967   9.567   4.220   1.847
 8909WAT      O26968   1.966   6.216   4.781
 8909WAT     H126969   2.048   6.260   4.744
 8909WAT     H226970   1.933   6.268   4.860
 8910WAT      O26971   7.257   0.259   5.739
 8910WAT     H126972   7.280   0.179   5.685
 8910WAT     H226973   7.158   0.271   5.740
 8911WAT      O26974   1.625   3.835   9.150
 8911WAT     H126975   1.571   3.841   9.066
 8911WAT     H226976   1.706   3.780   9.134
 8912WAT      O26977   1.193   7.265   5.764
 8912WAT     H126978   1.275   7.224   5.805
 8912WAT     H226979   1.147   7.322   5.831
 8913WAT      O26980   4.832   7.520   2.821
 8913WAT     H126981   4.889   7.563   2.891
 8913WAT     H226982   4.873   7.433   2.793
 8914WAT      O26983   1.600   6.873   1.289
 8914WAT     H126984   1.680   6.883   1.230
 8914WAT     H226985   1.614   6.797   1.352
 8915WAT      O26986   7.721   1.741   5.534
 8915WAT     H126987   7.624   1.741   5.556
 8915WAT     H226988   7.733   1.746   5.434
 8916WAT      O26989   1.755   6.781   4.066
 8916WAT     H126990   1.850   6.805   4.048
 8916WAT     H226991   1.738   6.687   4.036
 8917WAT      O26992   6.598   2.351   6.995
 8917WAT     H126993   6.604   2.407   6.912
 8917WAT     H226994   6.690   2.321   7.021
 8918WAT      O26995   3.336   7.901   2.069
 8918WAT     H126996   3.335   7.804   2.096
 8918WAT     H226997   3.274   7.952   2.129
 8919WAT      O26998   4.634   9.827   9.365
 8919WAT     H126999   4.650   9.853   9.269
 8919WAT     H227000   4.617   9.910   9.419
 8920WAT      O27001   2.078   6.281   7.156
 8920WAT     H127002   2.060   6.231   7.241
 8920WAT     H227003   2.121   6.220   7.090
 8921WAT      O27004   9.138   0.031   4.377
 8921WAT     H127005   9.230   0.023   4.341
 8921WAT     H227006   9.099   0.119   4.350
 8922WAT      O27007   1.501   0.216   3.403
 8922WAT     H127008   1.419   0.205   3.347
 8922WAT     H227009   1.580   0.234   3.344
 8923WAT      O27010   4.730   1.284   8.471
 8923WAT     H127011   4.759   1.193   8.502
 8923WAT     H227012   4.771   1.354   8.531
 8924WAT      O27013   3.113   8.624   6.484
 8924WAT     H127014   3.075   8.673   6.563
 8924WAT     H227015   3.087   8.671   6.400
 8925WAT      O27016   8.659   0.491   0.677
 8925WAT     H127017   8.607   0.405   0.680
 8925WAT     H227018   8.755   0.471   0.657
 8926WAT      O27019   4.278   4.593   5.853
 8926WAT     H127020   4.229   4.511   5.823
 8926WAT     H227021   4.220   4.673   5.842
 8927WAT      O27022   4.890   6.903   9.695
 8927WAT     H127023   4.886   6.899   9.794
 8927WAT     H227024   4.984   6.886   9.665
 8928WAT      O27025   3.145   3.213   5.986
 8928WAT     H127026   3.141   3.309   5.957
 8928WAT     H227027   3.068   3.163   5.947
 8929WAT      O27028   6.730   7.832   6.592
 8929WAT     H127029   6.720   7.860   6.497
 8929WAT     H227030   6.799   7.760   6.599
 8930WAT      O27031   2.843   8.749   6.098
 8930WAT     H127032   2.787   8.831   6.105
 8930WAT     H227033   2.912   8.748   6.171
 8931WAT      O27034   4.275   2.252   3.718
 8931WAT     H127035   4.354   2.310   3.735
 8931WAT     H227036   4.293   2.160   3.753
 8932WAT      O27037   1.225   4.360   8.769
 8932WAT     H127038   1.220   4.428   8.842
 8932WAT     H227039   1.241   4.270   8.809
 8933WAT      O27040   8.818   0.415   0.190
 8933WAT     H127041   8.894   0.453   0.137
 8933WAT     H227042   8.764   0.489   0.230
 8934WAT      O27043   0.826   9.629   3.371
 8934WAT     H127044   0.873   9.717   3.375
 8934WAT     H227045   0.730   9.642   3.398
 8935WAT      O27046   8.479   5.520   1.454
 8935WAT     H127047   8.387   5.558   1.464
 8935WAT     H227048   8.505   5.519   1.358
 8936WAT      O27049   4.431   3.080   6.836
 8936WAT     H127050   4.492   3.130   6.775
 8936WAT     H227051   4.336   3.110   6.821
 8937WAT      O27052   9.763   8.440   1.965
 8937WAT     H127053   9.758   8.359   1.906
 8937WAT     H227054   9.728   8.519   1.915
 8938WAT      O27055   9.222   2.055   0.282
 8938WAT     H127056   9.296   2.020   0.224
 8938WAT     H227057   9.156   2.104   0.225
 8939WAT      O27058   4.204   6.928   5.010
 8939WAT     H127059   4.125   6.986   5.032
 8939WAT     H227060   4.288   6.982   5.022
 8940WAT      O27061   0.488   8.648   8.213
 8940WAT     H127062   0.490   8.629   8.114
 8940WAT     H227063   0.570   8.611   8.255
 8941WAT      O27064   2.014   2.717   4.980
 8941WAT     H127065   2.019   2.727   4.881
 8941WAT     H227066   2.098   2.752   5.021
 8942WAT      O27067   7.761   2.860   3.125
 8942WAT     H127068   7.693   2.910   3.180
 8942WAT     H227069   7.843   2.845   3.179
 8943WAT      O27070   1.282   1.343   1.400
 8943WAT     H127071   1.281   1.270   1.468
 8943WAT     H227072   1.245   1.427   1.440
 8944WAT      O27073   8.694   5.281   3.617
 8944WAT     H127074   8.628   5.226   3.668
 8944WAT     H227075   8.677   5.378   3.634
 8945WAT      O27076   8.093   4.476   5.923
 8945WAT     H127077   8.111   4.487   5.825
 8945WAT     H227078   8.016   4.413   5.936
 8946WAT      O27079   5.606   1.694   0.336
 8946WAT     H127080   5.695   1.656   0.359
 8946WAT     H227081   5.534   1.636   0.374
 8947WAT      O27082   4.095   9.578   2.191
 8947WAT     H127083   4.161   9.526   2.136
 8947WAT     H227084   4.021   9.611   2.132
 8948WAT      O27085   6.927   6.617   1.863
 8948WAT     H127086   6.884   6.612   1.773
 8948WAT     H227087   7.007   6.558   1.865
 8949WAT      O27088   5.240   4.498   1.153
 8949WAT     H127089   5.159   4.458   1.110
 8949WAT     H227090   5.274   4.574   1.096
 8950WAT      O27091   0.885   6.806   6.608
 8950WAT     H127092   0.821   6.858   6.552
 8950WAT     H227093   0.978   6.816   6.571
 8951WAT      O27094   0.290   9.058   3.723
 8951WAT     H127095   0.237   9.084   3.643
 8951WAT     H227096   0.311   8.960   3.719
 8952WAT      O27097   1.840   7.480   2.120
 8952WAT     H127098   1.765   7.521   2.171
 8952WAT     H227099   1.879   7.405   2.174
 8953WAT      O27100   5.892   5.995   3.692
 8953WAT     H127101   5.838   5.911   3.683
 8953WAT     H227102   5.985   5.972   3.721
 8954WAT      O27103   8.419   2.855   2.559
 8954WAT     H127104   8.445   2.824   2.467
 8954WAT     H227105   8.337   2.912   2.552
 8955WAT      O27106   8.328   5.355   9.404
 8955WAT     H127107   8.346   5.453   9.408
 8955WAT     H227108   8.233   5.337   9.427
 8956WAT      O27109   4.162   7.699   1.579
 8956WAT     H127110   4.109   7.680   1.661
 8956WAT     H227111   4.133   7.786   1.539
 8957WAT      O27112   7.089   1.479   9.873
 8957WAT     H127113   7.100   1.487   9.972
 8957WAT     H227114   7.038   1.395   9.852
 8958WAT      O27115   8.569   1.091   0.604
 8958WAT     H127116   8.541   1.031   0.679
 8958WAT     H227117   8.497   1.158   0.586
 8959WAT      O27118   9.850   0.739   4.195
 8959WAT     H127119   9.927   0.797   4.222
 8959WAT     H227120   9.883   0.662   4.141
 8960WAT      O27121   4.735   2.274   3.137
 8960WAT     H127122   4.704   2.368   3.119
 8960WAT     H227123   4.833   2.268   3.119
 8961WAT      O27124   3.046   5.398   6.934
 8961WAT     H127125   3.093   5.447   7.008
 8961WAT     H227126   3.090   5.310   6.919
 8962WAT      O27127   5.626   6.455   1.052
 8962WAT     H127128   5.568   6.536   1.057
 8962WAT     H227129   5.722   6.481   1.067
 8963WAT      O27130   1.963   8.371   4.989
 8963WAT     H127131   1.941   8.274   5.002
 8963WAT     H227132   1.940   8.421   5.072
 8964WAT      O27133   9.015   5.037   2.536
 8964WAT     H127134   9.080   5.063   2.607
 8964WAT     H227135   9.052   4.959   2.484
 8965WAT      O27136   9.057   1.188   1.661
 8965WAT     H127137   9.121   1.145   1.725
 8965WAT     H227138   9.093   1.276   1.632
 8966WAT      O27139   9.080   5.890   8.942
 8966WAT     H127140   9.056   5.985   8.924
 8966WAT     H227141   9.012   5.829   8.900
 8967WAT      O27142   2.299   3.146   1.939
 8967WAT     H127143   2.236   3.213   1.977
 8967WAT     H227144   2.255   3.056   1.937
 8968WAT      O27145   2.490   9.751   7.041
 8968WAT     H127146   2.502   9.674   7.105
 8968WAT     H227147   2.500   9.837   7.091
 8969WAT      O27148   5.882   8.708   1.768
 8969WAT     H127149   5.967   8.666   1.736
 8969WAT     H227150   5.811   8.696   1.700
 8970WAT      O27151   0.786   1.804   8.917
 8970WAT     H127152   0.854   1.749   8.967
 8970WAT     H227153   0.788   1.898   8.952
 8971WAT      O27154   8.915   7.252   2.007
 8971WAT     H127155   8.970   7.329   1.977
 8971WAT     H227156   8.877   7.204   1.928
 8972WAT      O27157   3.844   0.163   9.153
 8972WAT     H127158   3.866   0.089   9.217
 8972WAT     H227159   3.864   0.251   9.197
 8973WAT      O27160   2.040   0.365   2.306
 8973WAT     H127161   2.023   0.382   2.403
 8973WAT     H227162   2.126   0.409   2.279
 8974WAT      O27163   6.271   2.876   4.184
 8974WAT     H127164   6.274   2.797   4.123
 8974WAT     H227165   6.206   2.943   4.148
 8975WAT      O27166   9.776   7.700   2.680
 8975WAT     H127167   9.704   7.758   2.641
 8975WAT     H227168   9.860   7.753   2.691
 8976WAT      O27169   0.750   4.235   8.214
 8976WAT     H127170   0.654   4.217   8.235
 8976WAT     H227171   0.795   4.272   8.295
 8977WAT      O27172   7.795   2.496   7.391
 8977WAT     H127173   7.831   2.427   7.454
 8977WAT     H227174   7.869   2.554   7.358
 8978WAT      O27175   9.119   5.019   6.635
 8978WAT     H127176   9.096   5.099   6.691
 8978WAT     H227177   9.215   4.995   6.649
 8979WAT      O27178   3.983   9.752   3.769
 8979WAT     H127179   4.047   9.677   3.786
 8979WAT     H227180   3.931   9.733   3.686
 8980WAT      O27181   5.645   6.439   8.750
 8980WAT     H127182   5.560   6.465   8.796
 8980WAT     H227183   5.683   6.358   8.794
 8981WAT      O27184   4.449   7.137   9.835
 8981WAT     H127185   4.354   7.165   9.828
 8981WAT     H227186   4.488   7.125   9.744
 8982WAT      O27187   6.336   8.336   8.597
 8982WAT     H127188   6.302   8.353   8.505
 8982WAT     H227189   6.275   8.272   8.644
 8983WAT      O27190   9.826   3.095   7.086
 8983WAT     H127191   9.873   3.017   7.045
 8983WAT     H227192   9.757   3.130   7.022
 8984WAT      O27193   8.997   2.348   4.971
 8984WAT     H127194   9.060   2.407   5.021
 8984WAT     H227195   9.028   2.338   4.877
 8985WAT      O27196   3.131   9.673   6.341
 8985WAT     H127197   3.101   9.765   6.318
 8985WAT     H227198   3.093   9.608   6.275
 8986WAT      O27199   8.559   4.842   9.660
 8986WAT     H127200   8.634   4.786   9.623
 8986WAT     H227201   8.529   4.907   9.590
 8987WAT      O27202   0.682   0.402   0.884
 8987WAT     H127203   0.711   0.474   0.947
 8987WAT     H227204   0.617   0.440   0.818
 8988WAT      O27205   8.891   9.550   6.828
 8988WAT     H127206   8.911   9.513   6.737
 8988WAT     H227207   8.939   9.496   6.897
 8989WAT      O27208   5.137   3.915   4.405
 8989WAT     H127209   5.045   3.944   4.376
 8989WAT     H227210   5.130   3.830   4.456
 8990WAT      O27211   9.387   3.352   2.061
 8990WAT     H127212   9.409   3.292   2.138
 8990WAT     H227213   9.457   3.342   1.990
 8991WAT      O27214   5.684   9.182   3.910
 8991WAT     H127215   5.680   9.083   3.923
 8991WAT     H227216   5.742   9.203   3.832
 8992WAT      O27217   2.419   9.159   6.728
 8992WAT     H127218   2.378   9.090   6.788
 8992WAT     H227219   2.382   9.149   6.636
 8993WAT      O27220   8.329   6.816   7.164
 8993WAT     H127221   8.366   6.850   7.251
 8993WAT     H227222   8.382   6.737   7.134
 8994WAT      O27223   6.621   2.979   3.356
 8994WAT     H127224   6.693   3.011   3.417
 8994WAT     H227225   6.534   2.974   3.406
 8995WAT      O27226   0.218   0.304   6.147
 8995WAT     H127227   0.236   0.211   6.113
 8995WAT     H227228   0.251   0.371   6.081
 8996WAT      O27229   5.330   4.269   1.481
 8996WAT     H127230   5.354   4.280   1.578
 8996WAT     H227231   5.355   4.177   1.451
 8997WAT      O27232   1.159   8.309   0.562
 8997WAT     H127233   1.150   8.395   0.510
 8997WAT     H227234   1.068   8.268   0.574
 8998WAT      O27235   0.808   4.661   2.866
 8998WAT     H127236   0.720   4.708   2.869
 8998WAT     H227237   0.849   4.662   2.957
 8999WAT      O27238   6.991   9.642   4.620
 8999WAT     H127239   7.012   9.570   4.553
 8999WAT     H227240   7.046   9.723   4.601
 9000WAT      O27241   3.861   3.817   7.647
 9000WAT     H127242   3.956   3.812   7.617
 9000WAT     H227243   3.827   3.911   7.638
 9001WAT      O27244   9.695   8.469   0.709
 9001WAT     H127245   9.762   8.474   0.783
 9001WAT     H227246   9.607   8.504   0.742
 9002WAT      O27247   5.901   9.777   7.463
 9002WAT     H127248   5.890   9.850   7.395
 9002WAT     H227249   5.815   9.766   7.513
 9003WAT      O27250   8.195   9.506   1.514
 9003WAT     H127251   8.238   9.416   1.523
 9003WAT     H227252   8.262   9.577   1.533
 9004WAT      O27253   5.130   1.417   2.555
 9004WAT     H127254   5.057   1.410   2.623
 9004WAT     H227255   5.209   1.364   2.586
 9005WAT      O27256   3.101   6.608   7.355
 9005WAT     H127257   3.018   6.654   7.385
 9005WAT     H227258   3.136   6.550   7.428
 9006WAT      O27259   2.194   6.308   4.634
 9006WAT     H127260   2.262   6.250   4.589
 9006WAT     H227261   2.237   6.390   4.670
 9007WAT      O27262   3.214   8.308   8.992
 9007WAT     H127263   3.168   8.365   9.060
 9007WAT     H227264   3.265   8.366   8.929
 9008WAT      O27265   0.209   8.623   0.838
 9008WAT     H127266   0.274   8.624   0.914
 9008WAT     H227267   0.181   8.717   0.817
 9009WAT      O27268   0.841   7.894   2.065
 9009WAT     H127269   0.827   7.827   1.992
 9009WAT     H227270   0.752   7.919   2.105
 9010WAT      O27271   4.344   6.721   0.771
 9010WAT     H127272   4.268   6.658   0.756
 9010WAT     H227273   4.344   6.750   0.867
 9011WAT      O27274   7.784   1.967   8.746
 9011WAT     H127275   7.707   2.029   8.762
 9011WAT     H227276   7.804   1.918   8.831
 9012WAT      O27277   0.923   4.094   3.182
 9012WAT     H127278   0.915   4.012   3.238
 9012WAT     H227279   0.846   4.099   3.119
 9013WAT      O27280   7.046   1.975   1.696
 9013WAT     H127281   6.973   1.968   1.764
 9013WAT     H227282   7.088   2.065   1.701
 9014WAT      O27283   8.033   6.369   2.628
 9014WAT     H127284   8.101   6.345   2.697
 9014WAT     H227285   8.025   6.468   2.621
 9015WAT      O27286   7.961   6.735   3.606
 9015WAT     H127287   7.922   6.663   3.548
 9015WAT     H227288   7.982   6.815   3.551
 9016WAT      O27289   6.784   1.523   9.648
 9016WAT     H127290   6.736   1.450   9.696
 9016WAT     H227291   6.873   1.490   9.616
 9017WAT      O27292   3.934   1.355   8.677
 9017WAT     H127293   3.867   1.364   8.751
 9017WAT     H227294   3.927   1.435   8.617
 9018WAT      O27295   7.727   3.982   4.315
 9018WAT     H127296   7.706   3.950   4.407
 9018WAT     H227297   7.770   4.072   4.320
 9019WAT      O27298   7.890   8.473   4.713
 9019WAT     H127299   7.872   8.559   4.665
 9019WAT     H227300   7.983   8.475   4.751
 9020WAT      O27301   2.064   2.523   4.575
 9020WAT     H127302   2.126   2.523   4.653
 9020WAT     H227303   2.082   2.444   4.517
 9021WAT      O27304   7.175   9.413   9.005
 9021WAT     H127305   7.141   9.461   8.924
 9021WAT     H227306   7.270   9.441   9.023
 9022WAT      O27307   0.316   4.382   5.132
 9022WAT     H127308   0.281   4.415   5.045
 9022WAT     H227309   0.382   4.309   5.115
 9023WAT      O27310   8.718   1.500   3.470
 9023WAT     H127311   8.676   1.590   3.463
 9023WAT     H227312   8.795   1.494   3.407
 9024WAT      O27313   3.279   7.678   6.403
 9024WAT     H127314   3.221   7.630   6.469
 9024WAT     H227315   3.286   7.624   6.319
 9025WAT      O27316   4.523   1.252   6.943
 9025WAT     H127317   4.560   1.236   6.852
 9025WAT     H227318   4.529   1.349   6.965
 9026WAT      O27319   6.516   3.177   1.312
 9026WAT     H127320   6.606   3.178   1.355
 9026WAT     H227321   6.522   3.224   1.224
 9027WAT      O27322   8.061   0.602   6.882
 9027WAT     H127323   8.145   0.654   6.871
 9027WAT     H227324   8.011   0.635   6.962
 9028WAT      O27325   6.936   2.988   3.862
 9028WAT     H127326   7.011   2.923   3.848
 9028WAT     H227327   6.950   3.068   3.804
 9029WAT      O27328   0.175   9.724   4.431
 9029WAT     H127329   0.120   9.804   4.405
 9029WAT     H227330   0.271   9.749   4.436
 9030WAT      O27331   1.016   8.210   5.836
 9030WAT     H127332   1.025   8.251   5.746
 9030WAT     H227333   1.101   8.165   5.862
 9031WAT      O27334   0.572   5.292   8.993
 9031WAT     H127335   0.619   5.283   8.905
 9031WAT     H227336   0.594   5.214   9.051
 9032WAT      O27337   5.111   1.791   1.347
 9032WAT     H127338   5.025   1.843   1.343
 9032WAT     H227339   5.115   1.728   1.269
 9033WAT      O27340   3.007   9.716   5.816
 9033WAT     H127341   3.092   9.717   5.869
 9033WAT     H227342   2.994   9.626   5.775
 9034WAT      O27343   0.522   4.598   8.207
 9034WAT     H127344   0.503   4.604   8.109
 9034WAT     H227345   0.621   4.589   8.221
 9035WAT      O27346   9.750   0.380   2.741
 9035WAT     H127347   9.841   0.392   2.779
 9035WAT     H227348   9.714   0.290   2.768
 9036WAT      O27349   8.153   2.661   1.080
 9036WAT     H127350   8.115   2.630   1.168
 9036WAT     H227351   8.221   2.595   1.048
 9037WAT      O27352   3.742   3.420   1.812
 9037WAT     H127353   3.717   3.324   1.824
 9037WAT     H227354   3.673   3.478   1.855
 9038WAT      O27355   2.310   7.141   5.668
 9038WAT     H127356   2.329   7.048   5.637
 9038WAT     H227357   2.226   7.142   5.723
 9039WAT      O27358   0.514   5.495   9.331
 9039WAT     H127359   0.492   5.549   9.412
 9039WAT     H227360   0.506   5.397   9.352
 9040WAT      O27361   5.405   0.859   1.386
 9040WAT     H127362   5.314   0.844   1.424
 9040WAT     H227363   5.433   0.777   1.335
 9041WAT      O27364   3.645   8.737   7.316
 9041WAT     H127365   3.595   8.718   7.400
 9041WAT     H227366   3.630   8.663   7.251
 9042WAT      O27367   4.776   7.862   6.262
 9042WAT     H127368   4.761   7.912   6.176
 9042WAT     H227369   4.692   7.862   6.316
 9043WAT      O27370   8.935   2.374   7.246
 9043WAT     H127371   9.016   2.433   7.244
 9043WAT     H227372   8.914   2.350   7.341
 9044WAT      O27373   8.271   7.384   7.800
 9044WAT     H127374   8.318   7.359   7.716
 9044WAT     H227375   8.335   7.377   7.877
 9045WAT      O27376   1.870   6.391   5.471
 9045WAT     H127377   1.960   6.352   5.451
 9045WAT     H227378   1.851   6.466   5.408
 9046WAT      O27379   3.401   6.726   3.665
 9046WAT     H127380   3.469   6.769   3.724
 9046WAT     H227381   3.381   6.634   3.698
 9047WAT      O27382   6.891   0.231   8.509
 9047WAT     H127383   6.988   0.252   8.508
 9047WAT     H227384   6.840   0.307   8.469
 9048WAT      O27385   2.512   2.957   9.518
 9048WAT     H127386   2.560   2.942   9.431
 9048WAT     H227387   2.491   2.868   9.560
 9049WAT      O27388   8.737   8.827   7.311
 9049WAT     H127389   8.808   8.894   7.329
 9049WAT     H227390   8.709   8.833   7.215
 9050WAT      O27391   1.588   6.114   4.978
 9050WAT     H127392   1.497   6.153   4.990
 9050WAT     H227393   1.589   6.055   4.898
 9051WAT      O27394   4.757   4.025   7.122
 9051WAT     H127395   4.739   3.969   7.203
 9051WAT     H227396   4.766   4.121   7.149
 9052WAT      O27397   8.501   2.536   6.756
 9052WAT     H127398   8.423   2.578   6.711
 9052WAT     H227399   8.516   2.580   6.845
 9053WAT      O27400   2.554   0.609   2.984
 9053WAT     H127401   2.649   0.602   2.955
 9053WAT     H227402   2.533   0.704   3.008
 9054WAT      O27403   3.442   3.859   0.267
 9054WAT     H127404   3.489   3.828   0.185
 9054WAT     H227405   3.348   3.886   0.243
 9055WAT      O27406   1.366   9.122   5.535
 9055WAT     H127407   1.411   9.125   5.445
 9055WAT     H227408   1.333   9.213   5.558
 9056WAT      O27409   4.796   0.468   8.100
 9056WAT     H127410   4.806   0.542   8.033
 9056WAT     H227411   4.858   0.393   8.076
 9057WAT      O27412   2.735   4.555   6.857
 9057WAT     H127413   2.792   4.628   6.818
 9057WAT     H227414   2.759   4.468   6.815
 9058WAT      O27415   6.845   1.334   5.671
 9058WAT     H127416   6.933   1.286   5.677
 9058WAT     H227417   6.827   1.357   5.575
 9059WAT      O27418   1.552   4.054   1.899
 9059WAT     H127419   1.523   4.141   1.938
 9059WAT     H227420   1.476   3.988   1.904
 9060WAT      O27421   7.539   9.403   4.732
 9060WAT     H127422   7.456   9.427   4.782
 9060WAT     H227423   7.596   9.343   4.789
 9061WAT      O27424   5.873   0.427   8.294
 9061WAT     H127425   5.971   0.444   8.310
 9061WAT     H227426   5.855   0.431   8.196
 9062WAT      O27427   2.809   5.753   6.911
 9062WAT     H127428   2.826   5.679   6.846
 9062WAT     H227429   2.888   5.764   6.970
 9063WAT      O27430   6.015   1.790   3.839
 9063WAT     H127431   5.999   1.885   3.866
 9063WAT     H227432   6.056   1.787   3.748
 9064WAT      O27433   2.238   9.675   2.447
 9064WAT     H127434   2.228   9.672   2.546
 9064WAT     H227435   2.220   9.584   2.409
 9065WAT      O27436   4.533   6.704   8.049
 9065WAT     H127437   4.474   6.626   8.025
 9065WAT     H227438   4.597   6.676   8.119
 9066WAT      O27439   9.147   4.864   2.375
 9066WAT     H127440   9.173   4.936   2.311
 9066WAT     H227441   9.229   4.834   2.425
 9067WAT      O27442   1.550   2.292   7.362
 9067WAT     H127443   1.540   2.385   7.328
 9067WAT     H227444   1.560   2.294   7.462
 9068WAT      O27445   7.816   7.209   4.805
 9068WAT     H127446   7.765   7.237   4.886
 9068WAT     H227447   7.871   7.128   4.826
 9069WAT      O27448   7.300   6.795   0.569
 9069WAT     H127449   7.273   6.704   0.538
 9069WAT     H227450   7.328   6.790   0.665
 9070WAT      O27451   4.555   5.880   1.065
 9070WAT     H127452   4.653   5.880   1.083
 9070WAT     H227453   4.525   5.787   1.043
 9071WAT      O27454   5.007   5.131   8.468
 9071WAT     H127455   5.075   5.129   8.394
 9071WAT     H227456   5.043   5.185   8.544
 9072WAT      O27457   9.332   8.528   6.870
 9072WAT     H127458   9.269   8.605   6.884
 9072WAT     H227459   9.336   8.473   6.954
 9073WAT      O27460   3.770   7.710   7.888
 9073WAT     H127461   3.678   7.737   7.859
 9073WAT     H227462   3.818   7.790   7.924
 9074WAT      O27463   4.070   0.755   5.436
 9074WAT     H127464   4.018   0.700   5.501
 9074WAT     H227465   4.079   0.706   5.350
 9075WAT      O27466   1.837   0.883   4.416
 9075WAT     H127467   1.928   0.874   4.457
 9075WAT     H227468   1.825   0.975   4.380
 9076WAT      O27469   6.111   1.941   7.941
 9076WAT     H127470   6.061   1.855   7.931
 9076WAT     H227471   6.173   1.934   8.019
 9077WAT      O27472   4.505   2.648   3.440
 9077WAT     H127473   4.547   2.722   3.387
 9077WAT     H227474   4.553   2.563   3.422
 9078WAT      O27475   8.180   4.270   2.681
 9078WAT     H127476   8.199   4.368   2.667
 9078WAT     H227477   8.082   4.256   2.691
 9079WAT      O27478   6.197   6.512   4.162
 9079WAT     H127479   6.261   6.578   4.122
 9079WAT     H227480   6.219   6.500   4.259
 9080WAT      O27481   1.926   7.210   0.931
 9080WAT     H127482   1.848   7.246   0.983
 9080WAT     H227483   2.011   7.233   0.978
 9081WAT      O27484   9.481   6.577   6.441
 9081WAT     H127485   9.422   6.503   6.472
 9081WAT     H227486   9.486   6.648   6.512
 9082WAT      O27487   6.070   2.512   1.010
 9082WAT     H127488   5.971   2.499   1.000
 9082WAT     H227489   6.099   2.592   0.958
 9083WAT      O27490   6.588   0.963   4.066
 9083WAT     H127491   6.543   1.051   4.076
 9083WAT     H227492   6.677   0.966   4.112
 9084WAT      O27493   1.746   0.724   0.777
 9084WAT     H127494   1.663   0.707   0.724
 9084WAT     H227495   1.740   0.675   0.864
 9085WAT      O27496   7.277   6.575   4.820
 9085WAT     H127497   7.336   6.504   4.859
 9085WAT     H227498   7.235   6.627   4.894
 9086WAT      O27499   2.267   4.009   5.196
 9086WAT     H127500   2.361   4.019   5.227
 9086WAT     H227501   2.204   4.039   5.269
 9087WAT      O27502   8.897   8.825   0.221
 9087WAT     H127503   8.871   8.867   0.134
 9087WAT     H227504   8.996   8.831   0.233
 9088WAT      O27505   2.412   1.662   6.365
 9088WAT     H127506   2.453   1.571   6.368
 9088WAT     H227507   2.378   1.686   6.457
 9089WAT      O27508   7.354   8.826   5.186
 9089WAT     H127509   7.349   8.775   5.100
 9089WAT     H227510   7.286   8.791   5.250
 9090WAT      O27511   0.997   1.338   3.057
 9090WAT     H127512   1.023   1.370   3.148
 9090WAT     H227513   1.018   1.409   2.989
 9091WAT      O27514   4.719   5.992   9.719
 9091WAT     H127515   4.644   5.997   9.785
 9091WAT     H227516   4.690   6.034   9.633
 9092WAT      O27517   6.437   5.184   8.928
 9092WAT     H127518   6.486   5.097   8.930
 9092WAT     H227519   6.376   5.186   8.849
 9093WAT      O27520   4.929   9.517   1.580
 9093WAT     H127521   5.004   9.469   1.626
 9093WAT     H227522   4.967   9.596   1.530
 9094WAT      O27523   2.709   1.816   5.746
 9094WAT     H127524   2.685   1.821   5.649
 9094WAT     H227525   2.665   1.891   5.796
 9095WAT      O27526   6.148   5.008   3.260
 9095WAT     H127527   6.238   4.985   3.221
 9095WAT     H227528   6.108   4.925   3.300
 9096WAT      O27529   7.903   8.473   6.887
 9096WAT     H127530   7.991   8.456   6.930
 9096WAT     H227531   7.917   8.496   6.791
 9097WAT      O27532   8.927   8.873   8.920
 9097WAT     H127533   8.874   8.924   8.852
 9097WAT     H227534   8.955   8.934   8.993
 9098WAT      O27535   6.853   7.909   1.956
 9098WAT     H127536   6.830   7.970   1.880
 9098WAT     H227537   6.771   7.859   1.984
 9099WAT      O27538   5.335   5.259   9.808
 9099WAT     H127539   5.391   5.216   9.737
 9099WAT     H227540   5.386   5.336   9.847
 9100WAT      O27541   5.380   0.744   7.851
 9100WAT     H127542   5.329   0.830   7.855
 9100WAT     H227543   5.419   0.724   7.940
 9101WAT      O27544   2.955   2.664   8.503
 9101WAT     H127545   2.925   2.734   8.568
 9101WAT     H227546   2.894   2.663   8.424
 9102WAT      O27547   0.223   2.188   1.483
 9102WAT     H127548   0.237   2.286   1.467
 9102WAT     H227549   0.260   2.136   1.407
 9103WAT      O27550   6.694   0.853   0.216
 9103WAT     H127551   6.790   0.829   0.231
 9103WAT     H227552   6.689   0.944   0.174
 9104WAT      O27553   3.888   8.180   8.153
 9104WAT     H127554   3.868   8.264   8.203
 9104WAT     H227555   3.982   8.151   8.173
 9105WAT      O27556   6.845   1.185   3.867
 9105WAT     H127557   6.779   1.247   3.910
 9105WAT     H227558   6.904   1.145   3.937
 9106WAT      O27559   1.332   7.831   2.342
 9106WAT     H127560   1.348   7.773   2.422
 9106WAT     H227561   1.268   7.904   2.366
 9107WAT      O27562   8.374   5.191   1.239
 9107WAT     H127563   8.366   5.094   1.261
 9107WAT     H227564   8.432   5.236   1.307
 9108WAT      O27565   3.407   8.349   0.876
 9108WAT     H127566   3.397   8.389   0.785
 9108WAT     H227567   3.321   8.306   0.904
 9109WAT      O27568   1.033   3.237   2.436
 9109WAT     H127569   1.118   3.223   2.488
 9109WAT     H227570   1.017   3.334   2.424
 9110WAT      O27571   6.276   9.415   3.632
 9110WAT     H127572   6.334   9.455   3.561
 9110WAT     H227573   6.291   9.464   3.718
 9111WAT      O27574   7.635   9.690   2.587
 9111WAT     H127575   7.630   9.689   2.687
 9111WAT     H227576   7.676   9.606   2.555
 9112WAT      O27577   7.266   8.024   9.029
 9112WAT     H127578   7.301   8.000   8.938
 9112WAT     H227579   7.195   7.957   9.055
 9113WAT      O27580   2.018   5.342   4.449
 9113WAT     H127581   2.107   5.296   4.440
 9113WAT     H227582   1.945   5.274   4.445
 9114WAT      O27583   0.947   3.302   4.761
 9114WAT     H127584   0.871   3.367   4.753
 9114WAT     H227585   1.027   3.350   4.796
 9115WAT      O27586   1.116   1.744   7.914
 9115WAT     H127587   1.109   1.842   7.901
 9115WAT     H227588   1.211   1.720   7.938
 9116WAT      O27589   5.052   8.676   6.294
 9116WAT     H127590   5.138   8.688   6.344
 9116WAT     H227591   5.056   8.725   6.207
 9117WAT      O27592   1.116   7.273   0.062
 9117WAT     H127593   1.053   7.344   0.032
 9117WAT     H227594   1.158   7.229  -0.017
 9118WAT      O27595   7.695   7.825   4.816
 9118WAT     H127596   7.633   7.861   4.886
 9118WAT     H227597   7.647   7.819   4.729
 9119WAT      O27598   3.402   2.999   0.444
 9119WAT     H127599   3.380   3.024   0.350
 9119WAT     H227600   3.475   2.929   0.444
 9120WAT      O27601   1.912   7.714   9.731
 9120WAT     H127602   1.953   7.695   9.821
 9120WAT     H227603   1.878   7.629   9.692
 9121WAT      O27604   4.723   7.250   1.217
 9121WAT     H127605   4.724   7.320   1.146
 9121WAT     H227606   4.816   7.214   1.229
 9122WAT      O27607   9.868   8.397   3.599
 9122WAT     H127608   9.863   8.496   3.584
 9122WAT     H227609   9.946   8.360   3.549
 9123WAT      O27610   4.526   9.610   2.046
 9123WAT     H127611   4.616   9.640   2.077
 9123WAT     H227612   4.512   9.639   1.952
 9124WAT      O27613   1.277   6.638   5.479
 9124WAT     H127614   1.251   6.587   5.397
 9124WAT     H227615   1.213   6.714   5.492
 9125WAT      O27616   6.405   8.824   8.036
 9125WAT     H127617   6.497   8.784   8.034
 9125WAT     H227618   6.337   8.753   8.018
 9126WAT      O27619   5.636   4.949   0.714
 9126WAT     H127620   5.545   4.914   0.691
 9126WAT     H227621   5.648   4.949   0.813
 9127WAT      O27622   4.160   4.047   9.479
 9127WAT     H127623   4.249   4.085   9.508
 9127WAT     H227624   4.116   4.004   9.557
 9128WAT      O27625   9.414   0.570   4.267
 9128WAT     H127626   9.506   0.546   4.297
 9128WAT     H227627   9.386   0.656   4.310
 9129WAT      O27628   2.755   4.632   8.710
 9129WAT     H127629   2.703   4.558   8.667
 9129WAT     H227630   2.693   4.705   8.738
 9130WAT      O27631   1.364   2.971   7.205
 9130WAT     H127632   1.305   2.947   7.129
 9130WAT     H227633   1.439   3.028   7.173
 9131WAT      O27634   0.249   4.271   1.242
 9131WAT     H127635   0.314   4.321   1.186
 9131WAT     H227636   0.226   4.184   1.198
 9132WAT      O27637   6.866   1.041   4.139
 9132WAT     H127638   6.934   0.968   4.135
 9132WAT     H227639   6.899   1.114   4.199
 9133WAT      O27640   4.160   1.230   5.773
 9133WAT     H127641   4.146   1.132   5.768
 9133WAT     H227642   4.223   1.259   5.701
 9134WAT      O27643   3.156   4.996   4.781
 9134WAT     H127644   3.121   4.978   4.689
 9134WAT     H227645   3.080   5.020   4.841
 9135WAT      O27646   2.952   0.248   8.595
 9135WAT     H127647   2.967   0.175   8.662
 9135WAT     H227648   2.974   0.214   8.504
 9136WAT      O27649   5.476   2.495   6.810
 9136WAT     H127650   5.576   2.489   6.806
 9136WAT     H227651   5.450   2.582   6.852
 9137WAT      O27652   4.466   5.734   3.748
 9137WAT     H127653   4.443   5.801   3.676
 9137WAT     H227654   4.523   5.662   3.709
 9138WAT      O27655   4.944   3.789   8.226
 9138WAT     H127656   4.933   3.699   8.267
 9138WAT     H227657   4.958   3.780   8.128
 9139WAT      O27658   3.757   8.023   8.428
 9139WAT     H127659   3.850   8.054   8.449
 9139WAT     H227660   3.759   7.927   8.400
 9140WAT      O27661   5.645   1.030   2.285
 9140WAT     H127662   5.719   0.978   2.242
 9140WAT     H227663   5.560   1.016   2.234
 9141WAT      O27664   2.957   2.596   6.544
 9141WAT     H127665   3.011   2.563   6.466
 9141WAT     H227666   3.010   2.585   6.628
 9142WAT      O27667   6.226   7.422   0.291
 9142WAT     H127668   6.261   7.506   0.250
 9142WAT     H227669   6.172   7.445   0.372
 9143WAT      O27670   0.464   8.557   9.198
 9143WAT     H127671   0.407   8.512   9.130
 9143WAT     H227672   0.408   8.584   9.276
 9144WAT      O27673   0.071   4.654   1.244
 9144WAT     H127674   0.058   4.725   1.174
 9144WAT     H227675   0.069   4.696   1.335
 9145WAT      O27676   9.438   7.275   8.356
 9145WAT     H127677   9.352   7.257   8.308
 9145WAT     H227678   9.441   7.370   8.385
 9146WAT      O27679   0.112   1.014   8.630
 9146WAT     H127680   0.107   1.035   8.728
 9146WAT     H227681   0.203   1.038   8.596
 9147WAT      O27682   1.010   8.408   4.955
 9147WAT     H127683   0.915   8.437   4.942
 9147WAT     H227684   1.066   8.444   4.881
 9148WAT      O27685   6.467   8.265   6.205
 9148WAT     H127686   6.533   8.340   6.211
 9148WAT     H227687   6.374   8.301   6.213
 9149WAT      O27688   3.764   9.469   3.757
 9149WAT     H127689   3.802   9.510   3.674
 9149WAT     H227690   3.775   9.370   3.753
 9150WAT      O27691   9.424   0.831   2.901
 9150WAT     H127692   9.505   0.802   2.851
 9150WAT     H227693   9.398   0.923   2.872
 9151WAT      O27694   5.001   1.231   6.793
 9151WAT     H127695   4.941   1.307   6.768
 9151WAT     H227696   5.007   1.167   6.715
 9152WAT      O27697   2.446   3.247   6.504
 9152WAT     H127698   2.392   3.325   6.535
 9152WAT     H227699   2.502   3.273   6.425
 9153WAT      O27700   8.419   5.679   3.120
 9153WAT     H127701   8.326   5.716   3.126
 9153WAT     H227702   8.471   5.706   3.201
 9154WAT      O27703   2.766   2.074   8.210
 9154WAT     H127704   2.684   2.131   8.199
 9154WAT     H227705   2.803   2.051   8.120
 9155WAT      O27706   2.285   5.157   9.569
 9155WAT     H127707   2.362   5.215   9.595
 9155WAT     H227708   2.228   5.206   9.502
 9156WAT      O27709   9.777   8.293   3.821
 9156WAT     H127710   9.690   8.329   3.857
 9156WAT     H227711   9.805   8.348   3.743
 9157WAT      O27712   8.484   5.557   9.581
 9157WAT     H127713   8.419   5.585   9.511
 9157WAT     H227714   8.560   5.621   9.584
 9158WAT      O27715   5.731   4.442   1.492
 9158WAT     H127716   5.660   4.510   1.510
 9158WAT     H227717   5.729   4.417   1.395
 9159WAT      O27718   3.800   3.556   8.643
 9159WAT     H127719   3.709   3.531   8.610
 9159WAT     H227720   3.827   3.493   8.717
 9160WAT      O27721   7.143   1.607   4.630
 9160WAT     H127722   7.093   1.577   4.549
 9160WAT     H227723   7.208   1.536   4.657
 9161WAT      O27724   6.420   2.217   8.802
 9161WAT     H127725   6.451   2.274   8.726
 9161WAT     H227726   6.321   2.201   8.793
 9162WAT      O27727   1.737   1.413   8.856
 9162WAT     H127728   1.743   1.339   8.789
 9162WAT     H227729   1.710   1.375   8.945
 9163WAT      O27730   6.179   1.225   6.865
 9163WAT     H127731   6.095   1.280   6.866
 9163WAT     H227732   6.256   1.282   6.837
 9164WAT      O27733   3.488   3.181   3.109
 9164WAT     H127734   3.442   3.270   3.119
 9164WAT     H227735   3.546   3.183   3.027
 9165WAT      O27736   5.984   3.362   4.806
 9165WAT     H127737   5.923   3.337   4.881
 9165WAT     H227738   5.935   3.421   4.742
 9166WAT      O27739   1.781   6.297   7.255
 9166WAT     H127740   1.834   6.364   7.202
 9166WAT     H227741   1.840   6.220   7.280
 9167WAT      O27742   6.699   1.215   8.071
 9167WAT     H127743   6.659   1.304   8.049
 9167WAT     H227744   6.707   1.204   8.170
 9168WAT      O27745   3.985   2.181   5.282
 9168WAT     H127746   3.966   2.086   5.305
 9168WAT     H227747   4.016   2.187   5.187
 9169WAT      O27748   5.216   8.019   3.026
 9169WAT     H127749   5.168   8.071   3.096
 9169WAT     H227750   5.174   8.037   2.937
 9170WAT      O27751   6.062   0.104   9.056
 9170WAT     H127752   6.138   0.170   9.057
 9170WAT     H227753   6.031   0.089   8.962
 9171WAT      O27754   4.575   7.672   0.331
 9171WAT     H127755   4.661   7.718   0.351
 9171WAT     H227756   4.539   7.632   0.415
 9172WAT      O27757   0.673   1.953   1.081
 9172WAT     H127758   0.580   1.989   1.077
 9172WAT     H227759   0.739   2.028   1.085
 9173WAT      O27760   5.970   2.614   5.236
 9173WAT     H127761   5.959   2.586   5.331
 9173WAT     H227762   5.892   2.582   5.182
 9174WAT      O27763   6.648   1.899   9.635
 9174WAT     H127764   6.586   1.941   9.701
 9174WAT     H227765   6.739   1.939   9.646
 9175WAT      O27766   4.425   5.840   4.009
 9175WAT     H127767   4.492   5.911   3.987
 9175WAT     H227768   4.443   5.759   3.952
 9176WAT      O27769   8.609   4.213   4.631
 9176WAT     H127770   8.636   4.285   4.695
 9176WAT     H227771   8.530   4.243   4.578
 9177WAT      O27772   6.514   0.584   5.092
 9177WAT     H127773   6.451   0.658   5.116
 9177WAT     H227774   6.583   0.618   5.028
 9178WAT      O27775   2.240   1.366   5.544
 9178WAT     H127776   2.294   1.358   5.628
 9178WAT     H227777   2.302   1.372   5.466
 9179WAT      O27778   3.360   0.791   8.071
 9179WAT     H127779   3.406   0.706   8.097
 9179WAT     H227780   3.412   0.836   7.998
 9180WAT      O27781   7.676   4.181   3.238
 9180WAT     H127782   7.614   4.118   3.191
 9180WAT     H227783   7.624   4.237   3.302
 9181WAT      O27784   8.316   4.170   9.262
 9181WAT     H127785   8.275   4.233   9.328
 9181WAT     H227786   8.347   4.221   9.181
 9182WAT      O27787   4.655   9.590   9.813
 9182WAT     H127788   4.624   9.685   9.816
 9182WAT     H227789   4.753   9.588   9.793
 9183WAT      O27790   3.862   5.404   5.950
 9183WAT     H127791   3.954   5.431   5.979
 9183WAT     H227792   3.827   5.333   6.011
 9184WAT      O27793   6.641   4.840   3.650
 9184WAT     H127794   6.735   4.874   3.647
 9184WAT     H227795   6.579   4.910   3.614
 9185WAT      O27796   2.413   1.410   5.997
 9185WAT     H127797   2.347   1.389   6.070
 9185WAT     H227798   2.482   1.473   6.032
 9186WAT      O27799   9.088   0.615   9.235
 9186WAT     H127800   9.085   0.709   9.269
 9186WAT     H227801   9.003   0.595   9.185
 9187WAT      O27802   9.216   3.210   2.860
 9187WAT     H127803   9.228   3.173   2.952
 9187WAT     H227804   9.298   3.261   2.834
 9188WAT      O27805   3.302   1.894   2.322
 9188WAT     H127806   3.401   1.894   2.337
 9188WAT     H227807   3.284   1.915   2.226
 9189WAT      O27808   3.918   0.612   5.611
 9189WAT     H127809   3.965   0.525   5.594
 9189WAT     H227810   3.821   0.602   5.589
 9190WAT      O27811   6.082   6.729   2.128
 9190WAT     H127812   6.063   6.650   2.186
 9190WAT     H227813   6.157   6.707   2.065
 9191WAT      O27814   1.421   7.877   9.670
 9191WAT     H127815   1.438   7.964   9.624
 9191WAT     H227816   1.336   7.883   9.724
 9192WAT      O27817   5.607   1.953   3.898
 9192WAT     H127818   5.633   2.029   3.959
 9192WAT     H227819   5.674   1.944   3.825
 9193WAT      O27820   3.369   2.993   3.282
 9193WAT     H127821   3.300   3.051   3.325
 9193WAT     H227822   3.433   3.050   3.230
 9194WAT      O27823   4.041   6.282   9.075
 9194WAT     H127824   4.104   6.253   9.002
 9194WAT     H227825   3.957   6.228   9.069
 9195WAT      O27826   2.388   2.520   7.555
 9195WAT     H127827   2.458   2.451   7.536
 9195WAT     H227828   2.432   2.608   7.573
 9196WAT      O27829   1.428   2.561   8.598
 9196WAT     H127830   1.523   2.531   8.599
 9196WAT     H227831   1.425   2.660   8.583
 9197WAT      O27832   1.223   3.844   0.498
 9197WAT     H127833   1.138   3.805   0.535
 9197WAT     H227834   1.265   3.779   0.434
 9198WAT      O27835   2.699   8.740   7.652
 9198WAT     H127836   2.745   8.828   7.667
 9198WAT     H227837   2.763   8.666   7.670
 9199WAT      O27838   5.651   7.974   2.004
 9199WAT     H127839   5.683   7.912   1.933
 9199WAT     H227840   5.681   8.067   1.983
 9200WAT      O27841   5.266   9.549   3.418
 9200WAT     H127842   5.204   9.618   3.383
 9200WAT     H227843   5.307   9.499   3.341
 9201WAT      O27844   9.551   6.357   4.564
 9201WAT     H127845   9.576   6.301   4.644
 9201WAT     H227846   9.458   6.391   4.576
 9202WAT      O27847   0.072   3.592   5.011
 9202WAT     H127848   0.071   3.517   4.944
 9202WAT     H227849   0.049   3.557   5.101
 9203WAT      O27850   3.949   4.781   9.085
 9203WAT     H127851   3.884   4.840   9.132
 9203WAT     H227852   3.986   4.828   9.005
 9204WAT      O27853   8.440   0.899   2.085
 9204WAT     H127854   8.497   0.978   2.063
 9204WAT     H227855   8.437   0.837   2.007
 9205WAT      O27856   7.289   1.676   7.892
 9205WAT     H127857   7.207   1.733   7.889
 9205WAT     H227858   7.268   1.591   7.941
 9206WAT      O27859   4.286   0.508   3.044
 9206WAT     H127860   4.305   0.520   3.141
 9206WAT     H227861   4.303   0.413   3.018
 9207WAT      O27862   6.195   7.110   0.768
 9207WAT     H127863   6.210   7.016   0.736
 9207WAT     H227864   6.197   7.112   0.868
 9208WAT      O27865   9.388   9.563   8.023
 9208WAT     H127866   9.374   9.575   8.122
 9208WAT     H227867   9.484   9.538   8.006
 9209WAT      O27868   1.753   1.690   2.986
 9209WAT     H127869   1.773   1.731   2.896
 9209WAT     H227870   1.839   1.665   3.030
 9210WAT      O27871   7.091   6.009   2.785
 9210WAT     H127872   7.148   5.931   2.811
 9210WAT     H227873   7.007   6.008   2.839
 9211WAT      O27874   0.679   9.148   9.572
 9211WAT     H127875   0.580   9.138   9.566
 9211WAT     H227876   0.721   9.058   9.587
 9212WAT      O27877   8.231   2.265   4.512
 9212WAT     H127878   8.139   2.227   4.523
 9212WAT     H227879   8.252   2.325   4.590
 9213WAT      O27880   3.303   6.286   5.596
 9213WAT     H127881   3.224   6.290   5.535
 9213WAT     H227882   3.385   6.320   5.548
 9214WAT      O27883   1.984   5.043   6.750
 9214WAT     H127884   2.065   5.033   6.693
 9214WAT     H227885   1.988   5.130   6.799
 9215WAT      O27886   6.406   8.070   4.568
 9215WAT     H127887   6.432   7.992   4.511
 9215WAT     H227888   6.363   8.037   4.652
 9216WAT      O27889   5.031   2.062   4.112
 9216WAT     H127890   5.003   1.979   4.063
 9216WAT     H227891   5.046   2.136   4.047
 9217WAT      O27892   7.429   0.258   2.877
 9217WAT     H127893   7.368   0.335   2.865
 9217WAT     H227894   7.454   0.219   2.788
 9218WAT      O27895   6.016   3.035   2.782
 9218WAT     H127896   5.969   2.955   2.818
 9218WAT     H227897   6.035   3.100   2.856
 9219WAT      O27898   3.734   7.754   0.880
 9219WAT     H127899   3.772   7.704   0.801
 9219WAT     H227900   3.685   7.835   0.847
 9220WAT      O27901   9.042   0.711   9.844
 9220WAT     H127902   9.046   0.620   9.885
 9220WAT     H227903   8.959   0.720   9.789
 9221WAT      O27904   3.591   5.053   4.655
 9221WAT     H127905   3.537   5.137   4.649
 9221WAT     H227906   3.680   5.068   4.611
 9222WAT      O27907   7.415   1.605   5.033
 9222WAT     H127908   7.507   1.576   5.007
 9222WAT     H227909   7.365   1.528   5.073
 9223WAT      O27910   0.068   0.125   9.069
 9223WAT     H127911   0.138   0.081   9.013
 9223WAT     H227912  -0.022   0.108   9.028
 9224WAT      O27913   7.534   1.578   7.268
 9224WAT     H127914   7.619   1.535   7.297
 9224WAT     H227915   7.507   1.647   7.335
 9225WAT      O27916   8.288   2.480   7.466
 9225WAT     H127917   8.331   2.396   7.434
 9225WAT     H227918   8.358   2.541   7.503
 9226WAT      O27919   0.921   8.092   4.900
 9226WAT     H127920   0.937   8.013   4.959
 9226WAT     H227921   1.007   8.139   4.883
 9227WAT      O27922   4.473   5.387   0.960
 9227WAT     H127923   4.433   5.324   0.894
 9227WAT     H227924   4.568   5.407   0.934
 9228WAT      O27925   2.182   1.402   0.449
 9228WAT     H127926   2.267   1.368   0.410
 9228WAT     H227927   2.198   1.491   0.493
 9229WAT      O27928   0.060   1.640   5.652
 9229WAT     H127929   0.025   1.586   5.576
 9229WAT     H227930   0.074   1.735   5.622
 9230WAT      O27931   1.106   5.185   9.749
 9230WAT     H127932   1.139   5.126   9.824
 9230WAT     H227933   1.080   5.128   9.671
 9231WAT      O27934   7.553   8.868   3.374
 9231WAT     H127935   7.578   8.912   3.288
 9231WAT     H227936   7.488   8.793   3.356
 9232WAT      O27937   6.403   6.920   7.344
 9232WAT     H127938   6.446   7.009   7.334
 9232WAT     H227939   6.333   6.909   7.273
 9233WAT      O27940   2.107   4.671   4.084
 9233WAT     H127941   2.024   4.719   4.056
 9233WAT     H227942   2.088   4.614   4.164
 9234WAT      O27943   1.567   3.704   3.183
 9234WAT     H127944   1.653   3.742   3.146
 9234WAT     H227945   1.573   3.699   3.282
 9235WAT      O27946   2.984   4.295   9.882
 9235WAT     H127947   3.073   4.250   9.887
 9235WAT     H227948   2.994   4.386   9.841
 9236WAT      O27949   8.377   8.763   9.410
 9236WAT     H127950   8.298   8.818   9.383
 9236WAT     H227951   8.408   8.792   9.501
 9237WAT      O27952   6.260   7.532   8.197
 9237WAT     H127953   6.277   7.614   8.142
 9237WAT     H227954   6.330   7.524   8.268
 9238WAT      O27955   8.711   3.708   4.936
 9238WAT     H127956   8.751   3.731   4.847
 9238WAT     H227957   8.707   3.608   4.945
 9239WAT      O27958   0.013   0.801   1.276
 9239WAT     H127959   0.021   0.892   1.234
 9239WAT     H227960   0.099   0.780   1.323
 9240WAT      O27961   0.546   5.780   1.739
 9240WAT     H127962   0.490   5.699   1.722
 9240WAT     H227963   0.566   5.786   1.837
 9241WAT      O27964   0.222   2.767   9.402
 9241WAT     H127965   0.182   2.752   9.311
 9241WAT     H227966   0.202   2.688   9.461
 9242WAT      O27967   4.042   6.753   7.829
 9242WAT     H127968   3.978   6.764   7.905
 9242WAT     H227969   4.134   6.777   7.859
 9243WAT      O27970   0.606   0.946   6.858
 9243WAT     H127971   0.678   0.961   6.925
 9243WAT     H227972   0.555   1.031   6.843
 9244WAT      O27973   4.779   8.661   5.475
 9244WAT     H127974   4.874   8.632   5.485
 9244WAT     H227975   4.767   8.750   5.518
 9245WAT      O27976   3.761   8.373   6.765
 9245WAT     H127977   3.710   8.289   6.746
 9245WAT     H227978   3.712   8.427   6.832
 9246WAT      O27979   6.229   1.533   9.627
 9246WAT     H127980   6.285   1.602   9.581
 9246WAT     H227981   6.148   1.512   9.572
 9247WAT      O27982   6.803   0.324   9.458
 9247WAT     H127983   6.772   0.367   9.373
 9247WAT     H227984   6.755   0.237   9.471
 9248WAT      O27985   7.456   7.995   7.367
 9248WAT     H127986   7.429   7.980   7.462
 9248WAT     H227987   7.387   8.050   7.320
 9249WAT      O27988   6.836   4.887   0.004
 9249WAT     H127989   6.792   4.856   0.089
 9249WAT     H227990   6.890   4.970   0.023
 9250WAT      O27991   5.025   5.326   1.024
 9250WAT     H127992   5.106   5.315   0.967
 9250WAT     H227993   5.034   5.409   1.079
 9251WAT      O27994   8.023   7.221   4.479
 9251WAT     H127995   8.055   7.205   4.572
 9251WAT     H227996   8.008   7.133   4.433
 9252WAT      O27997   0.380   1.805   6.340
 9252WAT     H127998   0.458   1.855   6.379
 9252WAT     H227999   0.325   1.868   6.285
 9253WAT      O28000   6.992   4.495   7.238
 9253WAT     H128001   7.038   4.486   7.149
 9253WAT     H228002   6.935   4.577   7.237
 9254WAT      O28003   4.877   8.889   9.105
 9254WAT     H128004   4.972   8.897   9.078
 9254WAT     H228005   4.824   8.964   9.065
 9255WAT      O28006   9.447   9.143   2.155
 9255WAT     H128007   9.425   9.220   2.215
 9255WAT     H228008   9.435   9.170   2.060
 9256WAT      O28009   4.557   8.723   8.254
 9256WAT     H128010   4.579   8.684   8.344
 9256WAT     H228011   4.463   8.758   8.255
 9257WAT      O28012   7.556   2.778   2.035
 9257WAT     H128013   7.469   2.814   2.002
 9257WAT     H228014   7.587   2.832   2.113
 9258WAT      O28015   4.587   3.801   0.654
 9258WAT     H128016   4.532   3.870   0.702
 9258WAT     H228017   4.573   3.810   0.555
 9259WAT      O28018   7.950   5.029   1.774
 9259WAT     H128019   7.940   5.096   1.700
 9259WAT     H228020   8.021   4.963   1.751
 9260WAT      O28021   1.021   5.048   0.263
 9260WAT     H128022   0.923   5.062   0.275
 9260WAT     H228023   1.062   5.023   0.350
 9261WAT      O28024   0.927   5.299   0.062
 9261WAT     H128025   1.025   5.319   0.057
 9261WAT     H228026   0.906   5.221   0.002
 9262WAT      O28027   7.781   0.475   9.530
 9262WAT     H128028   7.747   0.556   9.576
 9262WAT     H228029   7.845   0.426   9.590
 9263WAT      O28030   2.774   4.016   0.113
 9263WAT     H128031   2.828   4.090   0.155
 9263WAT     H228032   2.746   4.044   0.021
 9264WAT      O28033   8.070   3.753   0.879
 9264WAT     H128034   8.084   3.687   0.805
 9264WAT     H228035   8.113   3.840   0.854
 9265WAT      O28036   9.688   3.651   2.907
 9265WAT     H128037   9.670   3.599   2.990
 9265WAT     H228038   9.659   3.746   2.921
 9266WAT      O28039   3.944   3.628   4.889
 9266WAT     H128040   3.915   3.628   4.794
 9266WAT     H228041   4.028   3.574   4.899
 9267WAT      O28042   1.449   0.285   6.216
 9267WAT     H128043   1.447   0.313   6.120
 9267WAT     H228044   1.355   0.275   6.249
 9268WAT      O28045   3.470   9.286   2.584
 9268WAT     H128046   3.405   9.362   2.577
 9268WAT     H228047   3.462   9.244   2.675
 9269WAT      O28048   8.600   7.202   0.547
 9269WAT     H128049   8.559   7.259   0.476
 9269WAT     H228050   8.695   7.227   0.560
 9270WAT      O28051   4.748   9.418   6.862
 9270WAT     H128052   4.844   9.416   6.835
 9270WAT     H228053   4.690   9.433   6.782
 9271WAT      O28054   7.085   0.548   1.964
 9271WAT     H128055   7.028   0.519   2.041
 9271WAT     H228056   7.139   0.470   1.931
 9272WAT      O28057   6.955   4.169   8.895
 9272WAT     H128058   6.868   4.163   8.847
 9272WAT     H228059   7.007   4.247   8.861
 9273WAT      O28060   1.551   3.852   9.692
 9273WAT     H128061   1.567   3.923   9.760
 9273WAT     H228062   1.636   3.833   9.642
 9274WAT      O28063   8.233   2.537   6.277
 9274WAT     H128064   8.246   2.569   6.183
 9274WAT     H228065   8.144   2.493   6.285
 9275WAT      O28066   0.689   2.833   1.568
 9275WAT     H128067   0.697   2.888   1.651
 9275WAT     H228068   0.643   2.747   1.590
 9276WAT      O28069   9.149   6.863   2.897
 9276WAT     H128070   9.126   6.959   2.881
 9276WAT     H228071   9.246   6.848   2.878
 9277WAT      O28072   1.194   7.722   2.948
 9277WAT     H128073   1.248   7.648   2.987
 9277WAT     H228074   1.141   7.767   3.020
 9278WAT      O28075   5.855   9.406   0.704
 9278WAT     H128076   5.876   9.446   0.615
 9278WAT     H228077   5.858   9.306   0.698
 9279WAT      O28078   5.326   0.892   2.450
 9279WAT     H128079   5.420   0.889   2.415
 9279WAT     H228080   5.292   0.799   2.462
 9280WAT      O28081   3.303   6.960   7.537
 9280WAT     H128082   3.322   6.890   7.467
 9280WAT     H228083   3.388   7.009   7.559
 9281WAT      O28084   3.989   6.786   2.020
 9281WAT     H128085   4.064   6.821   2.077
 9281WAT     H228086   3.902   6.809   2.063
 9282WAT      O28087   9.107   0.412   5.350
 9282WAT     H128088   9.077   0.407   5.445
 9282WAT     H228089   9.166   0.491   5.337
 9283WAT      O28090   6.336   7.296   3.244
 9283WAT     H128091   6.393   7.228   3.289
 9283WAT     H228092   6.259   7.320   3.303
 9284WAT      O28093   6.060   3.624   3.977
 9284WAT     H128094   6.112   3.579   3.904
 9284WAT     H228095   5.990   3.683   3.936
 9285WAT      O28096   2.793   8.104   2.473
 9285WAT     H128097   2.715   8.059   2.518
 9285WAT     H228098   2.825   8.180   2.530
 9286WAT      O28099   6.284   3.010   7.319
 9286WAT     H128100   6.287   2.965   7.230
 9286WAT     H228101   6.343   3.090   7.318
 9287WAT      O28102   4.149   7.419   9.722
 9287WAT     H128103   4.231   7.440   9.668
 9287WAT     H228104   4.069   7.458   9.678
 9288WAT      O28105   0.987   8.435   1.545
 9288WAT     H128106   1.015   8.341   1.524
 9288WAT     H228107   0.900   8.434   1.593
 9289WAT      O28108   4.290   8.197   4.333
 9289WAT     H128109   4.339   8.161   4.413
 9289WAT     H228110   4.356   8.233   4.267
 9290WAT      O28111   8.351   5.211   3.517
 9290WAT     H128112   8.299   5.151   3.457
 9290WAT     H228113   8.311   5.303   3.515
 9291WAT      O28114   6.745   1.274   2.331
 9291WAT     H128115   6.650   1.276   2.363
 9291WAT     H228116   6.800   1.218   2.393
 9292WAT      O28117   4.249   9.746   1.501
 9292WAT     H128118   4.205   9.777   1.585
 9292WAT     H228119   4.194   9.773   1.422
 9293WAT      O28120   6.488   8.047   6.365
 9293WAT     H128121   6.496   8.129   6.309
 9293WAT     H228122   6.546   7.975   6.329
 9294WAT      O28123   7.824   8.538   1.365
 9294WAT     H128124   7.806   8.573   1.457
 9294WAT     H228125   7.888   8.461   1.371
 9295WAT      O28126   1.090   9.475   6.317
 9295WAT     H128127   1.114   9.571   6.303
 9295WAT     H228128   1.148   9.436   6.389
 9296WAT      O28129   3.577   2.723   3.981
 9296WAT     H128130   3.514   2.770   4.043
 9296WAT     H228131   3.642   2.668   4.034
 9297WAT      O28132   6.681   4.402   2.216
 9297WAT     H128133   6.725   4.330   2.271
 9297WAT     H228134   6.636   4.360   2.137
 9298WAT      O28135   5.523   0.576   9.620
 9298WAT     H128136   5.459   0.616   9.685
 9298WAT     H228137   5.474   0.550   9.536
 9299WAT      O28138   8.758   1.020   9.359
 9299WAT     H128139   8.729   1.093   9.298
 9299WAT     H228140   8.696   0.942   9.350
 9300WAT      O28141   6.497   2.572   0.256
 9300WAT     H128142   6.405   2.535   0.244
 9300WAT     H228143   6.558   2.501   0.291
 9301WAT      O28144   1.226   4.068   7.884
 9301WAT     H128145   1.168   3.992   7.855
 9301WAT     H228146   1.265   4.112   7.804
 9302WAT      O28147   1.595   5.536   5.118
 9302WAT     H128148   1.643   5.624   5.115
 9302WAT     H228149   1.511   5.546   5.172
 9303WAT      O28150   9.589   8.625   8.176
 9303WAT     H128151   9.657   8.671   8.233
 9303WAT     H228152   9.634   8.553   8.123
 9304WAT      O28153   5.450   9.163   1.531
 9304WAT     H128154   5.516   9.177   1.605
 9304WAT     H228155   5.441   9.065   1.513
 9305WAT      O28156   6.306   7.571   7.271
 9305WAT     H128157   6.299   7.671   7.273
 9305WAT     H228158   6.379   7.541   7.332
 9306WAT      O28159   9.846   7.789   4.497
 9306WAT     H128160   9.940   7.778   4.530
 9306WAT     H228161   9.844   7.780   4.398
 9307WAT      O28162   7.396   7.017   1.884
 9307WAT     H128163   7.462   7.008   1.959
 9307WAT     H228164   7.352   7.107   1.889
 9308WAT      O28165   1.404   5.229   8.820
 9308WAT     H128166   1.473   5.185   8.764
 9308WAT     H228167   1.349   5.291   8.763
 9309WAT      O28168   1.266   0.473   4.463
 9309WAT     H128169   1.331   0.545   4.487
 9309WAT     H228170   1.178   0.515   4.438
 9310WAT      O28171   9.084   0.296   9.310
 9310WAT     H128172   9.145   0.348   9.371
 9310WAT     H228173   9.052   0.215   9.358
 9311WAT      O28174   6.669   9.843   6.168
 9311WAT     H128175   6.686   9.793   6.253
 9311WAT     H228176   6.652   9.778   6.094
 9312WAT      O28177   7.108   6.851   4.066
 9312WAT     H128178   7.064   6.784   4.005
 9312WAT     H228179   7.187   6.891   4.020
 9313WAT      O28180   5.288   0.420   1.608
 9313WAT     H128181   5.219   0.394   1.541
 9313WAT     H228182   5.335   0.338   1.641
 9314WAT      O28183   9.423   1.794   7.987
 9314WAT     H128184   9.326   1.777   8.004
 9314WAT     H228185   9.434   1.851   7.906
 9315WAT      O28186   1.055   3.755   8.872
 9315WAT     H128187   1.090   3.788   8.959
 9315WAT     H228188   1.070   3.656   8.865
 9316WAT      O28189   4.655   8.735   9.001
 9316WAT     H128190   4.593   8.809   8.977
 9316WAT     H228191   4.674   8.737   9.099
 9317WAT      O28192   6.689   8.664   7.747
 9317WAT     H128193   6.735   8.734   7.693
 9317WAT     H228194   6.659   8.704   7.834
 9318WAT      O28195   8.054   6.682   6.930
 9318WAT     H128196   8.064   6.752   6.860
 9318WAT     H228197   8.091   6.595   6.896
 9319WAT      O28198   3.180   2.252   7.920
 9319WAT     H128199   3.178   2.247   8.020
 9319WAT     H228200   3.274   2.263   7.889
 9320WAT      O28201   2.779   7.607   5.298
 9320WAT     H128202   2.769   7.703   5.323
 9320WAT     H228203   2.696   7.577   5.250
 9321WAT      O28204   0.776   2.291   1.220
 9321WAT     H128205   0.709   2.243   1.276
 9321WAT     H228206   0.835   2.347   1.278
 9322WAT      O28207   8.720   3.397   2.410
 9322WAT     H128208   8.816   3.424   2.407
 9322WAT     H228209   8.713   3.298   2.421
 9323WAT      O28210   2.505   9.169   3.206
 9323WAT     H128211   2.451   9.208   3.131
 9323WAT     H228212   2.544   9.082   3.178
 9324WAT      O28213   0.730   4.080   9.115
 9324WAT     H128214   0.764   4.010   9.052
 9324WAT     H228215   0.777   4.072   9.203
 9325WAT      O28216   5.878   4.511   1.722
 9325WAT     H128217   5.814   4.544   1.791
 9325WAT     H228218   5.830   4.497   1.635
 9326WAT      O28219   5.838   6.301   7.016
 9326WAT     H128220   5.834   6.378   7.078
 9326WAT     H228221   5.931   6.263   7.014
 9327WAT      O28222   9.873   9.792   8.563
 9327WAT     H128223   9.779   9.817   8.586
 9327WAT     H228224   9.873   9.713   8.503
 9328WAT      O28225   1.129   0.536   6.165
 9328WAT     H128226   1.178   0.549   6.079
 9328WAT     H228227   1.033   0.561   6.153
 9329WAT      O28228   7.955   5.273   7.605
 9329WAT     H128229   7.996   5.299   7.518
 9329WAT     H228230   7.911   5.183   7.596
 9330WAT      O28231   3.400   3.544   3.696
 9330WAT     H128232   3.341   3.622   3.717
 9330WAT     H228233   3.468   3.533   3.769
 9331WAT      O28234   0.445   4.032   2.754
 9331WAT     H128235   0.399   4.121   2.761
 9331WAT     H228236   0.540   4.041   2.782
 9332WAT      O28237   1.254   7.404   8.357
 9332WAT     H128238   1.196   7.335   8.401
 9332WAT     H228239   1.228   7.495   8.390
 9333WAT      O28240   8.480   9.400   6.445
 9333WAT     H128241   8.486   9.310   6.488
 9333WAT     H228242   8.420   9.459   6.500
 9334WAT      O28243   1.660   8.362   9.149
 9334WAT     H128244   1.708   8.277   9.173
 9334WAT     H228245   1.717   8.416   9.087
 9335WAT      O28246   5.204   8.498   1.603
 9335WAT     H128247   5.231   8.536   1.691
 9335WAT     H228248   5.108   8.472   1.606
 9336WAT      O28249   4.316   5.336   3.330
 9336WAT     H128250   4.329   5.385   3.416
 9336WAT     H228251   4.379   5.372   3.261
 9337WAT      O28252   8.103   7.357   2.823
 9337WAT     H128253   8.035   7.414   2.870
 9337WAT     H228254   8.098   7.375   2.724
 9338WAT      O28255   0.197   7.581   4.879
 9338WAT     H128256   0.223   7.501   4.933
 9338WAT     H228257   0.148   7.646   4.938
 9339WAT      O28258   9.539   5.297   2.824
 9339WAT     H128259   9.465   5.343   2.873
 9339WAT     H228260   9.526   5.309   2.725
 9340WAT      O28261   2.776   9.048   6.962
 9340WAT     H128262   2.858   9.009   7.004
 9340WAT     H228263   2.705   8.978   6.958
 9341WAT      O28264   8.542   7.377   4.057
 9341WAT     H128265   8.611   7.308   4.082
 9341WAT     H228266   8.559   7.409   3.964
 9342WAT      O28267   5.999   3.430   5.110
 9342WAT     H128268   5.992   3.515   5.058
 9342WAT     H228269   6.082   3.381   5.083
 9343WAT      O28270   8.874   2.488   8.306
 9343WAT     H128271   8.965   2.499   8.265
 9343WAT     H228272   8.856   2.391   8.321
 9344WAT      O28273   2.791   0.609   9.428
 9344WAT     H128274   2.852   0.617   9.349
 9344WAT     H228275   2.807   0.523   9.475
 9345WAT      O28276   3.202   7.400   2.440
 9345WAT     H128277   3.127   7.354   2.392
 9345WAT     H228278   3.286   7.346   2.430
 9346WAT      O28279   4.763   2.872   6.724
 9346WAT     H128280   4.780   2.904   6.818
 9346WAT     H228281   4.737   2.950   6.667
 9347WAT      O28282   6.337   8.077   5.377
 9347WAT     H128283   6.393   8.054   5.298
 9347WAT     H228284   6.242   8.091   5.348
 9348WAT      O28285   9.757   7.495   5.905
 9348WAT     H128286   9.803   7.444   5.832
 9348WAT     H228287   9.779   7.592   5.897
 9349WAT      O28288   7.530   2.561   7.354
 9349WAT     H128289   7.483   2.631   7.406
 9349WAT     H228290   7.629   2.569   7.368
 9350WAT      O28291   9.164   9.270   6.655
 9350WAT     H128292   9.231   9.342   6.672
 9350WAT     H228293   9.168   9.242   6.559
 9351WAT      O28294   2.930   2.143   1.276
 9351WAT     H128295   2.906   2.182   1.365
 9351WAT     H228296   2.959   2.216   1.214
 9352WAT      O28297   6.182   4.649   2.327
 9352WAT     H128298   6.211   4.733   2.282
 9352WAT     H228299   6.166   4.666   2.424
 9353WAT      O28300   9.023   4.705   1.297
 9353WAT     H128301   9.089   4.637   1.330
 9353WAT     H228302   9.071   4.777   1.247
 9354WAT      O28303   2.425   4.754   7.926
 9354WAT     H128304   2.389   4.737   8.018
 9354WAT     H228305   2.392   4.682   7.864
 9355WAT      O28306   6.079   7.436   4.271
 9355WAT     H128307   5.983   7.439   4.245
 9355WAT     H228308   6.136   7.447   4.189
 9356WAT      O28309   6.650   1.681   9.485
 9356WAT     H128310   6.696   1.614   9.543
 9356WAT     H228311   6.661   1.773   9.524
 9357WAT      O28312   0.988   2.699   9.718
 9357WAT     H128313   0.931   2.755   9.658
 9357WAT     H228314   1.077   2.743   9.731
 9358WAT      O28315   2.132   4.181   4.726
 9358WAT     H128316   2.154   4.197   4.822
 9358WAT     H228317   2.191   4.109   4.690
 9359WAT      O28318   6.458   2.409   1.044
 9359WAT     H128319   6.542   2.361   1.066
 9359WAT     H228320   6.466   2.450   0.953
 9360WAT      O28321   7.217   1.612   6.590
 9360WAT     H128322   7.279   1.648   6.660
 9360WAT     H228323   7.122   1.624   6.620
 9361WAT      O28324   6.884   2.331   1.755
 9361WAT     H128325   6.794   2.287   1.762
 9361WAT     H228326   6.883   2.400   1.684
 9362WAT      O28327   3.781   8.198   0.310
 9362WAT     H128328   3.851   8.129   0.293
 9362WAT     H228329   3.781   8.223   0.407
 9363WAT      O28330   6.341   9.038   0.135
 9363WAT     H128331   6.392   8.954   0.155
 9363WAT     H228332   6.403   9.116   0.134
 9364WAT      O28333   6.935   3.439   9.139
 9364WAT     H128334   6.850   3.456   9.089
 9364WAT     H228335   7.000   3.392   9.079
 9365WAT      O28336   1.365   7.579   4.351
 9365WAT     H128337   1.359   7.548   4.256
 9365WAT     H228338   1.461   7.579   4.380
 9366WAT      O28339   6.294   0.094   4.676
 9366WAT     H128340   6.208   0.066   4.634
 9366WAT     H228341   6.279   0.112   4.773
 9367WAT      O28342   7.268   4.247   5.286
 9367WAT     H128343   7.357   4.204   5.300
 9367WAT     H228344   7.270   4.341   5.320
 9368WAT      O28345   0.760   9.170   3.791
 9368WAT     H128346   0.687   9.236   3.809
 9368WAT     H228347   0.802   9.142   3.877
 9369WAT      O28348   6.929   4.407   2.496
 9369WAT     H128349   6.969   4.473   2.432
 9369WAT     H228350   6.887   4.456   2.573
 9370WAT      O28351   0.544   8.376   0.292
 9370WAT     H128352   0.502   8.376   0.383
 9370WAT     H228353   0.474   8.359   0.222
 9371WAT      O28354   5.052   4.194   0.641
 9371WAT     H128355   5.099   4.119   0.687
 9371WAT     H228356   5.008   4.160   0.558
 9372WAT      O28357   7.864   7.184   7.472
 9372WAT     H128358   7.900   7.251   7.536
 9372WAT     H228359   7.813   7.114   7.523
 9373WAT      O28360   2.381   4.861   0.550
 9373WAT     H128361   2.460   4.809   0.518
 9373WAT     H228362   2.402   4.901   0.640
 9374WAT      O28363   6.796   5.452   5.327
 9374WAT     H128364   6.787   5.461   5.426
 9374WAT     H228365   6.833   5.536   5.288
 9375WAT      O28366   2.245   6.513   3.374
 9375WAT     H128367   2.229   6.586   3.440
 9375WAT     H228368   2.157   6.479   3.339
 9376WAT      O28369   7.344   8.621   6.829
 9376WAT     H128370   7.421   8.570   6.865
 9376WAT     H228371   7.377   8.696   6.772
 9377WAT      O28372   3.612   5.082   7.238
 9377WAT     H128373   3.541   5.045   7.299
 9377WAT     H228374   3.684   5.014   7.226
 9378WAT      O28375   8.945   8.337   2.273
 9378WAT     H128376   8.980   8.243   2.270
 9378WAT     H228377   8.953   8.373   2.366
 9379WAT      O28378   9.203   1.689   7.130
 9379WAT     H128379   9.167   1.632   7.204
 9379WAT     H228380   9.300   1.670   7.116
 9380WAT      O28381   5.775   4.198   7.867
 9380WAT     H128382   5.775   4.236   7.960
 9380WAT     H228383   5.782   4.098   7.873
 9381WAT      O28384   4.420   8.740   6.368
 9381WAT     H128385   4.416   8.647   6.403
 9381WAT     H228386   4.511   8.778   6.386
 9382WAT      O28387   6.237   3.088   9.005
 9382WAT     H128388   6.252   2.998   8.964
 9382WAT     H228389   6.259   3.160   8.939
 9383WAT      O28390   4.507   9.790   1.496
 9383WAT     H128391   4.410   9.765   1.498
 9383WAT     H228392   4.536   9.799   1.400
 9384WAT      O28393   1.932   1.505   6.437
 9384WAT     H128394   1.998   1.565   6.392
 9384WAT     H228395   1.859   1.482   6.373
 9385WAT      O28396   4.439   7.952   6.604
 9385WAT     H128397   4.472   7.866   6.642
 9385WAT     H228398   4.347   7.970   6.638
 9386WAT      O28399   5.008   5.860   5.754
 9386WAT     H128400   4.911   5.842   5.739
 9386WAT     H228401   5.062   5.797   5.697
 9387WAT      O28402   7.138   8.705   3.677
 9387WAT     H128403   7.171   8.658   3.759
 9387WAT     H228404   7.073   8.646   3.628
 9388WAT      O28405   2.858   2.877   8.660
 9388WAT     H128406   2.760   2.872   8.679
 9388WAT     H228407   2.882   2.970   8.632
 9389WAT      O28408   2.589   7.549   6.567
 9389WAT     H128409   2.589   7.570   6.470
 9389WAT     H228410   2.597   7.450   6.580
 9390WAT      O28411   9.851   8.133   7.304
 9390WAT     H128412   9.913   8.210   7.322
 9390WAT     H228413   9.756   8.163   7.312
 9391WAT      O28414   9.444   8.072   2.951
 9391WAT     H128415   9.390   8.027   3.022
 9391WAT     H228416   9.531   8.102   2.990
 9392WAT      O28417   5.429   8.922   8.310
 9392WAT     H128418   5.392   9.008   8.346
 9392WAT     H228419   5.465   8.867   8.386
 9393WAT      O28420   5.633   5.765   9.012
 9393WAT     H128421   5.585   5.678   9.009
 9393WAT     H228422   5.702   5.762   9.085
 9394WAT      O28423   5.643   5.828   2.000
 9394WAT     H128424   5.580   5.798   2.072
 9394WAT     H228425   5.734   5.839   2.039
 9395WAT      O28426   6.345   9.346   4.553
 9395WAT     H128427   6.396   9.286   4.491
 9395WAT     H228428   6.362   9.441   4.527
 9396WAT      O28429   3.496   5.809   2.687
 9396WAT     H128430   3.497   5.709   2.693
 9396WAT     H228431   3.547   5.848   2.763
 9397WAT      O28432   9.718   9.335   6.439
 9397WAT     H128433   9.670   9.275   6.374
 9397WAT     H228434   9.709   9.297   6.531
 9398WAT      O28435   4.999   1.925   8.308
 9398WAT     H128436   5.014   1.826   8.311
 9398WAT     H228437   4.966   1.951   8.218
 9399WAT      O28438   4.145   8.178   3.680
 9399WAT     H128439   4.148   8.104   3.612
 9399WAT     H228440   4.051   8.190   3.712
 9400WAT      O28441   9.734   0.716   0.906
 9400WAT     H128442   9.781   0.804   0.918
 9400WAT     H228443   9.751   0.659   0.986
 9401WAT      O28444   4.701   5.684   7.160
 9401WAT     H128445   4.770   5.717   7.224
 9401WAT     H228446   4.674   5.591   7.184
 9402WAT      O28447   6.674   3.834   8.730
 9402WAT     H128448   6.709   3.808   8.820
 9402WAT     H228449   6.742   3.815   8.660
 9403WAT      O28450   7.028   7.284   2.551
 9403WAT     H128451   7.057   7.366   2.502
 9403WAT     H228452   6.945   7.248   2.508
 9404WAT      O28453   2.490   8.844   6.686
 9404WAT     H128454   2.460   8.815   6.596
 9404WAT     H228455   2.410   8.863   6.744
 9405WAT      O28456   7.595   3.594   0.582
 9405WAT     H128457   7.688   3.612   0.614
 9405WAT     H228458   7.548   3.536   0.649
 9406WAT      O28459   1.148   2.637   3.255
 9406WAT     H128460   1.089   2.716   3.242
 9406WAT     H228461   1.092   2.556   3.272
 9407WAT      O28462   2.291   0.458   7.010
 9407WAT     H128463   2.362   0.427   6.946
 9407WAT     H228464   2.201   0.443   6.969
 9408WAT      O28465   2.915   0.242   2.269
 9408WAT     H128466   2.945   0.217   2.361
 9408WAT     H228467   2.960   0.327   2.241
 9409WAT      O28468   3.411   0.145   8.628
 9409WAT     H128469   3.459   0.202   8.561
 9409WAT     H228470   3.322   0.119   8.592
 9410WAT      O28471   6.962   7.139   1.167
 9410WAT     H128472   6.935   7.180   1.255
 9410WAT     H228473   6.987   7.211   1.103
 9411WAT      O28474   4.179   6.416   4.357
 9411WAT     H128475   4.261   6.365   4.332
 9411WAT     H228476   4.155   6.398   4.452
 9412WAT      O28477   8.002   1.879   3.835
 9412WAT     H128478   7.963   1.844   3.920
 9412WAT     H228479   8.047   1.966   3.853
 9413WAT      O28480   1.568   5.098   9.229
 9413WAT     H128481   1.537   5.035   9.158
 9413WAT     H228482   1.496   5.110   9.297
 9414WAT      O28483   7.573   7.225   1.556
 9414WAT     H128484   7.477   7.218   1.582
 9414WAT     H228485   7.605   7.318   1.574
 9415WAT      O28486   3.028   9.614   2.902
 9415WAT     H128487   3.118   9.591   2.938
 9415WAT     H228488   2.995   9.538   2.844
 9416WAT      O28489   8.932   1.896   9.543
 9416WAT     H128490   8.959   1.920   9.636
 9416WAT     H228491   8.834   1.913   9.532
 9417WAT      O28492   7.701   3.926   3.836
 9417WAT     H128493   7.624   3.987   3.851
 9417WAT     H228494   7.727   3.884   3.923
 9418WAT      O28495   0.493   6.553   7.425
 9418WAT     H128496   0.481   6.644   7.466
 9418WAT     H228497   0.435   6.544   7.344
 9419WAT      O28498   8.115   2.566   6.670
 9419WAT     H128499   8.134   2.480   6.623
 9419WAT     H228500   8.064   2.548   6.754
 9420WAT      O28501   5.039   0.889   4.582
 9420WAT     H128502   4.999   0.980   4.568
 9420WAT     H228503   4.969   0.820   4.565
 9421WAT      O28504   1.131   3.159   8.666
 9421WAT     H128505   1.079   3.238   8.633
 9421WAT     H228506   1.068   3.084   8.688
 9422WAT      O28507   1.262   0.760   6.533
 9422WAT     H128508   1.273   0.845   6.482
 9422WAT     H228509   1.321   0.690   6.494
 9423WAT      O28510   5.440   0.158   2.417
 9423WAT     H128511   5.468   0.116   2.504
 9423WAT     H228512   5.407   0.088   2.355
 9424WAT      O28513   7.518   0.392   2.405
 9424WAT     H128514   7.583   0.318   2.391
 9424WAT     H228515   7.523   0.455   2.327
 9425WAT      O28516   2.908   8.775   5.247
 9425WAT     H128517   2.817   8.805   5.275
 9425WAT     H228518   2.936   8.697   5.302
 9426WAT      O28519   0.124   4.181   8.254
 9426WAT     H128520   0.098   4.115   8.325
 9426WAT     H228521   0.120   4.273   8.291
 9427WAT      O28522   0.727   3.925   7.368
 9427WAT     H128523   0.766   3.851   7.313
 9427WAT     H228524   0.629   3.912   7.378
 9428WAT      O28525   1.701   2.939   9.450
 9428WAT     H128526   1.673   2.933   9.546
 9428WAT     H228527   1.637   2.997   9.399
 9429WAT      O28528   9.278   4.915   6.983
 9429WAT     H128529   9.250   5.011   6.974
 9429WAT     H228530   9.350   4.908   7.052
 9430WAT      O28531   6.830   8.054   0.412
 9430WAT     H128532   6.824   8.112   0.493
 9430WAT     H228533   6.842   8.111   0.331
 9431WAT      O28534   4.953   0.992   3.127
 9431WAT     H128535   4.979   1.081   3.164
 9431WAT     H228536   4.862   0.999   3.085
 9432WAT      O28537   4.382   2.411   7.555
 9432WAT     H128538   4.479   2.401   7.575
 9432WAT     H228539   4.346   2.326   7.517
 9433WAT      O28540   5.390   2.754   5.348
 9433WAT     H128541   5.474   2.743   5.403
 9433WAT     H228542   5.380   2.850   5.323
 9434WAT      O28543   1.852   9.450   2.989
 9434WAT     H128544   1.888   9.432   2.897
 9434WAT     H228545   1.881   9.540   3.020
 9435WAT      O28546   4.736   3.723   7.789
 9435WAT     H128547   4.735   3.740   7.690
 9435WAT     H228548   4.645   3.740   7.826
 9436WAT      O28549   4.022   0.370   4.054
 9436WAT     H128550   3.928   0.364   4.021
 9436WAT     H228551   4.077   0.423   3.989
 9437WAT      O28552   8.481   5.827   4.095
 9437WAT     H128553   8.557   5.884   4.124
 9437WAT     H228554   8.472   5.832   3.995
 9438WAT      O28555   7.446   0.591   9.849
 9438WAT     H128556   7.447   0.504   9.898
 9438WAT     H228557   7.455   0.666   9.914
 9439WAT      O28558   9.799   2.626   1.656
 9439WAT     H128559   9.743   2.616   1.738
 9439WAT     H228560   9.750   2.680   1.588
 9440WAT      O28561   1.023   8.444   0.321
 9440WAT     H128562   1.025   8.344   0.309
 9440WAT     H228563   0.996   8.486   0.234
 9441WAT      O28564   5.568   4.949   8.361
 9441WAT     H128565   5.650   4.960   8.417
 9441WAT     H228566   5.528   5.039   8.342
 9442WAT      O28567   1.568   9.716   5.418
 9442WAT     H128568   1.512   9.680   5.493
 9442WAT     H228569   1.612   9.801   5.448
 9443WAT      O28570   1.183   4.072   4.920
 9443WAT     H128571   1.129   4.154   4.938
 9443WAT     H228572   1.232   4.045   5.003
 9444WAT      O28573   1.581   2.362   5.390
 9444WAT     H128574   1.614   2.448   5.349
 9444WAT     H228575   1.657   2.314   5.434
 9445WAT      O28576   0.424   5.486   1.168
 9445WAT     H128577   0.339   5.518   1.127
 9445WAT     H228578   0.451   5.400   1.126
 9446WAT      O28579   2.342   0.035   2.272
 9446WAT     H128580   2.314  -0.033   2.340
 9446WAT     H228581   2.403   0.102   2.315
 9447WAT      O28582   1.455   6.509   4.316
 9447WAT     H128583   1.426   6.503   4.220
 9447WAT     H228584   1.544   6.553   4.321
 9448WAT      O28585   6.091   7.781   2.591
 9448WAT     H128586   6.050   7.787   2.682
 9448WAT     H228587   6.138   7.867   2.569
 9449WAT      O28588   2.667   5.208   2.936
 9449WAT     H128589   2.676   5.143   2.861
 9449WAT     H228590   2.622   5.291   2.903
 9450WAT      O28591   6.756   6.723   6.239
 9450WAT     H128592   6.699   6.672   6.303
 9450WAT     H228593   6.802   6.797   6.288
 9451WAT      O28594   4.008   8.835   9.255
 9451WAT     H128595   4.077   8.780   9.208
 9451WAT     H228596   4.050   8.887   9.328
 9452WAT      O28597   0.679   4.885   4.335
 9452WAT     H128598   0.731   4.862   4.417
 9452WAT     H228599   0.736   4.871   4.254
 9453WAT      O28600   5.502   9.536   4.420
 9453WAT     H128601   5.576   9.528   4.353
 9453WAT     H228602   5.461   9.446   4.436
 9454WAT      O28603   4.641   5.191   9.445
 9454WAT     H128604   4.631   5.158   9.351
 9454WAT     H228605   4.687   5.280   9.444
 9455WAT      O28606   5.087   7.202   0.963
 9455WAT     H128607   5.087   7.140   1.042
 9455WAT     H228608   5.142   7.161   0.889
 9456WAT      O28609   9.461   6.528   8.658
 9456WAT     H128610   9.468   6.429   8.640
 9456WAT     H228611   9.535   6.556   8.718
 9457WAT      O28612   3.575   7.449   1.142
 9457WAT     H128613   3.665   7.486   1.121
 9457WAT     H228614   3.583   7.381   1.215
 9458WAT      O28615   5.515   1.672   5.192
 9458WAT     H128616   5.500   1.771   5.185
 9458WAT     H228617   5.532   1.635   5.101
 9459WAT      O28618   0.201   5.618   1.096
 9459WAT     H128619   0.184   5.620   0.998
 9459WAT     H228620   0.206   5.711   1.131
 9460WAT      O28621   9.429   6.465   1.953
 9460WAT     H128622   9.381   6.441   2.038
 9460WAT     H228623   9.521   6.427   1.955
 9461WAT      O28624   0.138   7.201   0.856
 9461WAT     H128625   0.107   7.120   0.807
 9461WAT     H228626   0.086   7.211   0.940
 9462WAT      O28627   5.492   6.233   8.879
 9462WAT     H128628   5.489   6.137   8.905
 9462WAT     H228629   5.399   6.269   8.871
 9463WAT      O28630   8.444   9.170   2.531
 9463WAT     H128631   8.474   9.106   2.460
 9463WAT     H228632   8.344   9.173   2.533
 9464WAT      O28633   2.898   4.698   8.967
 9464WAT     H128634   2.913   4.632   9.040
 9464WAT     H228635   2.873   4.650   8.883
 9465WAT      O28636   5.499   8.653   9.025
 9465WAT     H128637   5.463   8.568   8.985
 9465WAT     H228638   5.550   8.631   9.109
 9466WAT      O28639   3.662   5.709   8.395
 9466WAT     H128640   3.563   5.722   8.391
 9466WAT     H228641   3.685   5.653   8.474
 9467WAT      O28642   4.186   2.041   3.345
 9467WAT     H128643   4.144   2.128   3.370
 9467WAT     H228644   4.258   2.019   3.411
 9468WAT      O28645   4.260   5.924   0.121
 9468WAT     H128646   4.218   5.848   0.171
 9468WAT     H228647   4.322   5.973   0.180
 9469WAT      O28648   3.746   8.933   6.715
 9469WAT     H128649   3.690   8.953   6.635
 9469WAT     H228650   3.797   8.848   6.701
 9470WAT      O28651   8.382   1.190   3.038
 9470WAT     H128652   8.409   1.280   3.003
 9470WAT     H228653   8.355   1.199   3.134
 9471WAT      O28654   9.514   4.506   7.144
 9471WAT     H128655   9.436   4.463   7.190
 9471WAT     H228656   9.584   4.437   7.127
 9472WAT      O28657   7.554   3.810   5.820
 9472WAT     H128658   7.642   3.847   5.789
 9472WAT     H228659   7.544   3.827   5.918
 9473WAT      O28660   2.376   9.541   9.834
 9473WAT     H128661   2.450   9.476   9.852
 9473WAT     H228662   2.381   9.617   9.898
 9474WAT      O28663   5.736   2.451   6.828
 9474WAT     H128664   5.729   2.532   6.886
 9474WAT     H228665   5.796   2.383   6.871
 9475WAT      O28666   0.807   1.961   1.616
 9475WAT     H128667   0.822   1.959   1.517
 9475WAT     H228668   0.770   2.050   1.642
 9476WAT      O28669   1.183   0.321   6.352
 9476WAT     H128670   1.161   0.393   6.286
 9476WAT     H228671   1.196   0.362   6.443
 9477WAT      O28672   5.235   1.151   1.097
 9477WAT     H128673   5.271   1.219   1.033
 9477WAT     H228674   5.141   1.127   1.071
 9478WAT      O28675   7.477   5.400   0.768
 9478WAT     H128676   7.443   5.316   0.726
 9478WAT     H228677   7.534   5.377   0.847
 9479WAT      O28678   6.918   9.125   4.875
 9479WAT     H128679   6.957   9.137   4.967
 9479WAT     H228680   6.909   9.214   4.831
 9480WAT      O28681   3.091   1.275   4.489
 9480WAT     H128682   3.009   1.244   4.440
 9480WAT     H228683   3.065   1.302   4.582
 9481WAT      O28684   4.863   7.950   2.486
 9481WAT     H128685   4.886   7.861   2.446
 9481WAT     H228686   4.887   8.023   2.422
 9482WAT      O28687   1.732   9.536   2.015
 9482WAT     H128688   1.643   9.574   2.041
 9482WAT     H228689   1.767   9.586   1.935
 9483WAT      O28690   3.952   8.779   8.436
 9483WAT     H128691   3.956   8.846   8.510
 9483WAT     H228692   3.884   8.809   8.368
 9484WAT      O28693   7.117   7.877   2.813
 9484WAT     H128694   7.117   7.778   2.802
 9484WAT     H228695   7.069   7.920   2.736
 9485WAT      O28696   3.864   6.897   1.285
 9485WAT     H128697   3.824   6.830   1.348
 9485WAT     H228698   3.883   6.982   1.335
 9486WAT      O28699   6.331   2.290   5.291
 9486WAT     H128700   6.393   2.259   5.362
 9486WAT     H228701   6.371   2.370   5.244
 9487WAT      O28702   6.690   0.889   1.584
 9487WAT     H128703   6.622   0.962   1.591
 9487WAT     H228704   6.703   0.865   1.487
 9488WAT      O28705   6.357   1.349   8.228
 9488WAT     H128706   6.264   1.331   8.261
 9488WAT     H228707   6.403   1.412   8.290
 9489WAT      O28708   0.436   5.023   7.359
 9489WAT     H128709   0.356   4.975   7.325
 9489WAT     H228710   0.490   4.961   7.417
 9490WAT      O28711   1.921   2.299   6.784
 9490WAT     H128712   1.947   2.243   6.863
 9490WAT     H228713   1.842   2.258   6.739
 9491WAT      O28714   5.165   3.982   2.755
 9491WAT     H128715   5.211   4.010   2.839
 9491WAT     H228716   5.194   4.041   2.680
 9492WAT      O28717   3.348   3.071   2.637
 9492WAT     H128718   3.368   3.168   2.629
 9492WAT     H228719   3.279   3.045   2.569
 9493WAT      O28720   9.684   3.722   3.597
 9493WAT     H128721   9.595   3.736   3.641
 9493WAT     H228722   9.673   3.725   3.498
 9494WAT      O28723   5.937   7.089   7.529
 9494WAT     H128724   5.963   7.060   7.437
 9494WAT     H228725   6.019   7.097   7.586
 9495WAT      O28726   9.247   3.429   7.657
 9495WAT     H128727   9.222   3.526   7.659
 9495WAT     H228728   9.164   3.373   7.671
 9496WAT      O28729   6.926   3.200   6.670
 9496WAT     H128730   6.911   3.281   6.613
 9496WAT     H228731   6.945   3.228   6.764
 9497WAT      O28732   8.975   8.336   9.435
 9497WAT     H128733   9.066   8.320   9.474
 9497WAT     H228734   8.912   8.363   9.508
 9498WAT      O28735   9.456   8.977   0.230
 9498WAT     H128736   9.491   8.891   0.192
 9498WAT     H228737   9.436   8.965   0.327
 9499WAT      O28738   8.276   0.833   5.149
 9499WAT     H128739   8.228   0.912   5.186
 9499WAT     H228740   8.227   0.749   5.175
 9500WAT      O28741   3.628   8.547   2.731
 9500WAT     H128742   3.560   8.608   2.690
 9500WAT     H228743   3.620   8.550   2.831
 9501WAT      O28744   4.812   1.610   6.368
 9501WAT     H128745   4.753   1.572   6.439
 9501WAT     H228746   4.834   1.539   6.301
 9502WAT      O28747   4.477   6.272  -0.003
 9502WAT     H128748   4.530   6.219   0.063
 9502WAT     H228749   4.392   6.303   0.040
 9503WAT      O28750   4.569   7.645   5.319
 9503WAT     H128751   4.613   7.555   5.322
 9503WAT     H228752   4.570   7.686   5.410
 9504WAT      O28753   6.022   9.547   2.064
 9504WAT     H128754   6.018   9.557   1.965
 9504WAT     H228755   6.081   9.470   2.088
 9505WAT      O28756   6.392   6.410   8.674
 9505WAT     H128757   6.372   6.498   8.631
 9505WAT     H228758   6.351   6.408   8.766
 9506WAT      O28759   0.173   8.816   5.558
 9506WAT     H128760   0.135   8.861   5.477
 9506WAT     H228761   0.271   8.831   5.562
 9507WAT      O28762   5.549   7.054   7.478
 9507WAT     H128763   5.508   7.133   7.432
 9507WAT     H228764   5.648   7.070   7.488
 9508WAT      O28765   4.357   1.376   2.150
 9508WAT     H128766   4.317   1.293   2.189
 9508WAT     H228767   4.447   1.391   2.191
 9509WAT      O28768   1.053   2.227   1.382
 9509WAT     H128769   1.151   2.206   1.391
 9509WAT     H228770   1.042   2.324   1.361
 9510WAT      O28771   2.560   5.553   5.909
 9510WAT     H128772   2.590   5.459   5.895
 9510WAT     H228773   2.544   5.597   5.820
 9511WAT      O28774   6.937   5.170   8.281
 9511WAT     H128775   7.031   5.135   8.279
 9511WAT     H228776   6.922   5.219   8.367
 9512WAT      O28777   2.535   6.531   7.364
 9512WAT     H128778   2.467   6.459   7.371
 9512WAT     H228779   2.607   6.503   7.301
 9513WAT      O28780   0.986   2.479   1.906
 9513WAT     H128781   0.904   2.536   1.915
 9513WAT     H228782   0.969   2.406   1.840
 9514WAT      O28783   3.551   2.099   7.378
 9514WAT     H128784   3.607   2.176   7.346
 9514WAT     H228785   3.472   2.089   7.319
 9515WAT      O28786   6.161   5.109   0.683
 9515WAT     H128787   6.157   5.016   0.719
 9515WAT     H228788   6.071   5.151   0.689
 9516WAT      O28789   8.265   7.057   7.010
 9516WAT     H128790   8.312   6.983   7.058
 9516WAT     H228791   8.181   7.080   7.058
 9517WAT      O28792   9.868   7.007   0.333
 9517WAT     H128793   9.778   7.017   0.289
 9517WAT     H228794   9.940   7.016   0.265
 9518WAT      O28795   4.315   8.817   1.859
 9518WAT     H128796   4.262   8.848   1.780
 9518WAT     H228797   4.280   8.861   1.942
 9519WAT      O28798   1.954   2.587   2.850
 9519WAT     H128799   1.871   2.626   2.811
 9519WAT     H228800   1.931   2.503   2.900
 9520WAT      O28801   2.637   4.261   3.378
 9520WAT     H128802   2.728   4.300   3.364
 9520WAT     H228803   2.642   4.187   3.445
 9521WAT      O28804   0.007   0.723   3.063
 9521WAT     H128805  -0.078   0.677   3.087
 9521WAT     H228806   0.071   0.715   3.140
 9522WAT      O28807   4.408   3.006   5.399
 9522WAT     H128808   4.360   3.023   5.313
 9522WAT     H228809   4.506   3.018   5.387
 9523WAT      O28810   4.651   2.740   7.030
 9523WAT     H128811   4.748   2.721   7.012
 9523WAT     H228812   4.633   2.837   7.013
 9524WAT      O28813   2.749   5.892   5.284
 9524WAT     H128814   2.766   5.984   5.250
 9524WAT     H228815   2.826   5.832   5.261
 9525WAT      O28816   6.666   5.762   2.165
 9525WAT     H128817   6.651   5.717   2.253
 9525WAT     H228818   6.739   5.714   2.115
 9526WAT      O28819   0.282   6.509   4.305
 9526WAT     H128820   0.356   6.444   4.319
 9526WAT     H228821   0.250   6.504   4.210
 9527WAT      O28822   7.602   7.667   5.634
 9527WAT     H128823   7.610   7.728   5.713
 9527WAT     H228824   7.509   7.674   5.598
 9528WAT      O28825   7.562   6.553   0.573
 9528WAT     H128826   7.516   6.472   0.535
 9528WAT     H228827   7.593   6.611   0.498
 9529WAT      O28828   0.929   2.184   0.008
 9529WAT     H128829   0.922   2.278  -0.023
 9529WAT     H228830   0.997   2.178   0.081
 9530WAT      O28831   7.595   0.639   1.809
 9530WAT     H128832   7.645   0.703   1.867
 9530WAT     H228833   7.658   0.574   1.768
 9531WAT      O28834   0.281   1.567   0.292
 9531WAT     H128835   0.307   1.500   0.223
 9531WAT     H228836   0.303   1.659   0.259
 9532WAT      O28837   0.655   0.006   9.366
 9532WAT     H128838   0.557   0.018   9.352
 9532WAT     H228839   0.680   0.040   9.457
 9533WAT      O28840   8.498   0.590   6.519
 9533WAT     H128841   8.422   0.525   6.519
 9533WAT     H228842   8.577   0.548   6.563
 9534WAT      O28843   9.502   4.928   0.102
 9534WAT     H128844   9.495   4.941   0.003
 9534WAT     H228845   9.410   4.923   0.141
 9535WAT      O28846   4.677   3.472   8.330
 9535WAT     H128847   4.730   3.474   8.246
 9535WAT     H228848   4.651   3.377   8.351
 9536WAT      O28849   7.876   5.893   8.606
 9536WAT     H128850   7.873   5.816   8.543
 9536WAT     H228851   7.953   5.953   8.582
 9537WAT      O28852   7.183   4.700   6.601
 9537WAT     H128853   7.263   4.646   6.628
 9537WAT     H228854   7.168   4.691   6.503
 9538WAT      O28855   8.036   9.693   4.746
 9538WAT     H128856   7.987   9.760   4.690
 9538WAT     H228857   8.099   9.641   4.688
 9539WAT      O28858   7.951   8.919   2.209
 9539WAT     H128859   7.855   8.933   2.186
 9539WAT     H228860   8.000   8.890   2.127
 9540WAT      O28861   7.233   1.382   3.333
 9540WAT     H128862   7.235   1.478   3.359
 9540WAT     H228863   7.155   1.365   3.273
 9541WAT      O28864   5.336   3.143   2.585
 9541WAT     H128865   5.243   3.164   2.615
 9541WAT     H228866   5.368   3.062   2.635
 9542WAT      O28867   8.730   1.225   6.516
 9542WAT     H128868   8.636   1.194   6.523
 9542WAT     H228869   8.772   1.188   6.433
 9543WAT      O28870   8.172   7.049   8.288
 9543WAT     H128871   8.174   7.125   8.353
 9543WAT     H228872   8.164   7.085   8.195
 9544WAT      O28873   7.256   3.389   6.920
 9544WAT     H128874   7.289   3.463   6.862
 9544WAT     H228875   7.332   3.332   6.949
 9545WAT      O28876   3.796   7.018   1.898
 9545WAT     H128877   3.854   7.014   1.817
 9545WAT     H228878   3.828   6.952   1.966
 9546WAT      O28879   3.295   3.415   4.018
 9546WAT     H128880   3.215   3.472   3.999
 9546WAT     H228881   3.301   3.342   3.949
 9547WAT      O28882   9.248   7.902   9.150
 9547WAT     H128883   9.290   7.946   9.070
 9547WAT     H228884   9.319   7.860   9.206
 9548WAT      O28885   8.379   1.460   2.087
 9548WAT     H128886   8.288   1.457   2.127
 9548WAT     H228887   8.407   1.556   2.075
 9549WAT      O28888   8.166   6.618   7.458
 9549WAT     H128889   8.127   6.530   7.484
 9549WAT     H228890   8.132   6.645   7.368
 9550WAT      O28891   8.611   1.886   0.060
 9550WAT     H128892   8.581   1.811   0.118
 9550WAT     H228893   8.631   1.851  -0.032
 9551WAT      O28894   5.217   7.399   7.859
 9551WAT     H128895   5.249   7.400   7.764
 9551WAT     H228896   5.121   7.426   7.862
 9552WAT      O28897   9.724   4.161   6.269
 9552WAT     H128898   9.779   4.148   6.352
 9552WAT     H228899   9.665   4.081   6.255
 9553WAT      O28900   4.024   7.964   9.601
 9553WAT     H128901   3.947   7.902   9.618
 9553WAT     H228902   3.991   8.046   9.555
 9554WAT      O28903   3.651   3.928   9.393
 9554WAT     H128904   3.716   3.912   9.468
 9554WAT     H228905   3.558   3.914   9.427
 9555WAT      O28906   3.043   3.599   6.115
 9555WAT     H128907   2.977   3.660   6.070
 9555WAT     H228908   3.117   3.577   6.052
 9556WAT      O28909   7.384   0.712   4.909
 9556WAT     H128910   7.325   0.781   4.868
 9556WAT     H228911   7.337   0.668   4.985
 9557WAT      O28912   7.529   6.445   4.501
 9557WAT     H128913   7.621   6.462   4.465
 9557WAT     H228914   7.532   6.370   4.567
 9558WAT      O28915   1.395   1.640   8.645
 9558WAT     H128916   1.381   1.549   8.682
 9558WAT     H228917   1.487   1.648   8.608
 9559WAT      O28918   9.704   2.636   0.152
 9559WAT     H128919   9.631   2.599   0.095
 9559WAT     H228920   9.748   2.713   0.105
 9560WAT      O28921   1.218   7.333   7.726
 9560WAT     H128922   1.230   7.381   7.813
 9560WAT     H228923   1.287   7.364   7.661
 9561WAT      O28924   4.791   6.658   7.344
 9561WAT     H128925   4.878   6.610   7.340
 9561WAT     H228926   4.795   6.729   7.414
 9562WAT      O28927   9.724   7.690   0.783
 9562WAT     H128928   9.684   7.755   0.718
 9562WAT     H228929   9.741   7.737   0.870
 9563WAT      O28930   3.450   2.205   0.331
 9563WAT     H128931   3.499   2.123   0.361
 9563WAT     H228932   3.424   2.259   0.411
 9564WAT      O28933   7.471   1.984   5.625
 9564WAT     H128934   7.534   1.937   5.688
 9564WAT     H228935   7.416   2.049   5.677
 9565WAT      O28936   8.884   9.170   5.600
 9565WAT     H128937   8.981   9.165   5.626
 9565WAT     H228938   8.837   9.088   5.633
 9566WAT      O28939   6.927   5.114   9.183
 9566WAT     H128940   6.948   5.056   9.261
 9566WAT     H228941   6.832   5.099   9.155
 9567WAT      O28942   7.604   8.365   5.972
 9567WAT     H128943   7.563   8.312   6.046
 9567WAT     H228944   7.541   8.370   5.894
 9568WAT      O28945   3.171   4.129   6.005
 9568WAT     H128946   3.213   4.195   5.942
 9568WAT     H228947   3.118   4.178   6.074
 9569WAT      O28948   6.156   9.340   4.346
 9569WAT     H128949   6.150   9.411   4.416
 9569WAT     H228950   6.137   9.251   4.386
 9570WAT      O28951   2.599   5.376   4.355
 9570WAT     H128952   2.517   5.432   4.354
 9570WAT     H228953   2.584   5.296   4.413
 9571WAT      O28954   1.941   9.266   7.539
 9571WAT     H128955   1.852   9.220   7.546
 9571WAT     H228956   1.992   9.252   7.624
 9572WAT      O28957   1.833   0.884   0.443
 9572WAT     H128958   1.883   0.903   0.359
 9572WAT     H228959   1.865   0.798   0.483
 9573WAT      O28960   3.500   3.907   7.213
 9573WAT     H128961   3.531   3.835   7.150
 9573WAT     H228962   3.417   3.949   7.177
 9574WAT      O28963   5.730   0.596   9.133
 9574WAT     H128964   5.632   0.601   9.113
 9574WAT     H228965   5.744   0.566   9.227
 9575WAT      O28966   3.230   6.059   5.086
 9575WAT     H128967   3.326   6.041   5.108
 9575WAT     H228968   3.181   6.089   5.167
 9576WAT      O28969   0.465   5.540   5.660
 9576WAT     H128970   0.451   5.548   5.561
 9576WAT     H228971   0.458   5.443   5.687
 9577WAT      O28972   5.182   8.176   4.100
 9577WAT     H128973   5.222   8.127   4.177
 9577WAT     H228974   5.084   8.187   4.116
 9578WAT      O28975   4.879   4.756   9.591
 9578WAT     H128976   4.874   4.829   9.659
 9578WAT     H228977   4.898   4.796   9.502
 9579WAT      O28978   0.691   3.006   7.798
 9579WAT     H128979   0.627   3.076   7.828
 9579WAT     H228980   0.682   2.925   7.855
 9580WAT      O28981   7.352   5.656   9.862
 9580WAT     H128982   7.380   5.574   9.912
 9580WAT     H228983   7.367   5.737   9.919
 9581WAT      O28984   2.526   3.742   3.679
 9581WAT     H128985   2.474   3.825   3.703
 9581WAT     H228986   2.586   3.717   3.754
 9582WAT      O28987   9.221   6.334   5.492
 9582WAT     H128988   9.264   6.319   5.403
 9582WAT     H228989   9.213   6.433   5.509
 9583WAT      O28990   7.603   3.088   7.999
 9583WAT     H128991   7.692   3.077   7.956
 9583WAT     H228992   7.548   3.005   7.982
 9584WAT      O28993   5.927   4.055   7.186
 9584WAT     H128994   5.889   4.145   7.162
 9584WAT     H228995   5.926   4.044   7.285
 9585WAT      O28996   0.128   6.250   1.378
 9585WAT     H128997   0.192   6.216   1.447
 9585WAT     H228998   0.179   6.302   1.308
 9586WAT      O28999   8.200   8.530   6.991
 9586WAT     H129000   8.217   8.499   6.898
 9586WAT     H229001   8.191   8.451   7.052
 9587WAT      O29002   1.760   1.841   4.116
 9587WAT     H129003   1.801   1.916   4.064
 9587WAT     H229004   1.792   1.845   4.211
 9588WAT      O29005   5.348   6.939   1.290
 9588WAT     H129006   5.321   6.981   1.376
 9588WAT     H229007   5.437   6.974   1.262
 9589WAT      O29008   9.858   3.509   8.174
 9589WAT     H129009   9.945   3.479   8.134
 9589WAT     H229010   9.875   3.550   8.264
 9590WAT      O29011   9.702   0.508   6.472
 9590WAT     H129012   9.707   0.578   6.543
 9590WAT     H229013   9.721   0.550   6.383
 9591WAT      O29014   4.656   1.958   5.919
 9591WAT     H129015   4.601   1.907   5.985
 9591WAT     H229016   4.600   2.030   5.878
 9592WAT      O29017   6.111   7.681   5.570
 9592WAT     H129018   6.145   7.774   5.581
 9592WAT     H229019   6.049   7.658   5.644
 9593WAT      O29020   6.040   4.986   4.939
 9593WAT     H129021   5.976   4.945   5.004
 9593WAT     H229022   6.009   5.078   4.916
 9594WAT      O29023   8.222   5.868   8.831
 9594WAT     H129024   8.175   5.789   8.870
 9594WAT     H229025   8.216   5.865   8.731
 9595WAT      O29026   9.267   7.249   2.079
 9595WAT     H129027   9.276   7.242   2.178
 9595WAT     H229028   9.262   7.158   2.039
 9596WAT      O29029   0.871   0.852   2.485
 9596WAT     H129030   0.893   0.776   2.424
 9596WAT     H229031   0.954   0.904   2.504
 9597WAT      O29032   6.273   0.488   6.631
 9597WAT     H129033   6.316   0.574   6.658
 9597WAT     H229034   6.343   0.418   6.617
 9598WAT      O29035   0.779   0.826   3.042
 9598WAT     H129036   0.680   0.841   3.042
 9598WAT     H229037   0.814   0.840   2.949
 9599WAT      O29038   8.791   1.848   0.389
 9599WAT     H129039   8.867   1.885   0.442
 9599WAT     H229040   8.729   1.798   0.448
 9600WAT      O29041   0.500   2.584   0.158
 9600WAT     H129042   0.462   2.579   0.066
 9600WAT     H229043   0.600   2.576   0.153
 9601WAT      O29044   4.071   5.444   1.093
 9601WAT     H129045   4.149   5.390   1.127
 9601WAT     H229046   4.082   5.539   1.121
 9602WAT      O29047   3.009   2.695   0.582
 9602WAT     H129048   3.059   2.713   0.497
 9602WAT     H229049   2.953   2.774   0.606
 9603WAT      O29050   9.865   8.512   0.914
 9603WAT     H129051   9.853   8.495   1.012
 9603WAT     H229052   9.957   8.547   0.897
 9604WAT      O29053   8.373   9.128   3.798
 9604WAT     H129054   8.297   9.074   3.835
 9604WAT     H229055   8.381   9.111   3.700
 9605WAT      O29056   8.143   9.595   5.583
 9605WAT     H129057   8.083   9.541   5.525
 9605WAT     H229058   8.225   9.542   5.605
 9606WAT      O29059   4.147   0.032   1.737
 9606WAT     H129060   4.178   0.042   1.832
 9606WAT     H229061   4.086  -0.046   1.730
 9607WAT      O29062   2.652   4.706   3.530
 9607WAT     H129063   2.588   4.638   3.494
 9607WAT     H229064   2.602   4.788   3.557
 9608WAT      O29065   1.767   2.934   0.175
 9608WAT     H129066   1.866   2.925   0.167
 9608WAT     H229067   1.743   2.966   0.267
 9609WAT      O29068   9.423   4.509   1.243
 9609WAT     H129069   9.507   4.490   1.294
 9609WAT     H229070   9.433   4.596   1.195
 9610WAT      O29071   6.180   5.671   9.058
 9610WAT     H129072   6.238   5.678   8.978
 9610WAT     H229073   6.168   5.574   9.081
 9611WAT      O29074   2.595   9.597   0.877
 9611WAT     H129075   2.584   9.603   0.976
 9611WAT     H229076   2.508   9.620   0.833
 9612WAT      O29077   7.783   1.172   7.668
 9612WAT     H129078   7.727   1.097   7.703
 9612WAT     H229079   7.747   1.202   7.580
 9613WAT      O29080   0.939   0.694   4.903
 9613WAT     H129081   0.975   0.689   4.996
 9613WAT     H229082   0.843   0.665   4.903
 9614WAT      O29083   6.492   3.140   4.571
 9614WAT     H129084   6.510   3.120   4.474
 9614WAT     H229085   6.473   3.054   4.619
 9615WAT      O29086   2.832   5.745   9.760
 9615WAT     H129087   2.831   5.777   9.665
 9615WAT     H229088   2.888   5.663   9.766
 9616WAT      O29089   5.299   8.114   3.857
 9616WAT     H129090   5.345   8.189   3.809
 9616WAT     H229091   5.264   8.147   3.945
 9617WAT      O29092   6.189   2.414   3.270
 9617WAT     H129093   6.142   2.427   3.183
 9617WAT     H229094   6.246   2.332   3.266
 9618WAT      O29095   5.571   6.653   8.006
 9618WAT     H129096   5.506   6.628   8.077
 9618WAT     H229097   5.664   6.632   8.037
 9619WAT      O29098   8.494   8.120   9.015
 9619WAT     H129099   8.582   8.163   9.037
 9619WAT     H229100   8.420   8.167   9.063
 9620WAT      O29101   0.447   9.697   4.794
 9620WAT     H129102   0.487   9.686   4.885
 9620WAT     H229103   0.355   9.659   4.793
 9621WAT      O29104   1.526   3.951   1.040
 9621WAT     H129105   1.549   3.870   1.094
 9621WAT     H229106   1.427   3.955   1.026
 9622WAT      O29107   2.104   7.919   1.702
 9622WAT     H129108   2.165   7.987   1.741
 9622WAT     H229109   2.010   7.938   1.732
 9623WAT      O29110   0.163   3.947   3.154
 9623WAT     H129111   0.145   3.854   3.187
 9623WAT     H229112   0.210   3.942   3.065
 9624WAT      O29113   1.557   4.730   0.273
 9624WAT     H129114   1.620   4.782   0.332
 9624WAT     H229115   1.593   4.727   0.180
 9625WAT      O29116   6.271   0.173   7.825
 9625WAT     H129117   6.322   0.104   7.876
 9625WAT     H229118   6.211   0.127   7.759
 9626WAT      O29119   4.075   9.393   8.961
 9626WAT     H129120   4.025   9.409   8.876
 9626WAT     H229121   4.032   9.319   9.012
 9627WAT      O29122   2.370   3.778   9.419
 9627WAT     H129123   2.333   3.801   9.509
 9627WAT     H229124   2.370   3.859   9.361
 9628WAT      O29125   0.917   5.635   1.967
 9628WAT     H129126   0.824   5.602   1.952
 9628WAT     H229127   0.980   5.557   1.971
 9629WAT      O29128   0.823   6.019   5.486
 9629WAT     H129129   0.823   6.102   5.431
 9629WAT     H229130   0.856   6.039   5.578
 9630WAT      O29131   2.178   0.488   6.442
 9630WAT     H129132   2.126   0.405   6.423
 9630WAT     H229133   2.168   0.511   6.539
 9631WAT      O29134   9.366   2.924   9.039
 9631WAT     H129135   9.277   2.877   9.036
 9631WAT     H229136   9.354   3.018   9.008
 9632WAT      O29137   4.122   4.020   6.023
 9632WAT     H129138   4.206   4.047   6.070
 9632WAT     H229139   4.119   4.063   5.933
 9633WAT      O29140   6.712   7.774   8.643
 9633WAT     H129141   6.799   7.778   8.595
 9633WAT     H229142   6.637   7.787   8.578
 9634WAT      O29143   5.236   7.812   2.365
 9634WAT     H129144   5.321   7.769   2.335
 9634WAT     H229145   5.191   7.754   2.434
 9635WAT      O29146   8.054   7.502   0.356
 9635WAT     H129147   8.020   7.470   0.444
 9635WAT     H229148   7.977   7.519   0.295
 9636WAT      O29149   8.990   1.590   8.906
 9636WAT     H129150   8.912   1.532   8.930
 9636WAT     H229151   8.970   1.641   8.822
 9637WAT      O29152   0.602   8.737   2.755
 9637WAT     H129153   0.571   8.711   2.846
 9637WAT     H229154   0.585   8.662   2.691
 9638WAT      O29155   5.555   0.673   6.885
 9638WAT     H129156   5.586   0.764   6.859
 9638WAT     H229157   5.475   0.680   6.944
 9639WAT      O29158   1.172   0.316   9.751
 9639WAT     H129159   1.171   0.235   9.692
 9639WAT     H229160   1.086   0.321   9.802
 9640WAT      O29161   8.660   7.953   4.345
 9640WAT     H129162   8.619   7.866   4.319
 9640WAT     H229163   8.760   7.942   4.351
 9641WAT      O29164   5.824   1.559   2.909
 9641WAT     H129165   5.840   1.603   2.997
 9641WAT     H229166   5.726   1.554   2.891
 9642WAT      O29167   0.999   5.637   7.055
 9642WAT     H129168   1.041   5.702   6.992
 9642WAT     H229169   0.929   5.683   7.109
 9643WAT      O29170   1.082   8.172   1.471
 9643WAT     H129171   1.130   8.167   1.384
 9643WAT     H229172   1.085   8.083   1.517
 9644WAT      O29173   8.607   8.641   4.054
 9644WAT     H129174   8.695   8.622   4.098
 9644WAT     H229175   8.568   8.724   4.094
 9645WAT      O29176   4.663   0.762   1.204
 9645WAT     H129177   4.638   0.702   1.129
 9645WAT     H229178   4.667   0.710   1.289
 9646WAT      O29179   6.110   2.292   0.356
 9646WAT     H129180   6.136   2.262   0.447
 9646WAT     H229181   6.011   2.280   0.344
 9647WAT      O29182   5.027   3.354   4.018
 9647WAT     H129183   5.043   3.418   4.093
 9647WAT     H229184   5.086   3.273   4.029
 9648WAT      O29185   7.650   5.450   5.546
 9648WAT     H129186   7.653   5.350   5.548
 9648WAT     H229187   7.599   5.483   5.626
 9649WAT      O29188   2.427   7.497   4.944
 9649WAT     H129189   2.476   7.441   4.878
 9649WAT     H229190   2.438   7.594   4.920
 9650WAT      O29191   7.817   6.718   0.830
 9650WAT     H129192   7.723   6.687   0.825
 9650WAT     H229193   7.848   6.747   0.739
 9651WAT      O29194   4.679   7.955   4.826
 9651WAT     H129195   4.596   8.005   4.850
 9651WAT     H229196   4.657   7.879   4.765
 9652WAT      O29197   0.819   4.343   5.599
 9652WAT     H129198   0.831   4.443   5.597
 9652WAT     H229199   0.731   4.321   5.641
 9653WAT      O29200   3.864   6.797   9.160
 9653WAT     H129201   3.811   6.882   9.159
 9653WAT     H229202   3.944   6.808   9.219
 9654WAT      O29203   6.417   4.221   0.443
 9654WAT     H129204   6.440   4.283   0.368
 9654WAT     H229205   6.473   4.242   0.522
 9655WAT      O29206   1.032   7.654   6.430
 9655WAT     H129207   0.964   7.644   6.503
 9655WAT     H229208   1.120   7.620   6.461
 9656WAT      O29209   0.122   8.175   8.484
 9656WAT     H129210   0.061   8.235   8.431
 9656WAT     H229211   0.071   8.095   8.514
 9657WAT      O29212   0.230   7.044   0.220
 9657WAT     H129213   0.273   7.066   0.133
 9657WAT     H229214   0.300   7.018   0.286
 9658WAT      O29215   6.291   2.595   1.177
 9658WAT     H129216   6.211   2.568   1.123
 9658WAT     H229217   6.370   2.540   1.151
 9659WAT      O29218   5.944   7.027   5.313
 9659WAT     H129219   6.002   6.962   5.361
 9659WAT     H229220   5.951   7.117   5.357
 9660WAT      O29221   6.488   9.704   0.389
 9660WAT     H129222   6.425   9.762   0.337
 9660WAT     H229223   6.467   9.712   0.486
 9661WAT      O29224   7.022   3.564   4.203
 9661WAT     H129225   7.061   3.656   4.199
 9661WAT     H229226   6.976   3.551   4.291
 9662WAT      O29227   7.942   7.940   3.608
 9662WAT     H129228   8.006   7.899   3.673
 9662WAT     H229229   7.849   7.932   3.643
 9663WAT      O29230   7.000   1.300   5.075
 9663WAT     H129231   7.039   1.347   5.153
 9663WAT     H229232   6.956   1.215   5.105
 9664WAT      O29233   3.792   4.788   1.213
 9664WAT     H129234   3.773   4.757   1.120
 9664WAT     H229235   3.853   4.867   1.210
 9665WAT      O29236   7.908   2.909   1.662
 9665WAT     H129237   7.945   2.821   1.694
 9665WAT     H229238   7.971   2.982   1.689
 9666WAT      O29239   0.120   6.514   7.314
 9666WAT     H129240   0.032   6.554   7.339
 9666WAT     H229241   0.160   6.563   7.236
 9667WAT      O29242   3.208   7.771   9.725
 9667WAT     H129243   3.158   7.696   9.767
 9667WAT     H229244   3.151   7.853   9.725
 9668WAT      O29245   3.178   7.848   7.568
 9668WAT     H129246   3.251   7.868   7.634
 9668WAT     H229247   3.101   7.805   7.615
 9669WAT      O29248   7.390   6.952   4.070
 9669WAT     H129249   7.411   7.048   4.087
 9669WAT     H229250   7.379   6.904   4.157
 9670WAT      O29251   6.235   2.077   4.659
 9670WAT     H129252   6.258   1.995   4.607
 9670WAT     H229253   6.251   2.061   4.756
 9671WAT      O29254   2.081   9.716   1.044
 9671WAT     H129255   2.076   9.658   1.125
 9671WAT     H229256   2.092   9.811   1.071
 9672WAT      O29257   7.205   7.827   5.184
 9672WAT     H129258   7.202   7.754   5.115
 9672WAT     H229259   7.114   7.864   5.196
 9673WAT      O29260   8.275   2.322   8.631
 9673WAT     H129261   8.241   2.230   8.611
 9673WAT     H229262   8.330   2.320   8.715
 9674WAT      O29263   1.375   6.704   4.898
 9674WAT     H129264   1.464   6.713   4.854
 9674WAT     H229265   1.304   6.701   4.828
 9675WAT      O29266   7.657   0.003   5.956
 9675WAT     H129267   7.638   0.078   6.019
 9675WAT     H229268   7.742  -0.042   5.983
 9676WAT      O29269   7.970   8.759   3.307
 9676WAT     H129270   7.895   8.693   3.307
 9676WAT     H229271   7.994   8.782   3.402
 9677WAT      O29272   5.681   2.956   9.849
 9677WAT     H129273   5.699   2.871   9.899
 9677WAT     H229274   5.625   3.016   9.906
 9678WAT      O29275   8.824   9.316   2.322
 9678WAT     H129276   8.829   9.221   2.353
 9678WAT     H229277   8.728   9.346   2.322
 9679WAT      O29278   9.662   1.804   5.534
 9679WAT     H129279   9.626   1.856   5.456
 9679WAT     H229280   9.593   1.738   5.564
 9680WAT      O29281   2.091   2.183   1.786
 9680WAT     H129282   2.190   2.169   1.790
 9680WAT     H229283   2.055   2.140   1.703
 9681WAT      O29284   7.430   1.375   0.726
 9681WAT     H129285   7.508   1.351   0.669
 9681WAT     H229286   7.422   1.475   0.732
 9682WAT      O29287   9.879   2.063   4.298
 9682WAT     H129288   9.847   2.145   4.251
 9682WAT     H229289   9.951   2.088   4.362
 9683WAT      O29290   1.248   5.945   5.878
 9683WAT     H129291   1.182   5.930   5.804
 9683WAT     H229292   1.256   6.043   5.896
 9684WAT      O29293   1.180   3.286   1.807
 9684WAT     H129294   1.146   3.195   1.784
 9684WAT     H229295   1.247   3.279   1.881
 9685WAT      O29296   4.616   9.308   4.678
 9685WAT     H129297   4.587   9.364   4.756
 9685WAT     H229298   4.573   9.218   4.683
 9686WAT      O29299   2.616   4.572   9.422
 9686WAT     H129300   2.602   4.473   9.413
 9686WAT     H229301   2.707   4.588   9.462
 9687WAT      O29302   3.843   5.885   0.803
 9687WAT     H129303   3.749   5.855   0.817
 9687WAT     H229304   3.902   5.805   0.792
 9688WAT      O29305   7.035   1.188   0.537
 9688WAT     H129306   6.990   1.265   0.491
 9688WAT     H229307   7.061   1.119   0.469
 9689WAT      O29308   0.374   5.307   7.356
 9689WAT     H129309   0.417   5.319   7.446
 9689WAT     H229310   0.378   5.210   7.330
 9690WAT      O29311   4.304   9.523   1.622
 9690WAT     H129312   4.249   9.596   1.582
 9690WAT     H229313   4.248   9.441   1.632
 9691WAT      O29314   5.674   3.546   1.129
 9691WAT     H129315   5.593   3.545   1.070
 9691WAT     H229316   5.719   3.635   1.122
 9692WAT      O29317   2.781   0.976   5.585
 9692WAT     H129318   2.749   0.901   5.527
 9692WAT     H229319   2.880   0.982   5.581
 9693WAT      O29320   8.347   6.881   1.857
 9693WAT     H129321   8.341   6.970   1.901
 9693WAT     H229322   8.277   6.820   1.895
 9694WAT      O29323   2.941   7.112   6.532
 9694WAT     H129324   2.915   7.023   6.494
 9694WAT     H229325   2.888   7.129   6.615
 9695WAT      O29326   7.772   1.190   0.875
 9695WAT     H129327   7.783   1.092   0.889
 9695WAT     H229328   7.743   1.207   0.780
 9696WAT      O29329   1.065   4.488   0.782
 9696WAT     H129330   0.997   4.557   0.760
 9696WAT     H229331   1.056   4.411   0.718
 9697WAT      O29332   9.336   2.349   9.467
 9697WAT     H129333   9.430   2.323   9.444
 9697WAT     H229334   9.337   2.427   9.530
 9698WAT      O29335   0.092   9.576   2.693
 9698WAT     H129336   0.044   9.490   2.679
 9698WAT     H229337   0.073   9.638   2.617
 9699WAT      O29338   0.878   9.757   6.429
 9699WAT     H129339   0.785   9.792   6.423
 9699WAT     H229340   0.942   9.833   6.439
 9700WAT      O29341   5.331   6.627   5.512
 9700WAT     H129342   5.248   6.571   5.504
 9700WAT     H229343   5.410   6.568   5.526
 9701WAT      O29344   3.681   1.566   7.925
 9701WAT     H129345   3.683   1.654   7.876
 9701WAT     H229346   3.592   1.523   7.912
 9702WAT      O29347   3.547   3.638   8.839
 9702WAT     H129348   3.559   3.609   8.744
 9702WAT     H229349   3.502   3.728   8.841
 9703WAT      O29350   5.336   2.061   0.813
 9703WAT     H129351   5.344   2.111   0.899
 9703WAT     H229352   5.418   2.005   0.800
 9704WAT      O29353   5.635   3.832   1.331
 9704WAT     H129354   5.689   3.855   1.250
 9704WAT     H229355   5.644   3.734   1.351
 9705WAT      O29356   1.227   5.522   7.212
 9705WAT     H129357   1.229   5.551   7.308
 9705WAT     H229358   1.133   5.502   7.185
 9706WAT      O29359   8.549   9.095   0.346
 9706WAT     H129360   8.596   9.163   0.289
 9706WAT     H229361   8.555   9.006   0.302
 9707WAT      O29362   7.441   1.019   9.584
 9707WAT     H129363   7.398   1.039   9.672
 9707WAT     H229364   7.382   1.050   9.510
 9708WAT      O29365   2.018   7.697   5.813
 9708WAT     H129366   2.106   7.650   5.812
 9708WAT     H229367   2.013   7.756   5.894
 9709WAT      O29368   5.473   1.826   3.126
 9709WAT     H129369   5.415   1.847   3.205
 9709WAT     H229370   5.486   1.727   3.120
 9710WAT      O29371   4.984   5.490   2.590
 9710WAT     H129372   4.927   5.482   2.672
 9710WAT     H229373   5.025   5.402   2.568
 9711WAT      O29374   2.411   5.629   4.019
 9711WAT     H129375   2.351   5.644   4.098
 9711WAT     H229376   2.416   5.532   3.999
 9712WAT      O29377   9.141   6.205   0.031
 9712WAT     H129378   9.231   6.162   0.027
 9712WAT     H229379   9.072   6.140  -0.001
 9713WAT      O29380   1.244   6.065   5.534
 9713WAT     H129381   1.319   6.008   5.567
 9713WAT     H229382   1.206   6.118   5.610
 9714WAT      O29383   2.190   6.791   9.491
 9714WAT     H129384   2.274   6.825   9.534
 9714WAT     H229385   2.196   6.803   9.392
 9715WAT      O29386   5.900   1.645   2.311
 9715WAT     H129387   5.991   1.622   2.345
 9715WAT     H229388   5.831   1.598   2.367
 9716WAT      O29389   1.447   0.034   6.302
 9716WAT     H129390   1.499   0.007   6.383
 9716WAT     H229391   1.474   0.127   6.275
 9717WAT      O29392   2.207   9.755   9.143
 9717WAT     H129393   2.233   9.697   9.221
 9717WAT     H229394   2.129   9.811   9.169
 9718WAT      O29395   2.456   1.906   7.441
 9718WAT     H129396   2.372   1.907   7.496
 9718WAT     H229397   2.492   1.813   7.439
 9719WAT      O29398   5.398   2.523   7.517
 9719WAT     H129399   5.437   2.454   7.457
 9719WAT     H229400   5.418   2.614   7.481
 9720WAT      O29401   6.594   9.421   9.405
 9720WAT     H129402   6.539   9.345   9.440
 9720WAT     H229403   6.688   9.389   9.389
 9721WAT      O29404   2.359   0.523   4.820
 9721WAT     H129405   2.355   0.424   4.810
 9721WAT     H229406   2.403   0.563   4.739
 9722WAT      O29407   6.835   7.878   1.509
 9722WAT     H129408   6.883   7.859   1.594
 9722WAT     H229409   6.812   7.793   1.463
 9723WAT      O29410   2.714   9.746   3.751
 9723WAT     H129411   2.672   9.828   3.790
 9723WAT     H229412   2.651   9.706   3.684
 9724WAT      O29413   5.361   1.547   6.817
 9724WAT     H129414   5.443   1.495   6.794
 9724WAT     H229415   5.305   1.561   6.735
 9725WAT      O29416   2.281   2.284   4.547
 9725WAT     H129417   2.335   2.314   4.626
 9725WAT     H229418   2.295   2.186   4.533
 9726WAT      O29419   7.713   3.804   9.680
 9726WAT     H129420   7.733   3.758   9.766
 9726WAT     H229421   7.617   3.787   9.655
 9727WAT      O29422   3.843   3.964   0.401
 9727WAT     H129423   3.839   3.924   0.492
 9727WAT     H229424   3.938   3.968   0.370
 9728WAT      O29425   9.572   5.194   3.605
 9728WAT     H129426   9.648   5.220   3.665
 9728WAT     H229427   9.493   5.252   3.625
 9729WAT      O29428   5.567   3.728   7.855
 9729WAT     H129429   5.551   3.825   7.876
 9729WAT     H229430   5.634   3.721   7.781
 9730WAT      O29431   4.139   2.419   8.356
 9730WAT     H129432   4.149   2.517   8.372
 9730WAT     H229433   4.108   2.374   8.441
 9731WAT      O29434   0.424   2.962   6.006
 9731WAT     H129435   0.406   2.997   6.098
 9731WAT     H229436   0.423   3.039   5.941
 9732WAT      O29437   5.217   1.990   4.706
 9732WAT     H129438   5.176   2.050   4.774
 9732WAT     H229439   5.148   1.928   4.670
 9733WAT      O29440   1.616   0.745   4.336
 9733WAT     H129441   1.643   0.678   4.267
 9733WAT     H229442   1.697   0.788   4.374
 9734WAT      O29443   6.535   0.498   7.416
 9734WAT     H129444   6.527   0.597   7.400
 9734WAT     H229445   6.597   0.481   7.491
 9735WAT      O29446   8.329   8.502   1.287
 9735WAT     H129447   8.335   8.409   1.322
 9735WAT     H229448   8.233   8.529   1.280
 9736WAT      O29449   8.956   0.361   8.444
 9736WAT     H129450   9.050   0.351   8.413
 9736WAT     H229451   8.944   0.314   8.531
 9737WAT      O29452   5.445   7.622   1.600
 9737WAT     H129453   5.532   7.621   1.650
 9737WAT     H229454   5.435   7.710   1.553
 9738WAT      O29455   9.817   6.366   7.796
 9738WAT     H129456   9.900   6.332   7.752
 9738WAT     H229457   9.830   6.462   7.822
 9739WAT      O29458   5.131   7.583   4.552
 9739WAT     H129459   5.219   7.542   4.527
 9739WAT     H229460   5.127   7.676   4.515
 9740WAT      O29461   5.153   2.879   6.745
 9740WAT     H129462   5.180   2.932   6.664
 9740WAT     H229463   5.126   2.941   6.818
 9741WAT      O29464   5.606   3.982   6.565
 9741WAT     H129465   5.701   3.955   6.582
 9741WAT     H229466   5.604   4.076   6.532
 9742WAT      O29467   3.029   8.108   3.680
 9742WAT     H129468   2.959   8.178   3.696
 9742WAT     H229469   2.994   8.019   3.706
 9743WAT      O29470   6.158   3.268   3.189
 9743WAT     H129471   6.195   3.360   3.201
 9743WAT     H229472   6.233   3.203   3.175
 9744WAT      O29473   2.929   9.636   0.477
 9744WAT     H129474   2.994   9.711   0.485
 9744WAT     H229475   2.899   9.608   0.568
 9745WAT      O29476   2.229   4.929   6.334
 9745WAT     H129477   2.289   4.862   6.291
 9745WAT     H229478   2.207   5.002   6.270
 9746WAT      O29479   2.638   0.231   7.791
 9746WAT     H129480   2.673   0.146   7.752
 9746WAT     H229481   2.541   0.241   7.768
 9747WAT      O29482   3.971   9.524   4.384
 9747WAT     H129483   3.998   9.610   4.340
 9747WAT     H229484   4.031   9.450   4.354
 9748WAT      O29485   3.271   1.582   5.331
 9748WAT     H129486   3.329   1.657   5.363
 9748WAT     H229487   3.304   1.496   5.370
 9749WAT      O29488   1.825   8.471   1.080
 9749WAT     H129489   1.805   8.436   1.171
 9749WAT     H229490   1.858   8.565   1.087
 9750WAT      O29491   5.092   9.437   1.993
 9750WAT     H129492   5.101   9.537   1.985
 9750WAT     H229493   4.998   9.414   2.017
 9751WAT      O29494   9.133   6.746   9.158
 9751WAT     H129495   9.178   6.703   9.079
 9751WAT     H229496   9.076   6.679   9.205
 9752WAT      O29497   5.679   9.832   6.033
 9752WAT     H129498   5.748   9.829   5.962
 9752WAT     H229499   5.720   9.864   6.119
 9753WAT      O29500   3.771   1.347   9.231
 9753WAT     H129501   3.794   1.254   9.203
 9753WAT     H229502   3.789   1.358   9.329
 9754WAT      O29503   8.160   8.348   6.775
 9754WAT     H129504   8.092   8.282   6.806
 9754WAT     H229505   8.130   8.389   6.689
 9755WAT      O29506   3.225   3.928   9.879
 9755WAT     H129507   3.137   3.885   9.899
 9755WAT     H229508   3.230   4.017   9.926
 9756WAT      O29509   7.679   3.620   9.337
 9756WAT     H129510   7.770   3.580   9.344
 9756WAT     H229511   7.686   3.717   9.316
 9757WAT      O29512   5.497   0.995   3.507
 9757WAT     H129513   5.460   1.067   3.449
 9757WAT     H229514   5.524   1.033   3.595
 9758WAT      O29515   9.198   6.268   3.205
 9758WAT     H129516   9.166   6.215   3.283
 9758WAT     H229517   9.294   6.247   3.187
 9759WAT      O29518   5.539   8.333   9.131
 9759WAT     H129519   5.562   8.248   9.084
 9759WAT     H229520   5.440   8.345   9.132
 9760WAT      O29521   4.990   4.973   0.830
 9760WAT     H129522   5.066   5.026   0.867
 9760WAT     H229523   4.926   5.035   0.783
 9761WAT      O29524   7.897   1.633   4.250
 9761WAT     H129525   7.846   1.656   4.167
 9761WAT     H229526   7.846   1.665   4.330
 9762WAT      O29527   0.707   5.084   7.574
 9762WAT     H129528   0.704   4.997   7.525
 9762WAT     H229529   0.615   5.108   7.606
 9763WAT      O29530   6.538   5.469   9.305
 9763WAT     H129531   6.440   5.456   9.318
 9763WAT     H229532   6.553   5.533   9.229
 9764WAT      O29533   0.813   1.534   8.817
 9764WAT     H129534   0.759   1.513   8.898
 9764WAT     H229535   0.764   1.506   8.735
 9765WAT      O29536   8.206   3.177   8.432
 9765WAT     H129537   8.183   3.204   8.526
 9765WAT     H229538   8.303   3.152   8.428
 9766WAT      O29539   6.104   2.365   7.684
 9766WAT     H129540   6.106   2.383   7.585
 9766WAT     H229541   6.182   2.308   7.709
 9767WAT      O29542   9.168   9.623   4.707
 9767WAT     H129543   9.143   9.609   4.803
 9767WAT     H229544   9.092   9.668   4.659
 9768WAT      O29545   8.812   5.836   7.265
 9768WAT     H129546   8.770   5.920   7.299
 9768WAT     H229547   8.847   5.852   7.173
 9769WAT      O29548   2.455   6.300   3.714
 9769WAT     H129549   2.378   6.243   3.743
 9769WAT     H229550   2.478   6.279   3.619
 9770WAT      O29551   6.297   3.619   6.252
 9770WAT     H129552   6.325   3.596   6.159
 9770WAT     H229553   6.218   3.681   6.248
 9771WAT      O29554   9.428   5.999   7.577
 9771WAT     H129555   9.482   6.062   7.633
 9771WAT     H229556   9.334   6.033   7.568
 9772WAT      O29557   1.822   3.996   8.063
 9772WAT     H129558   1.859   3.928   7.999
 9772WAT     H229559   1.895   4.057   8.093
 9773WAT      O29560   4.145   7.144   1.948
 9773WAT     H129561   4.198   7.060   1.937
 9773WAT     H229562   4.116   7.177   1.858
 9774WAT      O29563   7.743   1.129   4.035
 9774WAT     H129564   7.834   1.145   4.074
 9774WAT     H229565   7.680   1.199   4.067
 9775WAT      O29566   4.328   1.300   5.588
 9775WAT     H129567   4.345   1.312   5.490
 9775WAT     H229568   4.390   1.231   5.625
 9776WAT      O29569   7.713   8.076   6.964
 9776WAT     H129570   7.769   8.018   7.023
 9776WAT     H229571   7.635   8.110   7.016
 9777WAT      O29572   6.332   5.457   3.852
 9777WAT     H129573   6.363   5.438   3.945
 9777WAT     H229574   6.395   5.522   3.809
 9778WAT      O29575   4.511   5.726   2.900
 9778WAT     H129576   4.433   5.760   2.953
 9778WAT     H229577   4.477   5.675   2.821
 9779WAT      O29578   7.468   4.081   3.854
 9779WAT     H129579   7.369   4.079   3.868
 9779WAT     H229580   7.512   4.132   3.928
 9780WAT      O29581   6.332   4.864   6.835
 9780WAT     H129582   6.247   4.812   6.842
 9780WAT     H229583   6.391   4.844   6.913
 9781WAT      O29584   3.841   1.990   6.327
 9781WAT     H129585   3.879   2.052   6.396
 9781WAT     H229586   3.904   1.984   6.250
 9782WAT      O29587   4.699   1.578   7.444
 9782WAT     H129588   4.743   1.599   7.531
 9782WAT     H229589   4.738   1.635   7.372
 9783WAT      O29590   2.817   7.011   6.890
 9783WAT     H129591   2.760   6.932   6.865
 9783WAT     H229592   2.807   7.083   6.821
 9784WAT      O29593   0.553   5.117   4.390
 9784WAT     H129594   0.592   5.027   4.368
 9784WAT     H229595   0.556   5.175   4.309
 9785WAT      O29596   4.788   9.821   6.038
 9785WAT     H129597   4.726   9.781   5.972
 9785WAT     H229598   4.783   9.770   6.124
 9786WAT      O29599   9.788   9.529   3.521
 9786WAT     H129600   9.710   9.533   3.459
 9786WAT     H229601   9.871   9.506   3.469
 9787WAT      O29602   5.685   6.796   2.708
 9787WAT     H129603   5.682   6.801   2.608
 9787WAT     H229604   5.775   6.762   2.737
 9788WAT      O29605   3.611   9.175   5.135
 9788WAT     H129606   3.597   9.111   5.060
 9788WAT     H229607   3.657   9.128   5.211
 9789WAT      O29608   5.806   8.973   0.837
 9789WAT     H129609   5.870   9.024   0.895
 9789WAT     H229610   5.803   8.878   0.868
 9790WAT      O29611   1.543   5.399   5.443
 9790WAT     H129612   1.599   5.477   5.417
 9790WAT     H229613   1.504   5.357   5.361
 9791WAT      O29614   1.349   7.581   5.007
 9791WAT     H129615   1.341   7.680   4.995
 9791WAT     H229616   1.280   7.534   4.952
 9792WAT      O29617   8.251   4.921   6.542
 9792WAT     H129618   8.278   4.937   6.637
 9792WAT     H229619   8.261   5.006   6.490
 9793WAT      O29620   2.068   4.062   3.054
 9793WAT     H129621   2.150   4.116   3.073
 9793WAT     H229622   2.071   4.029   2.960
 9794WAT      O29623   4.310   8.850   6.133
 9794WAT     H129624   4.353   8.821   6.219
 9794WAT     H229625   4.245   8.923   6.152
 9795WAT      O29626   5.269   5.394   6.599
 9795WAT     H129627   5.252   5.492   6.613
 9795WAT     H229628   5.213   5.341   6.663
 9796WAT      O29629   0.445   4.499   3.616
 9796WAT     H129630   0.456   4.422   3.553
 9796WAT     H229631   0.522   4.562   3.605
 9797WAT      O29632   6.976   3.662   6.320
 9797WAT     H129633   6.942   3.584   6.268
 9797WAT     H229634   6.907   3.691   6.386
 9798WAT      O29635   6.978   0.346   0.240
 9798WAT     H129636   6.992   0.247   0.250
 9798WAT     H229637   6.983   0.390   0.329
 9799WAT      O29638   8.471   7.630   8.831
 9799WAT     H129639   8.532   7.564   8.875
 9799WAT     H229640   8.466   7.713   8.887
 9800WAT      O29641   6.423   7.823   0.622
 9800WAT     H129642   6.444   7.765   0.543
 9800WAT     H229643   6.506   7.838   0.676
 9801WAT      O29644   9.583   7.129   5.115
 9801WAT     H129645   9.581   7.213   5.059
 9801WAT     H229646   9.582   7.154   5.212
 9802WAT      O29647   3.110   2.573   6.307
 9802WAT     H129648   3.118   2.512   6.228
 9802WAT     H229649   3.052   2.651   6.283
 9803WAT      O29650   5.951   3.510   2.131
 9803WAT     H129651   5.872   3.482   2.186
 9803WAT     H229652   5.923   3.518   2.035
 9804WAT      O29653   5.435   2.604   9.817
 9804WAT     H129654   5.388   2.523   9.781
 9804WAT     H229655   5.385   2.686   9.789
 9805WAT      O29656   8.396   1.231   3.814
 9805WAT     H129657   8.382   1.298   3.741
 9805WAT     H229658   8.376   1.139   3.779
 9806WAT      O29659   4.778   9.332   1.406
 9806WAT     H129660   4.839   9.384   1.466
 9806WAT     H229661   4.683   9.359   1.423
 9807WAT      O29662   7.199   0.843   6.188
 9807WAT     H129663   7.148   0.783   6.126
 9807WAT     H229664   7.280   0.794   6.223
 9808WAT      O29665   6.674   8.313   4.349
 9808WAT     H129666   6.721   8.232   4.383
 9808WAT     H229667   6.577   8.293   4.337
 9809WAT      O29668   0.654   2.603   1.167
 9809WAT     H129669   0.578   2.623   1.105
 9809WAT     H229670   0.627   2.530   1.230
 9810WAT      O29671   0.096   7.980   0.099
 9810WAT     H129672   0.175   8.004   0.156
 9810WAT     H229673   0.102   7.884   0.073
 9811WAT      O29674   2.389   1.215   8.687
 9811WAT     H129675   2.399   1.145   8.617
 9811WAT     H229676   2.476   1.264   8.698
 9812WAT      O29677   5.398   2.723   1.877
 9812WAT     H129678   5.369   2.628   1.880
 9812WAT     H229679   5.341   2.773   1.812
 9813WAT      O29680   7.698   5.858   3.373
 9813WAT     H129681   7.730   5.786   3.434
 9813WAT     H229682   7.739   5.945   3.400
 9814WAT      O29683   1.359   4.125   5.450
 9814WAT     H129684   1.276   4.169   5.417
 9814WAT     H229685   1.338   4.071   5.531
 9815WAT      O29686   5.767   2.980   4.723
 9815WAT     H129687   5.817   3.009   4.804
 9815WAT     H229688   5.793   2.886   4.700
 9816WAT      O29689   1.950   7.930   3.360
 9816WAT     H129690   1.883   7.861   3.333
 9816WAT     H229691   1.944   8.008   3.298
 9817WAT      O29692   6.917   5.766   4.636
 9817WAT     H129693   6.931   5.677   4.592
 9817WAT     H229694   7.005   5.811   4.650
 9818WAT      O29695   7.922   6.266   2.364
 9818WAT     H129696   7.942   6.322   2.283
 9818WAT     H229697   7.963   6.307   2.445
 9819WAT      O29698   7.953   8.549   0.364
 9819WAT     H129699   7.999   8.470   0.404
 9819WAT     H229700   8.016   8.599   0.305
 9820WAT      O29701   7.860   3.271   9.173
 9820WAT     H129702   7.819   3.283   9.083
 9820WAT     H229703   7.890   3.177   9.185
 9821WAT      O29704   7.168   0.047   4.166
 9821WAT     H129705   7.225   0.127   4.145
 9821WAT     H229706   7.134   0.053   4.259
 9822WAT      O29707   5.355   5.372   2.975
 9822WAT     H129708   5.285   5.438   2.946
 9822WAT     H229709   5.325   5.327   3.059
 9823WAT      O29710   7.789   8.434   8.295
 9823WAT     H129711   7.717   8.486   8.340
 9823WAT     H229712   7.870   8.432   8.354
 9824WAT      O29713   9.417   5.710   3.987
 9824WAT     H129714   9.515   5.699   3.970
 9824WAT     H229715   9.380   5.781   3.926
 9825WAT      O29716   9.587   6.916   0.665
 9825WAT     H129717   9.595   6.841   0.600
 9825WAT     H229718   9.669   6.973   0.661
 9826WAT      O29719   4.051   9.787   1.265
 9826WAT     H129720   4.141   9.791   1.220
 9826WAT     H229721   4.011   9.879   1.267
 9827WAT      O29722   6.760   0.025   1.805
 9827WAT     H129723   6.820   0.068   1.737
 9827WAT     H229724   6.668   0.015   1.767
 9828WAT      O29725   2.232   5.213   1.352
 9828WAT     H129726   2.178   5.134   1.322
 9828WAT     H229727   2.323   5.182   1.380
 9829WAT      O29728   9.017   7.917   0.349
 9829WAT     H129729   8.963   7.969   0.284
 9829WAT     H229730   9.087   7.864   0.301
 9830WAT      O29731   0.284   2.646   4.409
 9830WAT     H129732   0.325   2.589   4.338
 9830WAT     H229733   0.314   2.613   4.499
 9831WAT      O29734   0.225   2.411   8.555
 9831WAT     H129735   0.202   2.326   8.603
 9831WAT     H229736   0.322   2.433   8.570
 9832WAT      O29737   3.512   1.365   4.685
 9832WAT     H129738   3.499   1.267   4.672
 9832WAT     H229739   3.434   1.415   4.647
 9833WAT      O29740   0.345   3.605   5.625
 9833WAT     H129741   0.385   3.582   5.537
 9833WAT     H229742   0.295   3.692   5.617
 9834WAT      O29743   2.363   7.271   2.116
 9834WAT     H129744   2.303   7.331   2.169
 9834WAT     H229745   2.456   7.307   2.116
 9835WAT      O29746   3.877   6.010   2.207
 9835WAT     H129747   3.877   6.105   2.177
 9835WAT     H229748   3.934   6.000   2.289
 9836WAT      O29749   1.172   6.617   4.733
 9836WAT     H129750   1.211   6.604   4.642
 9836WAT     H229751   1.130   6.707   4.738
 9837WAT      O29752   1.092   3.191   2.186
 9837WAT     H129753   1.015   3.201   2.123
 9837WAT     H229754   1.060   3.205   2.280
 9838WAT      O29755   6.673   3.888   6.907
 9838WAT     H129756   6.582   3.856   6.933
 9838WAT     H229757   6.716   3.935   6.984
 9839WAT      O29758   6.625   8.602   9.765
 9839WAT     H129759   6.700   8.657   9.730
 9839WAT     H229760   6.539   8.633   9.724
 9840WAT      O29761   4.327   3.066   3.888
 9840WAT     H129762   4.407   3.013   3.916
 9840WAT     H229763   4.348   3.164   3.898
 9841WAT      O29764   4.696   6.630   5.552
 9841WAT     H129765   4.623   6.589   5.497
 9841WAT     H229766   4.691   6.730   5.544
 9842WAT      O29767   1.579   1.746   2.544
 9842WAT     H129768   1.537   1.808   2.478
 9842WAT     H229769   1.589   1.655   2.502
 9843WAT      O29770   5.123   8.369   8.068
 9843WAT     H129771   5.078   8.281   8.083
 9843WAT     H229772   5.074   8.440   8.119
 9844WAT      O29773   6.495   1.268   2.436
 9844WAT     H129774   6.523   1.180   2.474
 9844WAT     H229775   6.401   1.261   2.403
 9845WAT      O29776   3.998   3.548   3.199
 9845WAT     H129777   3.902   3.537   3.225
 9845WAT     H229778   4.008   3.626   3.138
 9846WAT      O29779   0.468   0.318   3.225
 9846WAT     H129780   0.378   0.359   3.211
 9846WAT     H229781   0.517   0.369   3.296
 9847WAT      O29782   1.216   2.161   8.685
 9847WAT     H129783   1.220   2.245   8.632
 9847WAT     H229784   1.137   2.164   8.746
 9848WAT      O29785   9.538   1.939   3.872
 9848WAT     H129786   9.621   1.991   3.892
 9848WAT     H229787   9.557   1.842   3.883
 9849WAT      O29788   1.396   5.512   8.851
 9849WAT     H129789   1.457   5.583   8.815
 9849WAT     H229790   1.422   5.490   8.945
 9850WAT      O29791   5.613   8.842   3.264
 9850WAT     H129792   5.609   8.854   3.165
 9850WAT     H229793   5.526   8.807   3.297
 9851WAT      O29794   6.399   3.257   7.444
 9851WAT     H129795   6.478   3.286   7.499
 9851WAT     H229796   6.391   3.318   7.364
 9852WAT      O29797   8.121   5.213   0.593
 9852WAT     H129798   8.044   5.199   0.655
 9852WAT     H229799   8.092   5.194   0.499
 9853WAT      O29800   9.385   1.531   5.878
 9853WAT     H129801   9.441   1.533   5.961
 9853WAT     H229802   9.365   1.437   5.853
 9854WAT      O29803   3.046   3.908   5.906
 9854WAT     H129804   3.085   3.996   5.932
 9854WAT     H229805   3.079   3.882   5.815
 9855WAT      O29806   9.702   4.583   6.243
 9855WAT     H129807   9.680   4.512   6.175
 9855WAT     H229808   9.793   4.619   6.225
 9856WAT      O29809   9.445   3.337   7.470
 9856WAT     H129810   9.376   3.386   7.524
 9856WAT     H229811   9.427   3.351   7.373
 9857WAT      O29812   4.583   8.875   3.841
 9857WAT     H129813   4.678   8.853   3.824
 9857WAT     H229814   4.528   8.791   3.839
 9858WAT      O29815   2.350   3.810   1.684
 9858WAT     H129816   2.385   3.894   1.643
 9858WAT     H229817   2.251   3.819   1.699
 9859WAT      O29818   5.236   6.723   9.123
 9859WAT     H129819   5.169   6.649   9.113
 9859WAT     H229820   5.320   6.686   9.161
 9860WAT      O29821   4.743   9.749   0.817
 9860WAT     H129822   4.759   9.808   0.737
 9860WAT     H229823   4.825   9.750   0.875
 9861WAT      O29824   2.348   0.368   5.494
 9861WAT     H129825   2.276   0.430   5.525
 9861WAT     H229826   2.366   0.384   5.397
 9862WAT      O29827   8.767   9.180   8.190
 9862WAT     H129828   8.668   9.168   8.194
 9862WAT     H229829   8.809   9.095   8.159
 9863WAT      O29830   0.412   9.655   8.632
 9863WAT     H129831   0.405   9.676   8.730
 9863WAT     H229832   0.342   9.588   8.608
 9864WAT      O29833   8.759   9.607   9.329
 9864WAT     H129834   8.674   9.557   9.346
 9864WAT     H229835   8.836   9.550   9.358
 9865WAT      O29836   9.176   1.393   8.886
 9865WAT     H129837   9.111   1.468   8.900
 9865WAT     H229838   9.261   1.413   8.934
 9866WAT      O29839   1.915   7.559   8.705
 9866WAT     H129840   1.856   7.577   8.626
 9866WAT     H229841   1.860   7.563   8.789
 9867WAT      O29842   6.705   1.024   1.088
 9867WAT     H129843   6.753   1.046   1.003
 9867WAT     H229844   6.609   1.052   1.080
 9868WAT      O29845   9.384   2.359   8.325
 9868WAT     H129846   9.382   2.454   8.293
 9868WAT     H229847   9.375   2.298   8.246
 9869WAT      O29848   3.502   0.781   2.413
 9869WAT     H129849   3.528   0.759   2.507
 9869WAT     H229850   3.432   0.852   2.413
 9870WAT      O29851   5.558   4.961   6.908
 9870WAT     H129852   5.644   4.985   6.952
 9870WAT     H229853   5.542   5.019   6.829
 9871WAT      O29854   1.936   9.488   3.318
 9871WAT     H129855   1.950   9.585   3.335
 9871WAT     H229856   1.918   9.441   3.404
 9872WAT      O29857   1.545   0.565   6.555
 9872WAT     H129858   1.540   0.540   6.652
 9872WAT     H229859   1.567   0.484   6.501
 9873WAT      O29860   3.214   2.555   1.852
 9873WAT     H129861   3.203   2.621   1.778
 9873WAT     H229862   3.311   2.540   1.870
 9874WAT      O29863   3.931   5.075   9.562
 9874WAT     H129864   3.930   5.041   9.655
 9874WAT     H229865   4.025   5.076   9.527
 9875WAT      O29866   3.968   2.171   7.436
 9875WAT     H129867   4.067   2.169   7.452
 9875WAT     H229868   3.947   2.124   7.351
 9876WAT      O29869   5.494   5.229   8.304
 9876WAT     H129870   5.531   5.256   8.393
 9876WAT     H229871   5.512   5.300   8.237
 9877WAT      O29872   3.907   8.357   7.697
 9877WAT     H129873   3.875   8.404   7.780
 9877WAT     H229874   3.880   8.409   7.617
 9878WAT      O29875   5.860   9.731   2.371
 9878WAT     H129876   5.802   9.657   2.404
 9878WAT     H229877   5.956   9.706   2.383
 9879WAT      O29878   9.487   4.099   0.387
 9879WAT     H129879   9.432   4.181   0.373
 9879WAT     H229880   9.430   4.018   0.374
 9880WAT      O29881   5.319   7.379   4.786
 9880WAT     H129882   5.373   7.426   4.716
 9880WAT     H229883   5.371   7.375   4.871
 9881WAT      O29884   9.411   7.662   1.084
 9881WAT     H129885   9.346   7.717   1.136
 9881WAT     H229886   9.490   7.640   1.141
 9882WAT      O29887   0.448   1.939   2.654
 9882WAT     H129888   0.380   1.997   2.608
 9882WAT     H229889   0.402   1.884   2.724
 9883WAT      O29890   6.351   1.118   8.539
 9883WAT     H129891   6.266   1.122   8.486
 9883WAT     H229892   6.419   1.067   8.487
 9884WAT      O29893   7.128   6.580   1.449
 9884WAT     H129894   7.056   6.616   1.508
 9884WAT     H229895   7.112   6.609   1.355
 9885WAT      O29896   1.241   1.687   0.802
 9885WAT     H129897   1.279   1.753   0.867
 9885WAT     H229898   1.269   1.711   0.709
 9886WAT      O29899   6.833   2.815   3.621
 9886WAT     H129900   6.861   2.893   3.679
 9886WAT     H229901   6.871   2.827   3.530
 9887WAT      O29902   8.034   8.798   0.505
 9887WAT     H129903   8.007   8.709   0.468
 9887WAT     H229904   8.116   8.788   0.562
 9888WAT      O29905   6.582   5.094   0.716
 9888WAT     H129906   6.512   5.151   0.760
 9888WAT     H229907   6.559   5.082   0.620
 9889WAT      O29908   2.216   7.946   4.870
 9889WAT     H129909   2.168   7.859   4.861
 9889WAT     H229910   2.176   7.998   4.946
 9890WAT      O29911   1.608   6.894   7.214
 9890WAT     H129912   1.615   6.978   7.161
 9890WAT     H229913   1.697   6.847   7.214
 9891WAT      O29914   8.505   5.169   7.963
 9891WAT     H129915   8.520   5.196   7.868
 9891WAT     H229916   8.409   5.185   7.988
 9892WAT      O29917   7.262   8.335   2.539
 9892WAT     H129918   7.182   8.390   2.562
 9892WAT     H229919   7.233   8.254   2.488
 9893WAT      O29920   0.390   7.028   9.540
 9893WAT     H129921   0.481   7.070   9.548
 9893WAT     H229922   0.397   6.929   9.556
 9894WAT      O29923   5.154   3.866   9.706
 9894WAT     H129924   5.238   3.920   9.708
 9894WAT     H229925   5.166   3.789   9.643
 9895WAT      O29926   3.963   3.952   7.988
 9895WAT     H129927   4.018   4.032   8.010
 9895WAT     H229928   4.008   3.899   7.916
 9896WAT      O29929   2.567   4.196   2.544
 9896WAT     H129930   2.552   4.142   2.627
 9896WAT     H229931   2.665   4.204   2.527
 9897WAT      O29932   5.143   9.280   4.309
 9897WAT     H129933   5.209   9.352   4.292
 9897WAT     H229934   5.052   9.310   4.279
 9898WAT      O29935   7.910   6.267   6.705
 9898WAT     H129936   7.922   6.220   6.792
 9898WAT     H229937   7.832   6.227   6.656
 9899WAT      O29938   8.493   5.265   6.820
 9899WAT     H129939   8.593   5.263   6.819
 9899WAT     H229940   8.462   5.342   6.876
 9900WAT      O29941   6.648   3.179   7.584
 9900WAT     H129942   6.642   3.127   7.670
 9900WAT     H229943   6.674   3.117   7.510
 9901WAT      O29944   2.503   5.286   5.203
 9901WAT     H129945   2.574   5.227   5.241
 9901WAT     H229946   2.444   5.320   5.277
 9902WAT      O29947   0.229   1.791   2.885
 9902WAT     H129948   0.150   1.836   2.927
 9902WAT     H229949   0.310   1.804   2.943
 9903WAT      O29950   2.951   2.601   4.669
 9903WAT     H129951   3.001   2.647   4.595
 9903WAT     H229952   2.899   2.524   4.630
 9904WAT      O29953   1.646   3.421   6.460
 9904WAT     H129954   1.611   3.490   6.396
 9904WAT     H229955   1.726   3.377   6.420
 9905WAT      O29956   0.299   6.764   2.765
 9905WAT     H129957   0.222   6.826   2.748
 9905WAT     H229958   0.376   6.814   2.804
 9906WAT      O29959   6.523   7.629   6.636
 9906WAT     H129960   6.465   7.657   6.559
 9906WAT     H229961   6.607   7.683   6.635
 9907WAT      O29962   5.779   1.465   4.351
 9907WAT     H129963   5.713   1.393   4.370
 9907WAT     H229964   5.775   1.490   4.255
 9908WAT      O29965   4.316   3.776   9.482
 9908WAT     H129966   4.224   3.812   9.467
 9908WAT     H229967   4.364   3.836   9.547
 9909WAT      O29968   6.097   8.399   7.555
 9909WAT     H129969   6.013   8.406   7.500
 9909WAT     H229970   6.075   8.360   7.644
 9910WAT      O29971   8.748   4.554   5.409
 9910WAT     H129972   8.791   4.500   5.336
 9910WAT     H229973   8.655   4.521   5.423
 9911WAT      O29974   1.485   8.410   8.667
 9911WAT     H129975   1.429   8.335   8.631
 9911WAT     H229976   1.429   8.492   8.676
 9912WAT      O29977   6.897   3.673   7.674
 9912WAT     H129978   6.913   3.685   7.576
 9912WAT     H229979   6.821   3.732   7.703
 9913WAT      O29980   5.909   0.111   0.020
 9913WAT     H129981   5.973   0.172  -0.027
 9913WAT     H229982   5.860   0.162   0.091
 9914WAT      O29983   8.260   0.877   9.075
 9914WAT     H129984   8.162   0.892   9.077
 9914WAT     H229985   8.291   0.842   9.164
 9915WAT      O29986   7.588   4.440   5.156
 9915WAT     H129987   7.595   4.357   5.101
 9915WAT     H229988   7.649   4.433   5.235
 9916WAT      O29989   3.198   5.568   1.538
 9916WAT     H129990   3.277   5.629   1.529
 9916WAT     H229991   3.164   5.570   1.632
 9917WAT      O29992   4.991   5.332   7.724
 9917WAT     H129993   5.071   5.391   7.731
 9917WAT     H229994   5.018   5.244   7.685
 9918WAT      O29995   8.361   3.960   4.323
 9918WAT     H129996   8.455   3.992   4.335
 9918WAT     H229997   8.336   3.899   4.398
 9919WAT      O29998   2.444   0.463   4.031
 9919WAT     H129999   2.396   0.545   4.001
 9919WAT     H230000   2.534   0.488   4.067
 9920WAT      O30001   5.292   1.832   7.362
 9920WAT     H130002   5.215   1.810   7.303
 9920WAT     H230003   5.287   1.778   7.446
 9921WAT      O30004   4.977   4.943   2.514
 9921WAT     H130005   4.908   4.925   2.444
 9921WAT     H230006   4.933   4.957   2.602
 9922WAT      O30007   2.196   1.622   0.625
 9922WAT     H130008   2.272   1.685   0.611
 9922WAT     H230009   2.122   1.669   0.674
 9923WAT      O30010   1.807   6.387   0.710
 9923WAT     H130011   1.844   6.295   0.722
 9923WAT     H230012   1.881   6.453   0.710
 9924WAT      O30013   7.273   7.960   1.722
 9924WAT     H130014   7.289   8.004   1.634
 9924WAT     H230015   7.281   8.028   1.795
 9925WAT      O30016   9.493   5.267   4.035
 9925WAT     H130017   9.522   5.172   4.025
 9925WAT     H230018   9.444   5.278   4.122
 9926WAT      O30019   1.203   6.569   7.710
 9926WAT     H130020   1.227   6.489   7.765
 9926WAT     H230021   1.287   6.611   7.674
 9927WAT      O30022   2.381   9.743   8.109
 9927WAT     H130023   2.357   9.716   8.203
 9927WAT     H230024   2.442   9.675   8.070
 9928WAT      O30025   8.308   8.727   8.380
 9928WAT     H130026   8.372   8.765   8.313
 9928WAT     H230027   8.230   8.789   8.391
 9929WAT      O30028   1.236   9.641   3.370
 9929WAT     H130029   1.221   9.739   3.366
 9929WAT     H230030   1.264   9.616   3.463
 9930WAT      O30031   9.655   3.752   9.313
 9930WAT     H130032   9.635   3.669   9.364
 9930WAT     H230033   9.733   3.799   9.355
 9931WAT      O30034   0.055   0.758   9.538
 9931WAT     H130035   0.106   0.698   9.599
 9931WAT     H230036   0.092   0.750   9.445
 9932WAT      O30037   6.716   3.791   9.372
 9932WAT     H130038   6.795   3.741   9.409
 9932WAT     H230039   6.712   3.779   9.273
 9933WAT      O30040   5.541   5.304   8.004
 9933WAT     H130041   5.603   5.295   7.926
 9933WAT     H230042   5.489   5.219   8.014
 9934WAT      O30043   5.677   8.787   6.537
 9934WAT     H130044   5.628   8.871   6.514
 9934WAT     H230045   5.621   8.708   6.512
 9935WAT      O30046   1.500   1.273   2.790
 9935WAT     H130047   1.587   1.244   2.748
 9935WAT     H230048   1.426   1.264   2.723
 9936WAT      O30049   4.088   5.174   0.032
 9936WAT     H130050   4.127   5.245  -0.026
 9936WAT     H230051   4.156   5.101   0.046
 9937WAT      O30052   9.154   8.117   8.546
 9937WAT     H130053   9.065   8.102   8.590
 9937WAT     H230054   9.183   8.211   8.561
 9938WAT      O30055   5.755   2.707   4.634
 9938WAT     H130056   5.809   2.703   4.550
 9938WAT     H230057   5.658   2.710   4.610
 9939WAT      O30058   1.822   2.316   9.699
 9939WAT     H130059   1.765   2.353   9.772
 9939WAT     H230060   1.824   2.380   9.622
 9940WAT      O30061   0.431   9.798   3.861
 9940WAT     H130062   0.331   9.794   3.851
 9940WAT     H230063   0.456   9.886   3.902
 9941WAT      O30064   6.401   9.791   2.549
 9941WAT     H130065   6.405   9.691   2.559
 9941WAT     H230066   6.445   9.834   2.628
 9942WAT      O30067   1.334   9.050   1.561
 9942WAT     H130068   1.330   9.120   1.632
 9942WAT     H230069   1.389   9.083   1.484
 9943WAT      O30070   8.142   3.514   2.580
 9943WAT     H130071   8.212   3.444   2.574
 9943WAT     H230072   8.128   3.540   2.675
 9944WAT      O30073   9.147   2.369   8.477
 9944WAT     H130074   9.228   2.356   8.420
 9944WAT     H230075   9.110   2.461   8.460
 9945WAT      O30076   6.033   5.503   3.138
 9945WAT     H130077   5.953   5.460   3.097
 9945WAT     H230078   6.053   5.459   3.226
 9946WAT      O30079   0.046   6.654   8.602
 9946WAT     H130080   0.046   6.653   8.502
 9946WAT     H230081   0.122   6.711   8.634
 9947WAT      O30082   7.848   3.385   4.900
 9947WAT     H130083   7.892   3.410   4.987
 9947WAT     H230084   7.750   3.372   4.915
 9948WAT      O30085   5.624   0.692   1.713
 9948WAT     H130086   5.579   0.635   1.645
 9948WAT     H230087   5.570   0.776   1.726
 9949WAT      O30088   7.987   0.389   2.856
 9949WAT     H130089   7.935   0.385   2.771
 9949WAT     H230090   8.068   0.330   2.848
 9950WAT      O30091   8.313   8.739   1.785
 9950WAT     H130092   8.368   8.697   1.857
 9950WAT     H230093   8.373   8.783   1.718
 9951WAT      O30094   6.952   1.638   5.029
 9951WAT     H130095   6.910   1.561   4.980
 9951WAT     H230096   7.038   1.663   4.985
 9952WAT      O30097   4.354   5.236   4.818
 9952WAT     H130098   4.291   5.168   4.779
 9952WAT     H230099   4.321   5.264   4.908
 9953WAT      O30100   1.668   9.275   5.152
 9953WAT     H130101   1.589   9.310   5.204
 9953WAT     H230102   1.726   9.351   5.125
 9954WAT      O30103   6.673   3.408   9.040
 9954WAT     H130104   6.592   3.425   9.096
 9954WAT     H230105   6.646   3.400   8.944
 9955WAT      O30106   4.683   7.757   3.686
 9955WAT     H130107   4.633   7.767   3.600
 9955WAT     H230108   4.775   7.723   3.667
 9956WAT      O30109   4.591   1.411   8.809
 9956WAT     H130110   4.555   1.384   8.720
 9956WAT     H230111   4.516   1.413   8.875
 9957WAT      O30112   1.458   3.884   2.230
 9957WAT     H130113   1.475   3.897   2.133
 9957WAT     H230114   1.424   3.791   2.246
 9958WAT      O30115   8.925   7.521   1.093
 9958WAT     H130116   8.876   7.608   1.088
 9958WAT     H230117   9.024   7.538   1.098
 9959WAT      O30118   3.566   7.198   0.564
 9959WAT     H130119   3.619   7.134   0.509
 9959WAT     H230120   3.511   7.256   0.504
 9960WAT      O30121   1.665   5.904   1.988
 9960WAT     H130122   1.752   5.930   1.947
 9960WAT     H230123   1.679   5.886   2.086
 9961WAT      O30124   2.018   3.507   7.244
 9961WAT     H130125   2.008   3.482   7.148
 9961WAT     H230126   2.008   3.606   7.254
 9962WAT      O30127   8.594   4.990   5.582
 9962WAT     H130128   8.500   5.010   5.557
 9962WAT     H230129   8.613   5.028   5.673
 9963WAT      O30130   6.757   7.314   8.275
 9963WAT     H130131   6.686   7.341   8.339
 9963WAT     H230132   6.717   7.259   8.202
 9964WAT      O30133   3.531   7.808   9.770
 9964WAT     H130134   3.492   7.789   9.860
 9964WAT     H230135   3.499   7.739   9.705
 9965WAT      O30136   9.879   5.414   0.382
 9965WAT     H130137   9.859   5.490   0.443
 9965WAT     H230138   9.931   5.345   0.432
 9966WAT      O30139   2.556   4.695   1.297
 9966WAT     H130140   2.531   4.733   1.208
 9966WAT     H230141   2.474   4.681   1.352
 9967WAT      O30142   4.122   6.455   1.943
 9967WAT     H130143   4.188   6.427   1.873
 9967WAT     H230144   4.069   6.533   1.909
 9968WAT      O30145   3.042   8.796   6.286
 9968WAT     H130146   3.097   8.800   6.202
 9968WAT     H230147   3.057   8.878   6.340
 9969WAT      O30148   4.480   2.532   5.385
 9969WAT     H130149   4.531   2.448   5.369
 9969WAT     H230150   4.384   2.518   5.365
 9970WAT      O30151   2.241   4.617   2.514
 9970WAT     H130152   2.340   4.619   2.508
 9970WAT     H230153   2.205   4.536   2.467
 9971WAT      O30154   2.969   9.405   2.011
 9971WAT     H130155   3.053   9.359   1.983
 9971WAT     H230156   2.892   9.371   1.956
 9972WAT      O30157   7.051   9.239   6.103
 9972WAT     H130158   7.142   9.218   6.066
 9972WAT     H230159   7.032   9.336   6.089
 9973WAT      O30160   5.089   0.427   8.279
 9973WAT     H130161   5.148   0.480   8.218
 9973WAT     H230162   4.994   0.440   8.253
 9974WAT      O30163   8.775   0.157   7.967
 9974WAT     H130164   8.735   0.113   7.888
 9974WAT     H230165   8.712   0.151   8.045
 9975WAT      O30166   2.067   6.513   5.046
 9975WAT     H130167   2.115   6.530   5.132
 9975WAT     H230168   2.062   6.597   4.993
 9976WAT      O30169   9.729   2.975   1.324
 9976WAT     H130170   9.795   3.050   1.325
 9976WAT     H230171   9.705   2.953   1.230
 9977WAT      O30172   3.668   3.272   1.201
 9977WAT     H130173   3.766   3.252   1.214
 9977WAT     H230174   3.614   3.196   1.237
 9978WAT      O30175   6.845   6.090   2.865
 9978WAT     H130176   6.776   6.041   2.812
 9978WAT     H230177   6.876   6.169   2.813
 9979WAT      O30178   9.246   7.281   6.720
 9979WAT     H130179   9.332   7.246   6.756
 9979WAT     H230180   9.258   7.377   6.694
 9980WAT      O30181   3.594   0.709   3.247
 9980WAT     H130182   3.502   0.736   3.219
 9980WAT     H230183   3.660   0.738   3.177
 9981WAT      O30184   3.997   5.892   6.707
 9981WAT     H130185   4.064   5.964   6.688
 9981WAT     H230186   3.905   5.929   6.693
 9982WAT      O30187   3.320   6.388   4.573
 9982WAT     H130188   3.260   6.336   4.633
 9982WAT     H230189   3.275   6.474   4.547
 9983WAT      O30190   3.483   2.440   8.634
 9983WAT     H130191   3.400   2.495   8.631
 9983WAT     H230192   3.460   2.347   8.665
 9984WAT      O30193   8.018   6.650   6.164
 9984WAT     H130194   7.958   6.628   6.241
 9984WAT     H230195   7.963   6.670   6.083
 9985WAT      O30196   3.327   5.284   5.944
 9985WAT     H130197   3.251   5.223   5.919
 9985WAT     H230198   3.297   5.347   6.015
 9986WAT      O30199   4.067   8.875   6.725
 9986WAT     H130200   4.015   8.957   6.702
 9986WAT     H230201   4.039   8.842   6.815
 9987WAT      O30202   1.757   4.765   6.185
 9987WAT     H130203   1.748   4.806   6.094
 9987WAT     H230204   1.830   4.811   6.235
 9988WAT      O30205   6.388   3.513   0.109
 9988WAT     H130206   6.374   3.610   0.090
 9988WAT     H230207   6.379   3.497   0.207
 9989WAT      O30208   1.893   3.626   3.319
 9989WAT     H130209   1.931   3.709   3.277
 9989WAT     H230210   1.897   3.635   3.419
 9990WAT      O30211   6.105   7.409   7.907
 9990WAT     H130212   6.068   7.318   7.924
 9990WAT     H230213   6.128   7.452   7.994
 9991WAT      O30214   7.614   5.072   3.897
 9991WAT     H130215   7.541   5.140   3.893
 9991WAT     H230216   7.678   5.097   3.970
 9992WAT      O30217   7.178   3.000   0.328
 9992WAT     H130218   7.248   3.005   0.257
 9992WAT     H230219   7.089   2.981   0.286
 9993WAT      O30220   2.290   3.725   1.259
 9993WAT     H130221   2.240   3.811   1.271
 9993WAT     H230222   2.344   3.707   1.341
 9994WAT      O30223   6.972   6.469   7.442
 9994WAT     H130224   6.948   6.519   7.359
 9994WAT     H230225   6.890   6.455   7.497
 9995WAT      O30226   9.080   4.984   8.631
 9995WAT     H130227   9.103   4.894   8.669
 9995WAT     H230228   9.150   5.011   8.566
 9996WAT      O30229   6.008   4.385   8.191
 9996WAT     H130230   5.995   4.478   8.158
 9996WAT     H230231   5.997   4.383   8.291
 9997WAT      O30232   2.448   3.355   4.110
 9997WAT     H130233   2.463   3.327   4.204
 9997WAT     H230234   2.351   3.374   4.096
 9998WAT      O30235   1.466   5.918   6.820
 9998WAT     H130236   1.444   5.988   6.752
 9998WAT     H230237   1.482   5.830   6.774
 9999WAT      O30238   2.803   8.128   6.753
 9999WAT     H130239   2.873   8.122   6.823
 9999WAT     H230240   2.786   8.224   6.731
10000WAT      O30241   6.167   2.032   3.370
10000WAT     H130242   6.143   2.051   3.275
10000WAT     H230243   6.138   2.108   3.428
10001WAT      O30244   6.374   1.268   4.349
10001WAT     H130245   6.293   1.260   4.291
10001WAT     H230246   6.366   1.352   4.404
10002WAT      O30247   2.130   8.171   5.377
10002WAT     H130248   2.100   8.263   5.400
10002WAT     H230249   2.230   8.167   5.377
10003WAT      O30250   5.293   2.106   2.790
10003WAT     H130251   5.226   2.043   2.751
10003WAT     H230252   5.252   2.197   2.797
10004WAT      O30253   0.978   8.222   8.867
10004WAT     H130254   1.066   8.180   8.847
10004WAT     H230255   0.919   8.155   8.913
10005WAT      O30256   2.840   8.180   8.880
10005WAT     H130257   2.802   8.205   8.970
10005WAT     H230258   2.932   8.143   8.893
10006WAT      O30259   5.119   2.241   3.924
10006WAT     H130260   5.218   2.246   3.933
10006WAT     H230261   5.094   2.251   3.827
10007WAT      O30262   4.397   6.062   1.229
10007WAT     H130263   4.323   6.029   1.288
10007WAT     H230264   4.436   5.985   1.179
10008WAT      O30265   5.538   8.596   7.711
10008WAT     H130266   5.581   8.543   7.785
10008WAT     H230267   5.592   8.678   7.693
10009WAT      O30268   7.811   2.908   7.520
10009WAT     H130269   7.718   2.923   7.555
10009WAT     H230270   7.876   2.913   7.595
10010WAT      O30271   3.619   5.466   5.350
10010WAT     H130272   3.568   5.472   5.435
10010WAT     H230273   3.713   5.438   5.369
10011WAT      O30274   4.454   1.526   8.571
10011WAT     H130275   4.367   1.576   8.570
10011WAT     H230276   4.443   1.439   8.524
10012WAT      O30277   1.524   1.357   5.847
10012WAT     H130278   1.487   1.447   5.870
10012WAT     H230279   1.598   1.334   5.910
10013WAT      O30280   8.520   2.066   5.975
10013WAT     H130281   8.598   2.019   5.934
10013WAT     H230282   8.495   2.023   6.061
10014WAT      O30283   0.601   6.274   8.880
10014WAT     H130284   0.604   6.348   8.813
10014WAT     H230285   0.533   6.294   8.950
10015WAT      O30286   9.657   4.992   3.961
10015WAT     H130287   9.704   5.031   4.040
10015WAT     H230288   9.568   4.956   3.988
10016WAT      O30289   7.841   6.444   0.927
10016WAT     H130290   7.904   6.521   0.932
10016WAT     H230291   7.815   6.428   0.831
10017WAT      O30292   3.017   8.136   6.989
10017WAT     H130293   2.990   8.155   7.084
10017WAT     H230294   3.087   8.065   6.988
10018WAT      O30295   2.871   5.026   1.345
10018WAT     H130296   2.928   4.955   1.305
10018WAT     H230297   2.787   5.035   1.292
10019WAT      O30298   5.534   3.690   5.389
10019WAT     H130299   5.607   3.737   5.438
10019WAT     H230300   5.521   3.733   5.299
10020WAT      O30301   5.412   1.543   9.669
10020WAT     H130302   5.476   1.481   9.625
10020WAT     H230303   5.421   1.635   9.631
10021WAT      O30304   3.728   5.095   4.407
10021WAT     H130305   3.800   5.123   4.344
10021WAT     H230306   3.650   5.158   4.400
10022WAT      O30307   6.120   3.727   2.260
10022WAT     H130308   6.081   3.753   2.348
10022WAT     H230309   6.050   3.682   2.204
10023WAT      O30310   8.204   3.514   0.068
10023WAT     H130311   8.134   3.572   0.110
10023WAT     H230312   8.290   3.523   0.118
10024WAT      O30313   4.438   5.635   1.044
10024WAT     H130314   4.449   5.541   1.012
10024WAT     H230315   4.385   5.635   1.129
10025WAT      O30316   2.842   2.190   7.330
10025WAT     H130317   2.888   2.106   7.300
10025WAT     H230318   2.804   2.176   7.421
10026WAT      O30319   0.848   2.312   5.173
10026WAT     H130320   0.920   2.381   5.169
10026WAT     H230321   0.888   2.221   5.160
10027WAT      O30322   6.615   2.522   5.590
10027WAT     H130323   6.649   2.506   5.682
10027WAT     H230324   6.612   2.436   5.540
10028WAT      O30325   0.613   2.434   5.276
10028WAT     H130326   0.679   2.383   5.219
10028WAT     H230327   0.576   2.510   5.223
10029WAT      O30328   2.306   1.615   4.226
10029WAT     H130329   2.291   1.555   4.147
10029WAT     H230330   2.391   1.590   4.271
10030WAT      O30331   8.133   8.239   7.076
10030WAT     H130332   8.200   8.166   7.087
10030WAT     H230333   8.068   8.215   7.004
10031WAT      O30334   8.624   3.143   4.209
10031WAT     H130335   8.660   3.230   4.241
10031WAT     H230336   8.700   3.083   4.184
10032WAT      O30337   7.307   0.816   3.369
10032WAT     H130338   7.316   0.877   3.448
10032WAT     H230339   7.268   0.866   3.292
10033WAT      O30340   6.754   7.097   0.728
10033WAT     H130341   6.718   7.190   0.720
10033WAT     H230342   6.703   7.048   0.799
10034WAT      O30343   8.232   1.750   2.605
10034WAT     H130344   8.152   1.725   2.550
10034WAT     H230345   8.285   1.669   2.625
10035WAT      O30346   3.135   3.701   2.017
10035WAT     H130347   3.123   3.706   2.116
10035WAT     H230348   3.102   3.613   1.983
10036WAT      O30349   1.381   4.372   7.421
10036WAT     H130350   1.369   4.413   7.331
10036WAT     H230351   1.370   4.442   7.492
10037WAT      O30352   4.392   3.234   2.470
10037WAT     H130353   4.473   3.253   2.527
10037WAT     H230354   4.396   3.139   2.439
10038WAT      O30355   6.832   1.674   7.273
10038WAT     H130356   6.763   1.666   7.201
10038WAT     H230357   6.815   1.755   7.328
10039WAT      O30358   2.203   2.233   2.503
10039WAT     H130359   2.199   2.219   2.404
10039WAT     H230360   2.262   2.164   2.545
10040WAT      O30361   0.846   0.832   1.001
10040WAT     H130362   0.870   0.843   0.904
10040WAT     H230363   0.791   0.750   1.013
10041WAT      O30364   0.888   4.494   2.138
10041WAT     H130365   0.901   4.472   2.235
10041WAT     H230366   0.791   4.511   2.121
10042WAT      O30367   2.398   1.709   3.434
10042WAT     H130368   2.318   1.675   3.484
10042WAT     H230369   2.480   1.695   3.488
10043WAT      O30370   3.279   4.512   4.589
10043WAT     H130371   3.366   4.546   4.623
10043WAT     H230372   3.211   4.585   4.592
10044WAT      O30373   8.041   9.002   7.873
10044WAT     H130374   8.139   8.989   7.892
10044WAT     H230375   7.987   8.955   7.943
10045WAT      O30376   9.199   3.369   9.244
10045WAT     H130377   9.211   3.328   9.335
10045WAT     H230378   9.160   3.301   9.182
10046WAT      O30379   5.272   2.905   8.660
10046WAT     H130380   5.239   2.932   8.569
10046WAT     H230381   5.211   2.941   8.730
10047WAT      O30382   9.781   9.703   3.115
10047WAT     H130383   9.878   9.730   3.115
10047WAT     H230384   9.745   9.708   3.021
10048WAT      O30385   4.826   5.919   6.101
10048WAT     H130386   4.796   5.857   6.029
10048WAT     H230387   4.923   5.940   6.088
10049WAT      O30388   3.976   7.875   1.003
10049WAT     H130389   3.908   7.802   0.994
10049WAT     H230390   4.068   7.835   1.002
10050WAT      O30391   3.735   1.795   3.500
10050WAT     H130392   3.692   1.710   3.470
10050WAT     H230393   3.769   1.784   3.593
10051WAT      O30394   5.936   0.449   5.602
10051WAT     H130395   5.890   0.477   5.517
10051WAT     H230396   6.031   0.427   5.582
10052WAT      O30397   2.328   5.058   9.879
10052WAT     H130398   2.390   5.015   9.946
10052WAT     H230399   2.381   5.104   9.809
10053WAT      O30400   3.138   6.599   6.696
10053WAT     H130401   3.050   6.551   6.698
10053WAT     H230402   3.143   6.656   6.614
10054WAT      O30403   4.347   7.581   9.023
10054WAT     H130404   4.413   7.654   9.005
10054WAT     H230405   4.265   7.595   8.967
10055WAT      O30406   7.434   7.907   9.470
10055WAT     H130407   7.503   7.849   9.513
10055WAT     H230408   7.431   7.888   9.372
10056WAT      O30409   3.081   1.020   3.050
10056WAT     H130410   3.161   1.039   2.993
10056WAT     H230411   3.011   1.090   3.032
10057WAT      O30412   1.171   5.755   6.615
10057WAT     H130413   1.143   5.662   6.637
10057WAT     H230414   1.137   5.780   6.524
10058WAT      O30415   4.134   9.044   6.076
10058WAT     H130416   4.140   9.108   6.153
10058WAT     H230417   4.129   9.095   5.990
10059WAT      O30418   3.395   2.353   1.563
10059WAT     H130419   3.416   2.292   1.486
10059WAT     H230420   3.350   2.435   1.529
10060WAT      O30421   5.364   8.852   4.795
10060WAT     H130422   5.293   8.784   4.775
10060WAT     H230423   5.349   8.933   4.739
10061WAT      O30424   5.643   2.466   2.850
10061WAT     H130425   5.716   2.472   2.919
10061WAT     H230426   5.558   2.440   2.895
10062WAT      O30427   5.780   2.028   0.663
10062WAT     H130428   5.809   2.121   0.683
10062WAT     H230429   5.691   2.011   0.705
10063WAT      O30430   8.842   2.000   0.122
10063WAT     H130431   8.752   1.967   0.097
10063WAT     H230432   8.855   1.989   0.221
10064WAT      O30433   6.528   5.062   5.681
10064WAT     H130434   6.522   4.962   5.675
10064WAT     H230435   6.624   5.089   5.679
10065WAT      O30436   9.831   1.579   8.983
10065WAT     H130437   9.801   1.674   8.996
10065WAT     H230438   9.931   1.576   8.982
10066WAT      O30439   6.665   5.210   1.845
10066WAT     H130440   6.674   5.178   1.939
10066WAT     H230441   6.730   5.285   1.829
10067WAT      O30442   1.320   1.292   0.954
10067WAT     H130443   1.272   1.305   0.868
10067WAT     H230444   1.268   1.230   1.012
10068WAT      O30445   9.084   1.378   8.381
10068WAT     H130446   9.085   1.478   8.381
10068WAT     H230447   9.139   1.344   8.457
10069WAT      O30448   9.456   7.855   8.078
10069WAT     H130449   9.465   7.931   8.013
10069WAT     H230450   9.519   7.781   8.053
10070WAT      O30451   0.489   5.002   1.078
10070WAT     H130452   0.507   5.096   1.108
10070WAT     H230453   0.453   4.949   1.154
10071WAT      O30454   2.241   0.738   3.106
10071WAT     H130455   2.267   0.672   3.177
10071WAT     H230456   2.273   0.829   3.132
10072WAT      O30457   7.141   3.798   5.124
10072WAT     H130458   7.172   3.893   5.117
10072WAT     H230459   7.220   3.738   5.118
10073WAT      O30460   7.380   0.373   5.016
10073WAT     H130461   7.405   0.323   4.933
10073WAT     H230462   7.284   0.357   5.036
10074WAT      O30463   4.243   1.252   7.077
10074WAT     H130464   4.285   1.297   6.998
10074WAT     H230465   4.223   1.320   7.147
10075WAT      O30466   8.058   6.020   3.984
10075WAT     H130467   7.966   6.053   4.005
10075WAT     H230468   8.058   5.920   3.981
10076WAT      O30469   9.794   7.902   5.079
10076WAT     H130470   9.865   7.832   5.089
10076WAT     H230471   9.732   7.897   5.158
10077WAT      O30472   4.145   1.497   1.975
10077WAT     H130473   4.209   1.446   2.034
10077WAT     H230474   4.106   1.435   1.908
10078WAT      O30475   8.580   3.451   4.100
10078WAT     H130476   8.643   3.435   4.176
10078WAT     H230477   8.548   3.546   4.103
10079WAT      O30478   3.983   9.223   5.020
10079WAT     H130479   3.913   9.287   5.051
10079WAT     H230480   3.939   9.137   4.994
10080WAT      O30481   1.811   5.097   0.127
10080WAT     H130482   1.899   5.058   0.100
10080WAT     H230483   1.785   5.169   0.063
10081WAT      O30484   5.249   6.017   0.622
10081WAT     H130485   5.192   6.033   0.542
10081WAT     H230486   5.221   5.933   0.667
10082WAT      O30487   5.584   4.449   2.436
10082WAT     H130488   5.499   4.398   2.427
10082WAT     H230489   5.624   4.465   2.346
10083WAT      O30490   0.589   0.676   6.804
10083WAT     H130491   0.636   0.634   6.727
10083WAT     H230492   0.593   0.775   6.796
10084WAT      O30493   9.668   2.932   1.053
10084WAT     H130494   9.655   3.028   1.028
10084WAT     H230495   9.616   2.874   0.990
10085WAT      O30496   6.240   9.385   5.149
10085WAT     H130497   6.199   9.446   5.081
10085WAT     H230498   6.205   9.293   5.137
10086WAT      O30499   6.879   8.138   9.104
10086WAT     H130500   6.828   8.213   9.144
10086WAT     H230501   6.934   8.172   9.027
10087WAT      O30502   3.417   8.870   8.614
10087WAT     H130503   3.332   8.849   8.565
10087WAT     H230504   3.397   8.928   8.693
10088WAT      O30505   8.258   4.336   7.341
10088WAT     H130506   8.271   4.335   7.242
10088WAT     H230507   8.179   4.279   7.365
10089WAT      O30508   0.626   8.412   9.359
10089WAT     H130509   0.631   8.460   9.447
10089WAT     H230510   0.582   8.471   9.292
10090WAT      O30511   5.701   8.654   4.072
10090WAT     H130512   5.714   8.729   4.007
10090WAT     H230513   5.658   8.690   4.155
10091WAT      O30514   3.600   3.990   2.633
10091WAT     H130515   3.538   4.057   2.675
10091WAT     H230516   3.548   3.928   2.574
10092WAT      O30517   5.976   1.370   0.479
10092WAT     H130518   5.981   1.431   0.400
10092WAT     H230519   6.069   1.344   0.506
10093WAT      O30520   1.734   4.408   5.918
10093WAT     H130521   1.718   4.482   5.853
10093WAT     H230522   1.787   4.444   5.996
10094WAT      O30523   9.472   8.675   6.515
10094WAT     H130524   9.519   8.764   6.515
10094WAT     H230525   9.515   8.615   6.583
10095WAT      O30526   3.760   5.651   8.128
10095WAT     H130527   3.742   5.568   8.075
10095WAT     H230528   3.745   5.632   8.225
10096WAT      O30529   3.345   1.339   5.485
10096WAT     H130530   3.315   1.309   5.576
10096WAT     H230531   3.382   1.261   5.435
10097WAT      O30532   6.683   3.643   0.239
10097WAT     H130533   6.747   3.689   0.300
10097WAT     H230534   6.713   3.549   0.224
10098WAT      O30535   1.064   6.841   1.171
10098WAT     H130536   1.159   6.812   1.183
10098WAT     H230537   1.047   6.923   1.227
10099WAT      O30538   0.475   6.899   3.790
10099WAT     H130539   0.432   6.926   3.704
10099WAT     H230540   0.405   6.890   3.861
10100WAT      O30541   7.137   8.430   8.927
10100WAT     H130542   7.164   8.434   9.024
10100WAT     H230543   7.064   8.496   8.910
10101WAT      O30544   2.107   0.493   5.998
10101WAT     H130545   2.148   0.430   6.064
10101WAT     H230546   2.047   0.556   6.046
10102WAT      O30547   8.139   3.055   3.305
10102WAT     H130548   8.199   3.075   3.382
10102WAT     H230549   8.054   3.108   3.315
10103WAT      O30550   4.425   8.751   2.230
10103WAT     H130551   4.373   8.697   2.297
10103WAT     H230552   4.519   8.716   2.225
10104WAT      O30553   2.695   7.154   1.394
10104WAT     H130554   2.650   7.144   1.482
10104WAT     H230555   2.626   7.163   1.322
10105WAT      O30556   0.878   4.871   2.442
10105WAT     H130557   0.872   4.855   2.343
10105WAT     H230558   0.932   4.954   2.459
10106WAT      O30559   5.547   2.168   6.894
10106WAT     H130560   5.491   2.085   6.895
10106WAT     H230561   5.498   2.240   6.844
10107WAT      O30562   0.306   1.223   4.292
10107WAT     H130563   0.358   1.192   4.212
10107WAT     H230564   0.260   1.144   4.334
10108WAT      O30565   7.009   7.674   7.876
10108WAT     H130566   6.992   7.751   7.938
10108WAT     H230567   6.945   7.677   7.800
10109WAT      O30568   3.603   6.415   3.191
10109WAT     H130569   3.675   6.484   3.191
10109WAT     H230570   3.523   6.450   3.141
10110WAT      O30571   8.251   3.423   8.189
10110WAT     H130572   8.288   3.334   8.212
10110WAT     H230573   8.285   3.451   8.099
10111WAT      O30574   8.427   9.473   2.830
10111WAT     H130575   8.414   9.543   2.900
10111WAT     H230576   8.349   9.474   2.767
10112WAT      O30577   3.909   4.594   6.216
10112WAT     H130578   3.928   4.687   6.184
10112WAT     H230579   3.919   4.591   6.316
10113WAT      O30580   6.618   8.125   6.965
10113WAT     H130581   6.619   8.216   6.924
10113WAT     H230582   6.610   8.056   6.893
10114WAT      O30583   1.993   6.627   6.104
10114WAT     H130584   1.927   6.702   6.113
10114WAT     H230585   1.944   6.540   6.110
10115WAT      O30586   1.695   6.089   1.549
10115WAT     H130587   1.689   6.185   1.523
10115WAT     H230588   1.603   6.053   1.566
10116WAT      O30589   3.156   6.778   1.393
10116WAT     H130590   3.214   6.706   1.433
10116WAT     H230591   3.214   6.850   1.356
10117WAT      O30592   6.169   6.071   1.995
10117WAT     H130593   6.119   6.052   2.079
10117WAT     H230594   6.111   6.050   1.916
10118WAT      O30595   8.962   3.597   2.427
10118WAT     H130596   8.912   3.657   2.488
10118WAT     H230597   9.034   3.649   2.381
10119WAT      O30598   6.321   9.364   8.058
10119WAT     H130599   6.399   9.306   8.032
10119WAT     H230600   6.293   9.342   8.151
10120WAT      O30601   9.220   8.432   7.922
10120WAT     H130602   9.127   8.470   7.917
10120WAT     H230603   9.215   8.336   7.950
10121WAT      O30604   0.534   5.050   0.807
10121WAT     H130605   0.527   5.062   0.906
10121WAT     H230606   0.603   4.981   0.786
10122WAT      O30607   7.614   6.864   9.472
10122WAT     H130608   7.607   6.902   9.564
10122WAT     H230609   7.529   6.818   9.449
10123WAT      O30610   2.327   3.052   6.865
10123WAT     H130611   2.413   3.025   6.821
10123WAT     H230612   2.276   2.971   6.892
10124WAT      O30613   7.911   8.709   3.846
10124WAT     H130614   7.985   8.762   3.887
10124WAT     H230615   7.823   8.749   3.871
10125WAT      O30616   7.454   5.710   8.280
10125WAT     H130617   7.467   5.693   8.182
10125WAT     H230618   7.403   5.795   8.292
10126WAT      O30619   9.325   8.974   8.905
10126WAT     H130620   9.312   9.073   8.916
10126WAT     H230621   9.421   8.955   8.886
10127WAT      O30622   2.188   4.177   4.996
10127WAT     H130623   2.271   4.233   4.993
10127WAT     H230624   2.205   4.096   5.053
10128WAT      O30625   4.634   0.787   6.807
10128WAT     H130626   4.680   0.875   6.802
10128WAT     H230627   4.682   0.727   6.871
10129WAT      O30628   8.260   2.383   3.421
10129WAT     H130629   8.327   2.366   3.349
10129WAT     H230630   8.221   2.297   3.452
10130WAT      O30631   6.126   3.558   0.299
10130WAT     H130632   6.169   3.647   0.281
10130WAT     H230633   6.127   3.539   0.397
10131WAT      O30634   0.715   5.828   8.610
10131WAT     H130635   0.750   5.837   8.517
10131WAT     H230636   0.637   5.889   8.622
10132WAT      O30637   2.824   4.947   2.934
10132WAT     H130638   2.906   4.937   2.989
10132WAT     H230639   2.844   5.004   2.854
10133WAT      O30640   2.272   2.026   4.430
10133WAT     H130641   2.239   1.933   4.449
10133WAT     H230642   2.369   2.032   4.454
10134WAT      O30643   1.402   2.674   0.876
10134WAT     H130644   1.413   2.773   0.884
10134WAT     H230645   1.341   2.641   0.948
10135WAT      O30646   9.244   7.148   7.598
10135WAT     H130647   9.268   7.077   7.532
10135WAT     H230648   9.187   7.217   7.554
10136WAT      O30649   5.754   7.588   7.301
10136WAT     H130650   5.806   7.654   7.354
10136WAT     H230651   5.784   7.495   7.324
10137WAT      O30652   0.572   8.033   5.404
10137WAT     H130653   0.625   8.035   5.319
10137WAT     H230654   0.631   8.056   5.481
10138WAT      O30655   9.652   2.588   1.884
10138WAT     H130656   9.561   2.614   1.916
10138WAT     H230657   9.714   2.578   1.962
10139WAT      O30658   7.737   1.626   8.958
10139WAT     H130659   7.662   1.691   8.942
10139WAT     H230660   7.740   1.560   8.884
10140WAT      O30661   7.946   4.166   0.284
10140WAT     H130662   7.964   4.219   0.367
10140WAT     H230663   7.929   4.228   0.208
10141WAT      O30664   7.670   1.296   5.105
10141WAT     H130665   7.661   1.253   5.194
10141WAT     H230666   7.594   1.268   5.047
10142WAT      O30667   2.623   3.777   9.826
10142WAT     H130668   2.582   3.714   9.893
10142WAT     H230669   2.721   3.761   9.822
10143WAT      O30670   2.420   8.739   4.072
10143WAT     H130671   2.502   8.700   4.030
10143WAT     H230672   2.368   8.667   4.117
10144WAT      O30673   1.091   0.587   3.973
10144WAT     H130674   1.041   0.501   3.971
10144WAT     H230675   1.095   0.626   3.881
10145WAT      O30676   3.150   1.604   3.792
10145WAT     H130677   3.057   1.589   3.756
10145WAT     H230678   3.201   1.518   3.790
10146WAT      O30679   1.790   1.134   0.512
10146WAT     H130680   1.804   1.035   0.514
10146WAT     H230681   1.833   1.175   0.592
10147WAT      O30682   8.577   9.570   8.216
10147WAT     H130683   8.630   9.518   8.149
10147WAT     H230684   8.496   9.517   8.242
10148WAT      O30685   0.545   8.547   3.623
10148WAT     H130686   0.468   8.504   3.669
10148WAT     H230687   0.552   8.512   3.530
10149WAT      O30688   8.180   0.078   9.608
10149WAT     H130689   8.219   0.033   9.528
10149WAT     H230690   8.081   0.089   9.595
10150WAT      O30691   3.635   8.534   5.114
10150WAT     H130692   3.591   8.453   5.075
10150WAT     H230693   3.626   8.610   5.049
10151WAT      O30694   9.802   6.099   6.168
10151WAT     H130695   9.809   6.000   6.158
10151WAT     H230696   9.873   6.131   6.230
10152WAT      O30697   7.075   1.764   6.166
10152WAT     H130698   6.989   1.741   6.212
10152WAT     H230699   7.103   1.856   6.192
10153WAT      O30700   4.557   9.455   9.423
10153WAT     H130701   4.657   9.463   9.425
10153WAT     H230702   4.516   9.522   9.484
10154WAT      O30703   6.058   0.178   0.492
10154WAT     H130704   6.097   0.265   0.463
10154WAT     H230705   6.059   0.113   0.416
10155WAT      O30706   1.944   9.238   9.217
10155WAT     H130707   1.875   9.240   9.144
10155WAT     H230708   1.902   9.207   9.302
10156WAT      O30709   9.476   1.115   2.879
10156WAT     H130710   9.552   1.159   2.925
10156WAT     H230711   9.465   1.154   2.787
10157WAT      O30712   9.038   2.619   4.843
10157WAT     H130713   9.120   2.575   4.879
10157WAT     H230714   9.064   2.685   4.772
10158WAT      O30715   6.383   8.425   0.446
10158WAT     H130716   6.374   8.337   0.401
10158WAT     H230717   6.450   8.481   0.397
10159WAT      O30718   9.306   6.472   8.120
10159WAT     H130719   9.293   6.459   8.218
10159WAT     H230720   9.389   6.425   8.091
10160WAT      O30721   7.376   5.360   8.338
10160WAT     H130722   7.474   5.344   8.352
10160WAT     H230723   7.330   5.272   8.326
10161WAT      O30724   4.834   0.784   2.762
10161WAT     H130725   4.912   0.737   2.803
10161WAT     H230726   4.751   0.760   2.812
10162WAT      O30727   5.174   6.859   5.252
10162WAT     H130728   5.134   6.871   5.343
10162WAT     H230729   5.110   6.891   5.183
10163WAT      O30730   4.816   5.148   0.997
10163WAT     H130731   4.874   5.070   0.973
10163WAT     H230732   4.870   5.232   0.994
10164WAT      O30733   3.036   2.817   2.455
10164WAT     H130734   2.982   2.816   2.539
10164WAT     H230735   3.034   2.727   2.412
10165WAT      O30736   1.612   6.153   2.809
10165WAT     H130737   1.542   6.082   2.813
10165WAT     H230738   1.575   6.239   2.843
10166WAT      O30739   3.672   1.314   4.016
10166WAT     H130740   3.681   1.412   4.036
10166WAT     H230741   3.673   1.262   4.102
10167WAT      O30742   4.584   1.382   5.148
10167WAT     H130743   4.619   1.304   5.097
10167WAT     H230744   4.580   1.462   5.088
10168WAT      O30745   0.777   1.662   7.528
10168WAT     H130746   0.864   1.648   7.576
10168WAT     H230747   0.777   1.609   7.443
10169WAT      O30748   0.965   0.663   7.529
10169WAT     H130749   0.866   0.664   7.516
10169WAT     H230750   0.998   0.757   7.540
10170WAT      O30751   3.280   6.770   9.574
10170WAT     H130752   3.297   6.826   9.656
10170WAT     H230753   3.182   6.763   9.558
10171WAT      O30754   6.708   6.687   3.942
10171WAT     H130755   6.697   6.618   3.871
10171WAT     H230756   6.806   6.702   3.958
10172WAT      O30757   5.975   3.660   4.943
10172WAT     H130758   5.886   3.695   4.971
10172WAT     H230759   6.001   3.700   4.855
10173WAT      O30760   7.421   2.464   1.004
10173WAT     H130761   7.496   2.451   1.069
10173WAT     H230762   7.391   2.375   0.969
10174WAT      O30763   0.323   9.369   4.966
10174WAT     H130764   0.236   9.415   4.952
10174WAT     H230765   0.389   9.433   5.004
10175WAT      O30766   9.281   2.187   4.742
10175WAT     H130767   9.312   2.152   4.654
10175WAT     H230768   9.190   2.227   4.732
10176WAT      O30769   9.534   5.747   2.560
10176WAT     H130770   9.610   5.719   2.620
10176WAT     H230771   9.447   5.727   2.605
10177WAT      O30772   0.881   2.922   7.327
10177WAT     H130773   0.854   2.926   7.423
10177WAT     H230774   0.904   2.828   7.302
10178WAT      O30775   5.093   9.726   1.420
10178WAT     H130776   5.171   9.691   1.473
10178WAT     H230777   5.114   9.817   1.386
10179WAT      O30778   8.124   2.871   9.865
10179WAT     H130779   8.147   2.953   9.814
10179WAT     H230780   8.204   2.840   9.917
10180WAT      O30781   1.543   8.581   2.381
10180WAT     H130782   1.640   8.566   2.398
10180WAT     H230783   1.497   8.494   2.367
10181WAT      O30784   6.151   0.860   4.719
10181WAT     H130785   6.109   0.829   4.804
10181WAT     H230786   6.122   0.954   4.700
10182WAT      O30787   5.743   0.441   6.507
10182WAT     H130788   5.701   0.409   6.422
10182WAT     H230789   5.841   0.425   6.504
10183WAT      O30790   6.763   0.657   2.598
10183WAT     H130791   6.706   0.581   2.564
10183WAT     H230792   6.847   0.663   2.544
10184WAT      O30793   3.478   3.750   8.534
10184WAT     H130794   3.494   3.832   8.590
10184WAT     H230795   3.402   3.698   8.573
10185WAT      O30796   0.820   8.110   2.672
10185WAT     H130797   0.853   8.020   2.643
10185WAT     H230798   0.740   8.099   2.732
10186WAT      O30799   6.120   5.449   1.117
10186WAT     H130800   6.026   5.472   1.092
10186WAT     H230801   6.132   5.350   1.115
10187WAT      O30802   6.935   0.653   1.699
10187WAT     H130803   6.968   0.628   1.790
10187WAT     H230804   6.838   0.632   1.692
10188WAT      O30805   1.923   5.081   8.261
10188WAT     H130806   1.980   5.101   8.340
10188WAT     H230807   1.977   5.090   8.178
10189WAT      O30808   1.220   4.436   1.374
10189WAT     H130809   1.314   4.471   1.372
10189WAT     H230810   1.202   4.385   1.290
10190WAT      O30811   9.345   2.298   7.840
10190WAT     H130812   9.259   2.348   7.845
10190WAT     H230813   9.381   2.284   7.932
10191WAT      O30814   2.089   8.235   7.845
10191WAT     H130815   2.176   8.191   7.867
10191WAT     H230816   2.086   8.326   7.885
10192WAT      O30817   2.729   5.347   4.100
10192WAT     H130818   2.695   5.378   4.189
10192WAT     H230819   2.664   5.375   4.029
10193WAT      O30820   5.242   7.530   7.052
10193WAT     H130821   5.182   7.599   7.010
10193WAT     H230822   5.316   7.507   6.989
10194WAT      O30823   5.786   6.431   4.344
10194WAT     H130824   5.783   6.347   4.291
10194WAT     H230825   5.758   6.508   4.286
10195WAT      O30826   1.313   6.488   6.824
10195WAT     H130827   1.344   6.572   6.867
10195WAT     H230828   1.274   6.427   6.893
10196WAT      O30829   4.096   3.097   0.740
10196WAT     H130830   4.149   3.168   0.786
10196WAT     H230831   4.102   3.011   0.791
10197WAT      O30832   1.633   9.132   8.444
10197WAT     H130833   1.563   9.151   8.375
10197WAT     H230834   1.724   9.146   8.404
10198WAT      O30835   6.075   8.303   1.792
10198WAT     H130836   6.074   8.331   1.888
10198WAT     H230837   6.112   8.377   1.736
10199WAT      O30838   9.081   8.929   5.460
10199WAT     H130839   9.166   8.878   5.448
10199WAT     H230840   9.004   8.875   5.426
10200WAT      O30841   7.366   1.317   6.886
10200WAT     H130842   7.343   1.333   6.790
10200WAT     H230843   7.438   1.249   6.892
10201WAT      O30844   7.530   2.233   2.317
10201WAT     H130845   7.602   2.188   2.265
10201WAT     H230846   7.473   2.287   2.255
10202WAT      O30847   5.862   4.961   4.446
10202WAT     H130848   5.956   4.943   4.475
10202WAT     H230849   5.809   4.993   4.524
10203WAT      O30850   0.767   2.850   0.155
10203WAT     H130851   0.851   2.885   0.198
10203WAT     H230852   0.754   2.896   0.067
10204WAT      O30853   2.921   2.830   2.691
10204WAT     H130854   2.903   2.896   2.765
10204WAT     H230855   2.835   2.785   2.665
10205WAT      O30856   8.762   6.132   7.979
10205WAT     H130857   8.789   6.226   7.955
10205WAT     H230858   8.717   6.089   7.900
10206WAT      O30859   1.011   8.907   2.452
10206WAT     H130860   0.940   8.844   2.420
10206WAT     H230861   1.099   8.880   2.414
10207WAT      O30862   0.295   4.678   5.765
10207WAT     H130863   0.357   4.755   5.781
10207WAT     H230864   0.228   4.673   5.839
10208WAT      O30865   6.731   5.325   6.617
10208WAT     H130866   6.782   5.246   6.583
10208WAT     H230867   6.700   5.307   6.711
10209WAT      O30868   3.196   1.536   6.885
10209WAT     H130869   3.182   1.444   6.923
10209WAT     H230870   3.168   1.605   6.952
10210WAT      O30871   6.419   3.978   2.781
10210WAT     H130872   6.428   4.026   2.695
10210WAT     H230873   6.508   3.975   2.828
10211WAT      O30874   3.892   9.290   5.807
10211WAT     H130875   3.983   9.295   5.765
10211WAT     H230876   3.838   9.368   5.777
10212WAT      O30877   7.650   6.907   9.730
10212WAT     H130878   7.750   6.913   9.740
10212WAT     H230879   7.619   6.816   9.759
10213WAT      O30880   8.881   9.720   1.212
10213WAT     H130881   8.875   9.780   1.292
10213WAT     H230882   8.977   9.702   1.191
10214WAT      O30883   6.078   0.206   2.275
10214WAT     H130884   6.123   0.125   2.314
10214WAT     H230885   5.985   0.182   2.246
10215WAT      O30886   2.640   6.537   0.174
10215WAT     H130887   2.715   6.602   0.165
10215WAT     H230888   2.674   6.452   0.214
10216WAT      O30889   6.262   7.695   4.777
10216WAT     H130890   6.223   7.668   4.689
10216WAT     H230891   6.190   7.694   4.847
10217WAT      O30892   1.184   4.166   3.100
10217WAT     H130893   1.101   4.112   3.115
10217WAT     H230894   1.210   4.211   3.186
10218WAT      O30895   1.379   3.679   9.204
10218WAT     H130896   1.372   3.621   9.285
10218WAT     H230897   1.466   3.728   9.204
10219WAT      O30898   6.175   7.635   9.819
10219WAT     H130899   6.107   7.572   9.859
10219WAT     H230900   6.245   7.581   9.771
10220WAT      O30901   0.680   9.092   7.672
10220WAT     H130902   0.619   9.139   7.608
10220WAT     H230903   0.647   8.999   7.687
10221WAT      O30904   8.440   3.549   0.290
10221WAT     H130905   8.362   3.490   0.313
10221WAT     H230906   8.525   3.500   0.310
10222WAT      O30907   6.564   3.593   6.594
10222WAT     H130908   6.584   3.510   6.542
10222WAT     H230909   6.475   3.584   6.639
10223WAT      O30910   3.093   9.662   0.979
10223WAT     H130911   3.125   9.687   0.888
10223WAT     H230912   3.171   9.641   1.037
10224WAT      O30913   5.206   8.870   8.154
10224WAT     H130914   5.279   8.881   8.221
10224WAT     H230915   5.117   8.878   8.199
10225WAT      O30916   1.324   2.443   9.866
10225WAT     H130917   1.225   2.457   9.869
10225WAT     H230918   1.345   2.351   9.900
10226WAT      O30919   0.084   6.639   5.242
10226WAT     H130920   0.082   6.684   5.152
10226WAT     H230921   0.166   6.582   5.249
10227WAT      O30922   6.195   7.435   2.632
10227WAT     H130923   6.265   7.490   2.677
10227WAT     H230924   6.122   7.415   2.697
10228WAT      O30925   7.997   2.277   8.103
10228WAT     H130926   7.918   2.216   8.095
10228WAT     H230927   7.990   2.350   8.035
10229WAT      O30928   7.253   7.441   3.258
10229WAT     H130929   7.236   7.396   3.171
10229WAT     H230930   7.237   7.377   3.333
10230WAT      O30931   3.811   1.367   4.435
10230WAT     H130932   3.905   1.345   4.463
10230WAT     H230933   3.780   1.449   4.483
10231WAT      O30934   2.696   7.336   0.795
10231WAT     H130935   2.630   7.338   0.871
10231WAT     H230936   2.710   7.429   0.761
10232WAT      O30937   0.532   6.366   0.762
10232WAT     H130938   0.586   6.367   0.678
10232WAT     H230939   0.470   6.444   0.763
10233WAT      O30940   5.388   9.625   6.822
10233WAT     H130941   5.376   9.526   6.832
10233WAT     H230942   5.326   9.659   6.751
10234WAT      O30943   4.392   8.400   8.789
10234WAT     H130944   4.318   8.449   8.743
10234WAT     H230945   4.470   8.461   8.801
10235WAT      O30946   8.574   2.389   8.593
10235WAT     H130947   8.632   2.312   8.565
10235WAT     H230948   8.481   2.375   8.558
10236WAT      O30949   4.893   4.200   2.376
10236WAT     H130950   4.959   4.254   2.428
10236WAT     H230951   4.802   4.210   2.416
10237WAT      O30952   1.091   6.290   6.434
10237WAT     H130953   1.106   6.341   6.519
10237WAT     H230954   1.029   6.214   6.452
10238WAT      O30955   6.324   1.503   2.792
10238WAT     H130956   6.411   1.460   2.767
10238WAT     H230957   6.303   1.576   2.727
10239WAT      O30958   4.527   7.516   0.078
10239WAT     H130959   4.538   7.593   0.141
10239WAT     H230960   4.606   7.511   0.018
10240WAT      O30961   7.627   2.170   0.276
10240WAT     H130962   7.602   2.260   0.312
10240WAT     H230963   7.555   2.104   0.300
10241WAT      O30964   1.790   5.193   4.021
10241WAT     H130965   1.723   5.147   3.963
10241WAT     H230966   1.799   5.288   3.993
10242WAT      O30967   8.378   9.285   9.218
10242WAT     H130968   8.394   9.186   9.212
10242WAT     H230969   8.281   9.302   9.240
10243WAT      O30970   1.793   5.331   8.290
10243WAT     H130971   1.818   5.235   8.273
10243WAT     H230972   1.875   5.381   8.317
10244WAT      O30973   7.794   6.718   2.345
10244WAT     H130974   7.717   6.681   2.397
10244WAT     H230975   7.765   6.740   2.252
10245WAT      O30976   0.066   7.068   3.555
10245WAT     H130977   0.089   7.130   3.631
10245WAT     H230978   0.067   7.119   3.469
10246WAT      O30979   7.153   5.158   2.390
10246WAT     H130980   7.200   5.209   2.317
10246WAT     H230981   7.222   5.117   2.450
10247WAT      O30982   9.599   0.230   7.559
10247WAT     H130983   9.500   0.233   7.577
10247WAT     H230984   9.643   0.175   7.630
10248WAT      O30985   9.651   4.637   1.724
10248WAT     H130986   9.605   4.687   1.651
10248WAT     H230987   9.705   4.700   1.779
10249WAT      O30988   3.390   2.447   0.810
10249WAT     H130989   3.354   2.524   0.863
10249WAT     H230990   3.412   2.477   0.717
10250WAT      O30991   7.082   7.140   2.254
10250WAT     H130992   7.001   7.175   2.301
10250WAT     H230993   7.058   7.056   2.205
10251WAT      O30994   7.992   7.523   8.323
10251WAT     H130995   8.081   7.542   8.364
10251WAT     H230996   7.919   7.544   8.388
10252WAT      O30997   8.033   0.805   1.913
10252WAT     H130998   7.988   0.887   1.949
10252WAT     H230999   8.017   0.798   1.815
10253WAT      O31000   3.592   7.814   8.122
10253WAT     H131001   3.531   7.893   8.122
10253WAT     H231002   3.551   7.739   8.070
10254WAT      O31003   2.342   7.815   9.816
10254WAT     H131004   2.286   7.762   9.752
10254WAT     H231005   2.439   7.800   9.796
10255WAT      O31006   8.941   0.145   2.960
10255WAT     H131007   8.941   0.207   2.882
10255WAT     H231008   8.849   0.136   2.996
10256WAT      O31009   7.261   6.631   9.057
10256WAT     H131010   7.195   6.556   9.067
10256WAT     H231011   7.234   6.688   8.979
10257WAT      O31012   6.284   8.769   7.459
10257WAT     H131013   6.287   8.849   7.519
10257WAT     H231014   6.375   8.730   7.451
10258WAT      O31015   7.403   5.439   4.920
10258WAT     H131016   7.414   5.519   4.980
10258WAT     H231017   7.311   5.438   4.882
10259WAT      O31018   6.852   3.573   6.949
10259WAT     H131019   6.931   3.590   7.008
10259WAT     H231020   6.769   3.580   7.003
10260WAT      O31021   6.781   5.827   5.495
10260WAT     H131022   6.812   5.766   5.422
10260WAT     H231023   6.748   5.913   5.454
10261WAT      O31024   6.078   4.058   4.929
10261WAT     H131025   6.151   4.001   4.967
10261WAT     H231026   6.110   4.152   4.918
10262WAT      O31027   6.677   0.065   5.082
10262WAT     H131028   6.697  -0.029   5.053
10262WAT     H231029   6.759   0.105   5.122
10263WAT      O31030   3.429   7.203   7.935
10263WAT     H131031   3.407   7.204   8.032
10263WAT     H231032   3.483   7.285   7.912
10264WAT      O31033   0.664   9.006   3.107
10264WAT     H131034   0.633   9.095   3.141
10264WAT     H231035   0.699   9.015   3.014
10265WAT      O31036   9.230   8.891   6.231
10265WAT     H131037   9.318   8.917   6.193
10265WAT     H231038   9.238   8.801   6.275
10266WAT      O31039   9.209   3.511   5.942
10266WAT     H131040   9.120   3.526   5.984
10266WAT     H231041   9.214   3.562   5.856
10267WAT      O31042   8.484   7.876   4.829
10267WAT     H131043   8.399   7.836   4.862
10267WAT     H231044   8.505   7.840   4.738
10268WAT      O31045   8.093   0.804   4.921
10268WAT     H131046   8.101   0.741   4.844
10268WAT     H231047   8.115   0.756   5.006
10269WAT      O31048   9.151   8.955   4.095
10269WAT     H131049   9.245   8.951   4.130
10269WAT     H231050   9.153   8.958   3.995
10270WAT      O31051   6.726   2.178   4.525
10270WAT     H131052   6.672   2.111   4.578
10270WAT     H231053   6.823   2.165   4.545
10271WAT      O31054   5.023   7.181   9.228
10271WAT     H131055   5.005   7.242   9.150
10271WAT     H231056   5.050   7.091   9.194
10272WAT      O31057   1.521   7.627   8.426
10272WAT     H131058   1.424   7.649   8.431
10272WAT     H231059   1.532   7.533   8.392
10273WAT      O31060   6.026   4.426   4.414
10273WAT     H131061   6.064   4.501   4.360
10273WAT     H231062   5.928   4.440   4.427
10274WAT      O31063   3.649   6.695   9.739
10274WAT     H131064   3.571   6.674   9.680
10274WAT     H231065   3.616   6.741   9.822
10275WAT      O31066   4.903   9.215   2.112
10275WAT     H131067   4.901   9.253   2.205
10275WAT     H231068   4.859   9.279   2.049
10276WAT      O31069   4.604   8.267   2.416
10276WAT     H131070   4.703   8.275   2.415
10276WAT     H231071   4.575   8.202   2.345
10277WAT      O31072   3.400   0.298   7.491
10277WAT     H131073   3.460   0.260   7.421
10277WAT     H231074   3.456   0.331   7.568
10278WAT      O31075   0.834   2.781   4.306
10278WAT     H131076   0.897   2.792   4.382
10278WAT     H231077   0.786   2.868   4.290
10279WAT      O31078   6.519   5.601   7.981
10279WAT     H131079   6.450   5.585   8.052
10279WAT     H231080   6.502   5.690   7.938
10280WAT      O31081   9.136   1.318   1.272
10280WAT     H131082   9.083   1.243   1.230
10280WAT     H231083   9.197   1.280   1.341
10281WAT      O31084   9.152   4.849   7.330
10281WAT     H131085   9.136   4.757   7.296
10281WAT     H231086   9.122   4.856   7.425
10282WAT      O31087   8.240   5.826   6.868
10282WAT     H131088   8.223   5.749   6.807
10282WAT     H231089   8.243   5.911   6.815
10283WAT      O31090   0.011   0.049   3.448
10283WAT     H131091  -0.024   0.095   3.366
10283WAT     H231092  -0.053  -0.023   3.475
10284WAT      O31093   6.919   0.384   1.136
10284WAT     H131094   6.957   0.377   1.228
10284WAT     H231095   6.980   0.438   1.078
10285WAT      O31096   0.760   8.801   3.472
10285WAT     H131097   0.829   8.870   3.451
10285WAT     H231098   0.732   8.809   3.568
10286WAT      O31099   8.826   6.291   5.847
10286WAT     H131100   8.896   6.361   5.832
10286WAT     H231101   8.778   6.273   5.761
10287WAT      O31102   2.562   2.896   8.251
10287WAT     H131103   2.484   2.957   8.242
10287WAT     H231104   2.592   2.894   8.346
10288WAT      O31105   3.191   7.842   9.362
10288WAT     H131106   3.178   7.752   9.404
10288WAT     H231107   3.133   7.851   9.281
10289WAT      O31108   5.404   9.040   7.136
10289WAT     H131109   5.492   8.998   7.114
10289WAT     H231110   5.419   9.121   7.193
10290WAT      O31111   0.438   0.560   5.889
10290WAT     H131112   0.475   0.488   5.948
10290WAT     H231113   0.343   0.538   5.867
10291WAT      O31114   6.549   0.203   8.535
10291WAT     H131115   6.555   0.229   8.631
10291WAT     H231116   6.494   0.271   8.486
10292WAT      O31117   0.641   5.434   1.411
10292WAT     H131118   0.573   5.434   1.338
10292WAT     H231119   0.595   5.424   1.499
10293WAT      O31120   8.362   8.412   7.678
10293WAT     H131121   8.323   8.320   7.688
10293WAT     H231122   8.294   8.472   7.634
10294WAT      O31123   7.101   2.083   7.856
10294WAT     H131124   7.037   2.157   7.834
10294WAT     H231125   7.192   2.121   7.872
10295WAT      O31126   6.540   5.260   8.689
10295WAT     H131127   6.505   5.353   8.678
10295WAT     H231128   6.538   5.236   8.786
10296WAT      O31129   4.236   8.701   0.627
10296WAT     H131130   4.160   8.750   0.585
10296WAT     H231131   4.322   8.735   0.589
10297WAT      O31132   0.763   3.245   6.377
10297WAT     H131133   0.763   3.323   6.314
10297WAT     H231134   0.682   3.189   6.361
10298WAT      O31135   4.523   9.026   2.520
10298WAT     H131136   4.429   9.041   2.490
10298WAT     H231137   4.573   8.977   2.449
10299WAT      O31138   4.570   5.379   6.728
10299WAT     H131139   4.502   5.312   6.699
10299WAT     H231140   4.527   5.447   6.788
10300WAT      O31141   9.120   4.774   8.029
10300WAT     H131142   9.090   4.693   7.978
10300WAT     H231143   9.041   4.819   8.070
10301WAT      O31144   6.769   1.695   0.226
10301WAT     H131145   6.782   1.691   0.127
10301WAT     H231146   6.856   1.673   0.271
10302WAT      O31147   5.681   2.250   8.134
10302WAT     H131148   5.692   2.229   8.036
10302WAT     H231149   5.656   2.166   8.183
10303WAT      O31150   1.594   4.982   2.901
10303WAT     H131151   1.512   5.038   2.910
10303WAT     H231152   1.569   4.885   2.905
10304WAT      O31153   3.047   5.724   8.071
10304WAT     H131154   2.994   5.646   8.103
10304WAT     H231155   2.985   5.801   8.052
10305WAT      O31156   9.805   1.439   1.433
10305WAT     H131157   9.819   1.385   1.516
10305WAT     H231158   9.732   1.505   1.448
10306WAT      O31159   8.557   3.842   5.087
10306WAT     H131160   8.470   3.797   5.111
10306WAT     H231161   8.608   3.784   5.024
10307WAT      O31162   8.510   4.616   6.878
10307WAT     H131163   8.440   4.643   6.812
10307WAT     H231164   8.601   4.639   6.843
10308WAT      O31165   1.230   5.213   4.070
10308WAT     H131166   1.220   5.311   4.052
10308WAT     H231167   1.325   5.185   4.053
10309WAT      O31168   8.347   2.798   0.917
10309WAT     H131169   8.304   2.742   0.988
10309WAT     H231170   8.425   2.847   0.955
10310WAT      O31171   4.625   3.276   5.266
10310WAT     H131172   4.646   3.335   5.343
10310WAT     H231173   4.553   3.317   5.211
10311WAT      O31174   4.609   8.158   7.895
10311WAT     H131175   4.611   8.140   7.796
10311WAT     H231176   4.560   8.244   7.911
10312WAT      O31177   2.145   6.750   5.675
10312WAT     H131178   2.048   6.757   5.649
10312WAT     H231179   2.184   6.666   5.637
10313WAT      O31180   9.747   7.223   9.840
10313WAT     H131181   9.800   7.213   9.756
10313WAT     H231182   9.809   7.241   9.916
10314WAT      O31183   7.002   3.579   0.322
10314WAT     H131184   6.942   3.616   0.393
10314WAT     H231185   7.000   3.479   0.325
10315WAT      O31186   7.562   5.461   1.526
10315WAT     H131187   7.530   5.405   1.449
10315WAT     H231188   7.658   5.483   1.514
10316WAT      O31189   8.827   1.094   6.249
10316WAT     H131190   8.859   1.177   6.202
10316WAT     H231191   8.882   1.016   6.218
10317WAT      O31192   6.447   9.192   5.809
10317WAT     H131193   6.479   9.221   5.719
10317WAT     H231194   6.359   9.146   5.800
10318WAT      O31195   5.970   5.592   2.227
10318WAT     H131196   5.914   5.575   2.145
10318WAT     H231197   5.992   5.505   2.270
10319WAT      O31198   3.038   8.825   1.708
10319WAT     H131199   3.033   8.733   1.669
10319WAT     H231200   3.134   8.855   1.711
10320WAT      O31201   9.878   4.448   7.159
10320WAT     H131202   9.839   4.524   7.212
10320WAT     H231203   9.817   4.425   7.083
10321WAT      O31204   7.186   3.119   5.490
10321WAT     H131205   7.153   3.110   5.396
10321WAT     H231206   7.263   3.058   5.503
10322WAT      O31207   2.413   0.998   3.792
10322WAT     H131208   2.455   1.061   3.727
10322WAT     H231209   2.449   0.905   3.777
10323WAT      O31210   7.720   1.384   8.346
10323WAT     H131211   7.638   1.440   8.336
10323WAT     H231212   7.715   1.305   8.284
10324WAT      O31213   4.787   3.144   8.658
10324WAT     H131214   4.803   3.108   8.566
10324WAT     H231215   4.839   3.228   8.671
10325WAT      O31216   6.774   0.758   9.854
10325WAT     H131217   6.789   0.850   9.818
10325WAT     H231218   6.712   0.763   9.932
10326WAT      O31219   6.512   7.292   6.239
10326WAT     H131220   6.546   7.288   6.145
10326WAT     H231221   6.579   7.251   6.301
10327WAT      O31222   3.747   4.553   3.997
10327WAT     H131223   3.828   4.531   4.051
10327WAT     H231224   3.770   4.625   3.932
10328WAT      O31225   9.026   6.926   1.807
10328WAT     H131226   9.005   6.830   1.825
10328WAT     H231227   8.941   6.978   1.798
10329WAT      O31228   0.722   2.353   0.280
10329WAT     H131229   0.755   2.423   0.216
10329WAT     H231230   0.685   2.398   0.361
10330WAT      O31231   5.996   1.729   2.756
10330WAT     H131232   5.925   1.671   2.795
10330WAT     H231233   5.954   1.794   2.692
10331WAT      O31234   0.969   5.787   0.229
10331WAT     H131235   0.926   5.744   0.150
10331WAT     H231236   0.979   5.719   0.302
10332WAT      O31237   9.195   8.261   7.289
10332WAT     H131238   9.189   8.258   7.389
10332WAT     H231239   9.223   8.171   7.255
10333WAT      O31240   2.071   9.420   8.630
10333WAT     H131241   2.076   9.323   8.655
10333WAT     H231242   2.030   9.429   8.540
10334WAT      O31243   6.771   4.533   0.566
10334WAT     H131244   6.788   4.546   0.469
10334WAT     H231245   6.808   4.445   0.596
10335WAT      O31246   6.750   9.162   6.654
10335WAT     H131247   6.795   9.233   6.598
10335WAT     H231248   6.819   9.114   6.708
10336WAT      O31249   4.685   2.212   4.347
10336WAT     H131250   4.630   2.159   4.412
10336WAT     H231251   4.779   2.179   4.348
10337WAT      O31252   8.057   2.613   3.003
10337WAT     H131253   8.132   2.548   3.017
10337WAT     H231254   7.972   2.573   3.035
10338WAT      O31255   3.278   3.250   7.956
10338WAT     H131256   3.251   3.291   8.044
10338WAT     H231257   3.248   3.309   7.881
10339WAT      O31258   1.229   7.402   0.828
10339WAT     H131259   1.204   7.420   0.923
10339WAT     H231260   1.169   7.455   0.768
10340WAT      O31261   9.151   8.573   9.721
10340WAT     H131262   9.057   8.553   9.747
10340WAT     H231263   9.153   8.614   9.630
10341WAT      O31264   0.282   4.795   5.511
10341WAT     H131265   0.292   4.737   5.592
10341WAT     H231266   0.300   4.890   5.536
10342WAT      O31267   1.764   0.143   1.020
10342WAT     H131268   1.754   0.236   0.984
10342WAT     H231269   1.673   0.100   1.027
10343WAT      O31270   1.033   8.548   9.678
10343WAT     H131271   0.959   8.487   9.706
10343WAT     H231272   1.120   8.498   9.680
10344WAT      O31273   3.176   6.704   6.434
10344WAT     H131274   3.231   6.753   6.367
10344WAT     H231275   3.081   6.736   6.430
10345WAT      O31276   8.192   5.244   6.776
10345WAT     H131277   8.183   5.342   6.793
10345WAT     H231278   8.281   5.212   6.809
10346WAT      O31279   2.611   1.516   9.528
10346WAT     H131280   2.702   1.554   9.513
10346WAT     H231281   2.543   1.570   9.479
10347WAT      O31282   2.011   1.200   2.436
10347WAT     H131283   1.998   1.104   2.460
10347WAT     H231284   2.061   1.246   2.509
10348WAT      O31285   8.978   1.575   0.666
10348WAT     H131286   8.954   1.529   0.581
10348WAT     H231287   9.051   1.641   0.649
10349WAT      O31288   6.390   7.712   0.886
10349WAT     H131289   6.469   7.736   0.943
10349WAT     H231290   6.403   7.747   0.794
10350WAT      O31291   8.393   8.754   6.440
10350WAT     H131292   8.398   8.760   6.340
10350WAT     H231293   8.477   8.791   6.480
10351WAT      O31294   2.675   3.271   0.575
10351WAT     H131295   2.646   3.267   0.671
10351WAT     H231296   2.604   3.313   0.520
10352WAT      O31297   5.951   8.276   8.868
10352WAT     H131298   5.915   8.183   8.868
10352WAT     H231299   5.882   8.339   8.905
10353WAT      O31300   9.063   9.180   5.329
10353WAT     H131301   9.145   9.206   5.379
10353WAT     H231302   9.045   9.082   5.342
10354WAT      O31303   2.058   2.997   0.707
10354WAT     H131304   2.064   3.093   0.735
10354WAT     H231305   2.028   2.942   0.785
10355WAT      O31306   3.006   5.061   9.622
10355WAT     H131307   2.958   5.129   9.566
10355WAT     H231308   2.945   5.029   9.695
10356WAT      O31309   7.900   5.922   6.761
10356WAT     H131310   7.918   5.834   6.806
10356WAT     H231311   7.939   5.996   6.815
10357WAT      O31312   4.599   6.672   1.491
10357WAT     H131313   4.589   6.769   1.471
10357WAT     H231314   4.625   6.623   1.408
10358WAT      O31315   4.040   9.520   8.251
10358WAT     H131316   4.107   9.467   8.303
10358WAT     H231317   4.072   9.531   8.157
10359WAT      O31318   6.163   3.708   5.106
10359WAT     H131319   6.092   3.699   5.036
10359WAT     H231320   6.129   3.671   5.193
10360WAT      O31321   1.208   6.824   4.405
10360WAT     H131322   1.261   6.786   4.481
10360WAT     H231323   1.225   6.770   4.322
10361WAT      O31324   9.404   5.909   5.306
10361WAT     H131325   9.332   5.873   5.247
10361WAT     H231326   9.493   5.894   5.264
10362WAT      O31327   7.763   5.494   4.997
10362WAT     H131328   7.699   5.427   5.035
10362WAT     H231329   7.856   5.458   5.001
10363WAT      O31330   1.687   8.912   3.917
10363WAT     H131331   1.712   8.891   4.011
10363WAT     H231332   1.655   9.007   3.912
10364WAT      O31333   9.125   0.536   4.904
10364WAT     H131334   9.203   0.581   4.861
10364WAT     H231335   9.154   0.450   4.945
10365WAT      O31336   2.338   5.143   7.467
10365WAT     H131337   2.291   5.146   7.379
10365WAT     H231338   2.273   5.114   7.538
10366WAT      O31339   5.696   5.468   7.500
10366WAT     H131340   5.769   5.480   7.567
10366WAT     H231341   5.610   5.447   7.548
10367WAT      O31342   0.541   9.797   2.536
10367WAT     H131343   0.607   9.799   2.461
10367WAT     H231344   0.574   9.853   2.612
10368WAT      O31345   8.778   1.153   1.165
10368WAT     H131346   8.777   1.218   1.089
10368WAT     H231347   8.871   1.121   1.181
10369WAT      O31348   1.969   0.437   8.052
10369WAT     H131349   1.951   0.517   7.995
10369WAT     H231350   1.883   0.391   8.074
10370WAT      O31351   0.705   0.097   1.952
10370WAT     H131352   0.648   0.030   1.999
10370WAT     H231353   0.705   0.183   2.003
10371WAT      O31354   9.516   8.734   0.587
10371WAT     H131355   9.507   8.693   0.677
10371WAT     H231356   9.588   8.805   0.589
10372WAT      O31357   2.007   8.102   6.243
10372WAT     H131358   2.091   8.058   6.211
10372WAT     H231359   1.953   8.131   6.165
10373WAT      O31360   1.216   9.603   1.918
10373WAT     H131361   1.184   9.670   1.851
10373WAT     H231362   1.188   9.511   1.889
10374WAT      O31363   3.367   5.376   3.447
10374WAT     H131364   3.416   5.376   3.534
10374WAT     H231365   3.390   5.293   3.397
10375WAT      O31366   7.213   0.339   7.610
10375WAT     H131367   7.271   0.421   7.613
10375WAT     H231368   7.253   0.268   7.669
10376WAT      O31369   7.617   3.869   5.436
10376WAT     H131370   7.525   3.901   5.413
10376WAT     H231371   7.680   3.947   5.441
10377WAT      O31372   6.897   6.901   1.710
10377WAT     H131373   6.842   6.940   1.784
10377WAT     H231374   6.972   6.847   1.750
10378WAT      O31375   8.486   2.369   3.229
10378WAT     H131376   8.573   2.408   3.259
10378WAT     H231377   8.458   2.412   3.143
10379WAT      O31378   4.179   4.657   4.843
10379WAT     H131379   4.237   4.581   4.814
10379WAT     H231380   4.097   4.660   4.785
10380WAT      O31381   5.527   0.661   8.089
10380WAT     H131382   5.564   0.705   8.171
10380WAT     H231383   5.593   0.594   8.055
10381WAT      O31384   8.974   9.758   8.316
10381WAT     H131385   9.015   9.757   8.408
10381WAT     H231386   8.874   9.753   8.325
10382WAT      O31387   9.858   7.132   5.671
10382WAT     H131388   9.915   7.126   5.590
10382WAT     H231389   9.888   7.066   5.739
10383WAT      O31390   4.176   8.524   3.774
10383WAT     H131391   4.090   8.564   3.805
10383WAT     H231392   4.195   8.441   3.827
10384WAT      O31393   8.293   0.309   8.766
10384WAT     H131394   8.286   0.409   8.766
10384WAT     H231395   8.242   0.272   8.843
10385WAT      O31396   8.171   7.503   6.616
10385WAT     H131397   8.105   7.462   6.679
10385WAT     H231398   8.151   7.599   6.603
10386WAT      O31399   5.915   0.644   9.536
10386WAT     H131400   5.988   0.634   9.468
10386WAT     H231401   5.838   0.585   9.512
10387WAT      O31402   7.545   7.625   2.894
10387WAT     H131403   7.617   7.634   2.826
10387WAT     H231404   7.477   7.697   2.881
10388WAT      O31405   1.959   1.418   5.470
10388WAT     H131406   2.043   1.376   5.505
10388WAT     H231407   1.881   1.360   5.494
10389WAT      O31408   6.754   9.535   8.668
10389WAT     H131409   6.776   9.438   8.669
10389WAT     H231410   6.838   9.589   8.662
10390WAT      O31411   6.313   7.344   6.958
10390WAT     H131412   6.238   7.373   7.017
10390WAT     H231413   6.375   7.285   7.010
10391WAT      O31414   6.337   5.034   7.478
10391WAT     H131415   6.258   4.978   7.453
10391WAT     H231416   6.356   5.023   7.576
10392WAT      O31417   4.179   5.385   5.438
10392WAT     H131418   4.183   5.484   5.446
10392WAT     H231419   4.139   5.360   5.350
10393WAT      O31420   4.415   2.265   0.037
10393WAT     H131421   4.427   2.169   0.015
10393WAT     H231422   4.451   2.321  -0.038
10394WAT      O31423   4.399   7.057   2.491
10394WAT     H131424   4.382   7.086   2.585
10394WAT     H231425   4.492   7.084   2.465
10395WAT      O31426   8.514   3.160   2.707
10395WAT     H131427   8.612   3.141   2.709
10395WAT     H231428   8.467   3.100   2.771
10396WAT      O31429   8.891   1.781   1.499
10396WAT     H131430   8.915   1.754   1.593
10396WAT     H231431   8.875   1.700   1.444
10397WAT      O31432   8.020   7.417   6.825
10397WAT     H131433   7.942   7.443   6.882
10397WAT     H231434   8.098   7.395   6.883
10398WAT      O31435   1.814   4.407   6.625
10398WAT     H131436   1.721   4.371   6.628
10398WAT     H231437   1.846   4.426   6.718
10399WAT      O31438   3.491   9.583   0.759
10399WAT     H131439   3.409   9.531   0.737
10399WAT     H231440   3.552   9.529   0.817
10400WAT      O31441   7.413   0.252   8.479
10400WAT     H131442   7.328   0.266   8.530
10400WAT     H231443   7.402   0.175   8.416
10401WAT      O31444   0.793   6.736   3.894
10401WAT     H131445   0.776   6.792   3.975
10401WAT     H231446   0.797   6.639   3.921
10402WAT      O31447   3.654   1.938   3.280
10402WAT     H131448   3.591   1.992   3.335
10402WAT     H231449   3.711   1.882   3.340
10403WAT      O31450   4.805   4.288   3.115
10403WAT     H131451   4.845   4.293   3.024
10403WAT     H231452   4.850   4.353   3.176
10404WAT      O31453   2.416   1.822   4.690
10404WAT     H131454   2.341   1.805   4.626
10404WAT     H231455   2.499   1.777   4.657
10405WAT      O31456   7.303   8.082   8.549
10405WAT     H131457   7.255   8.147   8.608
10405WAT     H231458   7.387   8.124   8.515
10406WAT      O31459   4.977   4.576   8.815
10406WAT     H131460   4.996   4.483   8.782
10406WAT     H231461   5.028   4.642   8.761
10407WAT      O31462   2.770   9.402   3.460
10407WAT     H131463   2.761   9.428   3.364
10407WAT     H231464   2.694   9.342   3.486
10408WAT      O31465   1.146   5.763   2.072
10408WAT     H131466   1.061   5.719   2.042
10408WAT     H231467   1.127   5.857   2.101
10409WAT      O31468   2.983   0.916   7.789
10409WAT     H131469   2.922   0.922   7.710
10409WAT     H231470   3.047   0.993   7.787
10410WAT      O31471   2.037   3.291   0.301
10410WAT     H131472   1.977   3.218   0.334
10410WAT     H231473   2.025   3.302   0.202
10411WAT      O31474   4.440   7.716   2.784
10411WAT     H131475   4.474   7.630   2.823
10411WAT     H231476   4.452   7.714   2.685
10412WAT      O31477   7.941   2.602   5.692
10412WAT     H131478   7.880   2.534   5.650
10412WAT     H231479   8.024   2.611   5.637
10413WAT      O31480   4.596   4.254   9.370
10413WAT     H131481   4.659   4.309   9.315
10413WAT     H231482   4.538   4.313   9.425
10414WAT      O31483   8.896   5.977   9.551
10414WAT     H131484   8.841   5.897   9.574
10414WAT     H231485   8.927   6.022   9.634
10415WAT      O31486   4.077   2.076   5.552
10415WAT     H131487   4.041   2.020   5.478
10415WAT     H231488   4.123   2.156   5.514
10416WAT      O31489   2.254   3.901   3.509
10416WAT     H131490   2.278   3.952   3.427
10416WAT     H231491   2.326   3.914   3.578
10417WAT      O31492   2.592   9.012   5.748
10417WAT     H131493   2.575   9.017   5.649
10417WAT     H231494   2.532   8.943   5.789
10418WAT      O31495   4.921   1.873   4.477
10418WAT     H131496   4.910   1.845   4.381
10418WAT     H231497   4.989   1.815   4.521
10419WAT      O31498   3.943   5.916   1.946
10419WAT     H131499   3.932   5.961   2.035
10419WAT     H231500   3.884   5.961   1.879
10420WAT      O31501   4.949   0.570   4.744
10420WAT     H131502   4.946   0.591   4.841
10420WAT     H231503   4.961   0.472   4.730
10421WAT      O31504   7.846   2.360   9.011
10421WAT     H131505   7.901   2.416   8.949
10421WAT     H231506   7.833   2.408   9.098
10422WAT      O31507   7.115   0.300   3.878
10422WAT     H131508   7.125   0.350   3.964
10422WAT     H231509   7.139   0.361   3.802
10423WAT      O31510   7.082   4.140   9.423
10423WAT     H131511   7.063   4.131   9.325
10423WAT     H231512   7.022   4.210   9.462
10424WAT      O31513   5.877   9.535   9.667
10424WAT     H131514   5.845   9.600   9.597
10424WAT     H231515   5.977   9.528   9.661
10425WAT      O31516   2.173   0.449   4.125
10425WAT     H131517   2.181   0.538   4.081
10425WAT     H231518   2.264   0.415   4.148
10426WAT      O31519   6.993   5.673   4.233
10426WAT     H131520   6.933   5.673   4.153
10426WAT     H231521   6.999   5.766   4.270
10427WAT      O31522   4.297   5.094   9.243
10427WAT     H131523   4.364   5.168   9.231
10427WAT     H231524   4.217   5.111   9.185
10428WAT      O31525   3.804   7.246   9.841
10428WAT     H131526   3.805   7.196   9.928
10428WAT     H231527   3.811   7.344   9.858
10429WAT      O31528   3.471   7.649   7.950
10429WAT     H131529   3.501   7.556   7.930
10429WAT     H231530   3.478   7.705   7.868
10430WAT      O31531   9.772   2.573   7.589
10430WAT     H131532   9.711   2.607   7.661
10430WAT     H231533   9.758   2.627   7.506
10431WAT      O31534   8.902   6.286   3.617
10431WAT     H131535   8.850   6.306   3.534
10431WAT     H231536   8.838   6.257   3.690
10432WAT      O31537   3.299   3.492   2.287
10432WAT     H131538   3.302   3.431   2.208
10432WAT     H231539   3.356   3.572   2.269
10433WAT      O31540   6.552   4.324   0.184
10433WAT     H131541   6.504   4.326   0.096
10433WAT     H231542   6.555   4.416   0.223
10434WAT      O31543   1.263   4.435   6.514
10434WAT     H131544   1.353   4.478   6.517
10434WAT     H231545   1.193   4.505   6.500
10435WAT      O31546   6.943   2.768   4.184
10435WAT     H131547   6.893   2.823   4.251
10435WAT     H231548   6.913   2.673   4.189
10436WAT      O31549   1.625   1.267   6.838
10436WAT     H131550   1.677   1.269   6.753
10436WAT     H231551   1.590   1.359   6.857
10437WAT      O31552   1.971   6.752   3.682
10437WAT     H131553   1.936   6.839   3.646
10437WAT     H231554   1.924   6.676   3.637
10438WAT      O31555   2.478   1.573   3.195
10438WAT     H131556   2.446   1.626   3.274
10438WAT     H231557   2.575   1.552   3.206
10439WAT      O31558   1.719   1.212   4.497
10439WAT     H131559   1.720   1.157   4.413
10439WAT     H231560   1.661   1.292   4.484
10440WAT      O31561   3.303   6.128   4.489
10440WAT     H131562   3.339   6.209   4.535
10440WAT     H231563   3.223   6.094   4.538
10441WAT      O31564   8.541   1.425   3.014
10441WAT     H131565   8.584   1.411   2.925
10441WAT     H231566   8.600   1.390   3.086
10442WAT      O31567   9.036   8.757   6.538
10442WAT     H131568   8.955   8.755   6.479
10442WAT     H231569   9.026   8.829   6.606
10443WAT      O31570   5.141   0.878   6.597
10443WAT     H131571   5.209   0.823   6.549
10443WAT     H231572   5.118   0.834   6.684
10444WAT      O31573   8.255   5.819   0.202
10444WAT     H131574   8.244   5.821   0.103
10444WAT     H231575   8.316   5.894   0.230
10445WAT      O31576   2.010   4.184   4.055
10445WAT     H131577   2.054   4.253   3.998
10445WAT     H231578   1.937   4.227   4.108
10446WAT      O31579   0.131   4.440   3.270
10446WAT     H131580   0.191   4.369   3.234
10446WAT     H231581   0.131   4.518   3.208
10447WAT      O31582   5.282   6.066   8.351
10447WAT     H131583   5.381   6.070   8.367
10447WAT     H231584   5.238   6.145   8.394
10448WAT      O31585   3.986   4.147   6.338
10448WAT     H131586   3.999   4.223   6.275
10448WAT     H231587   3.893   4.111   6.327
10449WAT      O31588   0.443   1.853   3.505
10449WAT     H131589   0.395   1.807   3.580
10449WAT     H231590   0.406   1.945   3.493
10450WAT      O31591   3.082   2.433   1.546
10450WAT     H131592   2.991   2.437   1.505
10450WAT     H231593   3.095   2.346   1.593
10451WAT      O31594   1.727   2.614   0.165
10451WAT     H131595   1.643   2.668   0.160
10451WAT     H231596   1.743   2.587   0.260
10452WAT      O31597   3.929   1.875   7.583
10452WAT     H131598   3.862   1.949   7.592
10452WAT     H231599   3.952   1.840   7.674
10453WAT      O31600   4.479   5.314   9.169
10453WAT     H131601   4.567   5.358   9.181
10453WAT     H231602   4.408   5.384   9.158
10454WAT      O31603   3.968   5.585   7.264
10454WAT     H131604   3.879   5.624   7.240
10454WAT     H231605   4.038   5.656   7.257
10455WAT      O31606   8.811   1.959   3.990
10455WAT     H131607   8.735   2.018   4.017
10455WAT     H231608   8.864   1.934   4.071
10456WAT      O31609   2.273   2.894   2.378
10456WAT     H131610   2.314   2.879   2.288
10456WAT     H231611   2.314   2.831   2.444
10457WAT      O31612   1.403   8.102   5.039
10457WAT     H131613   1.429   8.151   5.122
10457WAT     H231614   1.344   8.160   4.983
10458WAT      O31615   4.556   6.105   0.581
10458WAT     H131616   4.495   6.177   0.548
10458WAT     H231617   4.506   6.046   0.644
10459WAT      O31618   5.237   0.483   0.754
10459WAT     H131619   5.166   0.473   0.685
10459WAT     H231620   5.198   0.464   0.844
10460WAT      O31621   5.379   8.951   4.372
10460WAT     H131622   5.468   8.983   4.407
10460WAT     H231623   5.382   8.947   4.273
10461WAT      O31624   1.621   8.660   4.332
10461WAT     H131625   1.579   8.685   4.244
10461WAT     H231626   1.599   8.730   4.400
10462WAT      O31627   5.165   8.686   5.133
10462WAT     H131628   5.251   8.734   5.149
10462WAT     H231629   5.091   8.753   5.123
10463WAT      O31630   7.617   2.903   8.706
10463WAT     H131631   7.660   2.854   8.630
10463WAT     H231632   7.517   2.904   8.693
10464WAT      O31633   8.870   5.401   1.562
10464WAT     H131634   8.882   5.427   1.466
10464WAT     H231635   8.849   5.303   1.567
10465WAT      O31636   8.921   4.949   9.301
10465WAT     H131637   8.844   5.014   9.306
10465WAT     H231638   8.887   4.859   9.274
10466WAT      O31639   1.285   7.831   5.471
10466WAT     H131640   1.250   7.738   5.458
10466WAT     H231641   1.268   7.885   5.389
10467WAT      O31642   9.601   8.320   8.294
10467WAT     H131643   9.610   8.271   8.208
10467WAT     H231644   9.511   8.364   8.298
10468WAT      O31645   9.124   5.019   9.116
10468WAT     H131646   9.093   5.067   9.034
10468WAT     H231647   9.045   4.992   9.170
10469WAT      O31648   7.063   8.344   8.252
10469WAT     H131649   7.114   8.344   8.339
10469WAT     H231650   6.965   8.340   8.271
10470WAT      O31651   6.112   7.383   3.409
10470WAT     H131652   6.031   7.342   3.368
10470WAT     H231653   6.089   7.419   3.500
10471WAT      O31654   1.254   3.475   1.665
10471WAT     H131655   1.284   3.433   1.579
10471WAT     H231656   1.216   3.405   1.725
10472WAT      O31657   5.167   8.972   7.764
10472WAT     H131658   5.254   8.922   7.768
10472WAT     H231659   5.150   9.017   7.852
10473WAT      O31660   5.602   6.667   5.917
10473WAT     H131661   5.595   6.674   6.017
10473WAT     H231662   5.512   6.684   5.877
10474WAT      O31663   0.563   1.862   4.360
10474WAT     H131664   0.557   1.881   4.262
10474WAT     H231665   0.491   1.797   4.385
10475WAT      O31666   2.269   4.107   0.129
10475WAT     H131667   2.220   4.024   0.153
10475WAT     H231668   2.363   4.101   0.165
10476WAT      O31669   4.416   7.665   5.726
10476WAT     H131670   4.345   7.596   5.738
10476WAT     H231671   4.463   7.681   5.813
10477WAT      O31672   8.886   2.768   6.935
10477WAT     H131673   8.898   2.767   7.034
10477WAT     H231674   8.960   2.717   6.892
10478WAT      O31675   3.668   7.400   0.328
10478WAT     H131676   3.698   7.476   0.387
10478WAT     H231677   3.736   7.327   0.332
10479WAT      O31678   4.043   2.641   0.989
10479WAT     H131679   3.979   2.620   0.916
10479WAT     H231680   3.997   2.629   1.078
10480WAT      O31681   4.875   3.872   0.679
10480WAT     H131682   4.784   3.834   0.660
10480WAT     H231683   4.891   3.872   0.778
10481WAT      O31684   7.254   7.997   8.306
10481WAT     H131685   7.279   8.027   8.398
10481WAT     H231686   7.305   7.914   8.283
10482WAT      O31687   8.638   5.988   6.894
10482WAT     H131688   8.570   6.062   6.894
10482WAT     H231689   8.645   5.949   6.803
10483WAT      O31690   8.070   9.556   5.137
10483WAT     H131691   8.163   9.544   5.172
10483WAT     H231692   8.052   9.653   5.121
10484WAT      O31693   2.383   6.203   2.820
10484WAT     H131694   2.466   6.170   2.776
10484WAT     H231695   2.406   6.240   2.910
10485WAT      O31696   5.476   5.228   0.906
10485WAT     H131697   5.527   5.219   0.992
10485WAT     H231698   5.540   5.227   0.829
10486WAT      O31699   6.732   5.082   0.393
10486WAT     H131700   6.658   5.149   0.386
10486WAT     H231701   6.807   5.121   0.446
10487WAT      O31702   3.308   6.573   1.546
10487WAT     H131703   3.385   6.628   1.579
10487WAT     H231704   3.337   6.478   1.537
10488WAT      O31705   3.110   9.519   4.690
10488WAT     H131706   3.043   9.466   4.741
10488WAT     H231707   3.076   9.612   4.675
10489WAT      O31708   6.139   1.621   4.246
10489WAT     H131709   6.150   1.721   4.249
10489WAT     H231710   6.075   1.598   4.173
10490WAT      O31711   2.432   0.390   7.231
10490WAT     H131712   2.502   0.455   7.259
10490WAT     H231713   2.394   0.418   7.143
10491WAT      O31714   2.547   6.680   7.618
10491WAT     H131715   2.524   6.775   7.596
10491WAT     H231716   2.558   6.628   7.533
10492WAT      O31717   7.856   8.749   6.460
10492WAT     H131718   7.796   8.746   6.380
10492WAT     H231719   7.856   8.842   6.498
10493WAT      O31720   5.555   1.443   5.736
10493WAT     H131721   5.645   1.429   5.696
10493WAT     H231722   5.524   1.536   5.718
10494WAT      O31723   3.463   1.890   3.683
10494WAT     H131724   3.499   1.944   3.607
10494WAT     H231725   3.466   1.793   3.658
10495WAT      O31726   3.237   7.999   5.193
10495WAT     H131727   3.290   8.032   5.116
10495WAT     H231728   3.239   8.066   5.267
10496WAT      O31729   3.808   2.391   6.193
10496WAT     H131730   3.771   2.482   6.211
10496WAT     H231731   3.791   2.331   6.271
10497WAT      O31732   6.472   4.721   2.037
10497WAT     H131733   6.448   4.626   2.017
10497WAT     H231734   6.555   4.722   2.093
10498WAT      O31735   3.343   2.169   0.818
10498WAT     H131736   3.435   2.143   0.849
10498WAT     H231737   3.341   2.266   0.797
10499WAT      O31738   6.394   5.121   0.491
10499WAT     H131739   6.413   5.193   0.425
10499WAT     H231740   6.319   5.150   0.551
10500WAT      O31741   7.848   7.723   3.445
10500WAT     H131742   7.863   7.804   3.500
10500WAT     H231743   7.764   7.677   3.475
10501WAT      O31744   1.113   3.071   4.447
10501WAT     H131745   1.191   3.013   4.425
10501WAT     H231746   1.080   3.116   4.364
10502WAT      O31747   9.691   1.611   1.822
10502WAT     H131748   9.659   1.704   1.805
10502WAT     H231749   9.791   1.609   1.826
10503WAT      O31750   7.397   6.675   3.175
10503WAT     H131751   7.351   6.603   3.226
10503WAT     H231752   7.496   6.664   3.184
10504WAT      O31753   4.525   3.148   0.706
10504WAT     H131754   4.466   3.071   0.681
10504WAT     H231755   4.601   3.154   0.642
10505WAT      O31756   7.048   5.418   2.144
10505WAT     H131757   6.973   5.373   2.192
10505WAT     H231758   7.060   5.377   2.054
10506WAT      O31759   2.917   0.849   1.261
10506WAT     H131760   2.933   0.947   1.262
10506WAT     H231761   2.819   0.831   1.266
10507WAT      O31762   0.531   0.156   9.859
10507WAT     H131763   0.630   0.165   9.848
10507WAT     H231764   0.500   0.217   9.931
10508WAT      O31765   2.835   8.628   1.597
10508WAT     H131766   2.784   8.642   1.682
10508WAT     H231767   2.899   8.552   1.608
10509WAT      O31768   6.157   9.744   2.396
10509WAT     H131769   6.196   9.712   2.309
10509WAT     H231770   6.231   9.765   2.460
10510WAT      O31771   9.842   6.605   9.629
10510WAT     H131772   9.796   6.519   9.650
10510WAT     H231773   9.905   6.592   9.553
10511WAT      O31774   3.437   1.849   4.773
10511WAT     H131775   3.442   1.949   4.774
10511WAT     H231776   3.439   1.814   4.866
10512WAT      O31777   7.660   2.321   1.456
10512WAT     H131778   7.754   2.322   1.490
10512WAT     H231779   7.603   2.264   1.515
10513WAT      O31780   2.032   9.323   6.677
10513WAT     H131781   1.936   9.349   6.663
10513WAT     H231782   2.038   9.258   6.753
10514WAT      O31783   8.823   8.389   0.797
10514WAT     H131784   8.871   8.476   0.807
10514WAT     H231785   8.884   8.322   0.755
10515WAT      O31786   0.783   9.402   5.202
10515WAT     H131787   0.778   9.423   5.300
10515WAT     H231788   0.876   9.417   5.169
10516WAT      O31789   7.200   9.140   3.100
10516WAT     H131790   7.240   9.168   3.013
10516WAT     H231791   7.151   9.217   3.141
10517WAT      O31792   4.592   1.782   6.330
10517WAT     H131793   4.662   1.712   6.346
10517WAT     H231794   4.542   1.761   6.247
10518WAT      O31795   3.643   8.838   8.801
10518WAT     H131796   3.712   8.772   8.774
10518WAT     H231797   3.574   8.845   8.729
10519WAT      O31798   7.904   0.971   5.628
10519WAT     H131799   7.977   1.032   5.657
10519WAT     H231800   7.906   0.961   5.529
10520WAT      O31801   2.683   1.629   0.628
10520WAT     H131802   2.632   1.599   0.709
10520WAT     H231803   2.731   1.551   0.589
10521WAT      O31804   8.523   6.423   8.143
10521WAT     H131805   8.491   6.470   8.225
10521WAT     H231806   8.622   6.413   8.147
10522WAT      O31807   3.106   6.190   3.432
10522WAT     H131808   3.057   6.262   3.482
10522WAT     H231809   3.060   6.174   3.344
10523WAT      O31810   2.088   8.938   7.430
10523WAT     H131811   2.140   8.993   7.365
10523WAT     H231812   2.099   8.975   7.522
10524WAT      O31813   8.523   5.044   8.588
10524WAT     H131814   8.473   5.022   8.504
10524WAT     H231815   8.620   5.057   8.567
10525WAT      O31816   1.757   2.840   1.796
10525WAT     H131817   1.808   2.821   1.879
10525WAT     H231818   1.705   2.759   1.769
10526WAT      O31819   4.122   0.094   5.327
10526WAT     H131820   4.171   0.082   5.413
10526WAT     H231821   4.187   0.119   5.255
10527WAT      O31822   7.725   2.917   6.975
10527WAT     H131823   7.807   2.966   6.943
10527WAT     H231824   7.708   2.940   7.071
10528WAT      O31825   3.469   1.746   6.710
10528WAT     H131826   3.568   1.755   6.715
10528WAT     H231827   3.441   1.660   6.754
10529WAT      O31828   6.251   4.754   7.824
10529WAT     H131829   6.301   4.836   7.796
10529WAT     H231830   6.268   4.736   7.921
10530WAT      O31831   7.632   5.446   5.844
10530WAT     H131832   7.635   5.347   5.831
10530WAT     H231833   7.543   5.471   5.884
10531WAT      O31834   1.609   1.767   5.646
10531WAT     H131835   1.700   1.781   5.606
10531WAT     H231836   1.546   1.733   5.576
10532WAT      O31837   5.712   0.190   0.926
10532WAT     H131838   5.784   0.203   0.858
10532WAT     H231839   5.754   0.176   1.016
10533WAT      O31840   1.405   8.630   3.679
10533WAT     H131841   1.487   8.680   3.706
10533WAT     H231842   1.339   8.694   3.638
10534WAT      O31843   4.385   9.372   4.965
10534WAT     H131844   4.456   9.436   4.995
10534WAT     H231845   4.298   9.422   4.957
10535WAT      O31846   6.390   8.786   1.354
10535WAT     H131847   6.356   8.845   1.427
10535WAT     H231848   6.363   8.825   1.265
10536WAT      O31849   5.476   5.584   1.483
10536WAT     H131850   5.534   5.517   1.528
10536WAT     H231851   5.499   5.676   1.516
10537WAT      O31852   5.515   8.141   2.386
10537WAT     H131853   5.530   8.124   2.484
10537WAT     H231854   5.529   8.056   2.336
10538WAT      O31855   6.890   2.565   7.539
10538WAT     H131856   6.868   2.497   7.469
10538WAT     H231857   6.949   2.523   7.609
10539WAT      O31858   0.676   4.098   1.058
10539WAT     H131859   0.584   4.066   1.080
10539WAT     H231860   0.682   4.197   1.071
10540WAT      O31861   8.805   9.054   6.948
10540WAT     H131862   8.725   8.996   6.964
10540WAT     H231863   8.833   9.097   7.034
10541WAT      O31864   6.628   6.293   3.584
10541WAT     H131865   6.659   6.204   3.619
10541WAT     H231866   6.553   6.278   3.519
10542WAT      O31867   9.006   0.067   9.428
10542WAT     H131868   8.909   0.089   9.427
10542WAT     H231869   9.022  -0.013   9.369
10543WAT      O31870   1.654   4.391   4.875
10543WAT     H131871   1.749   4.368   4.892
10543WAT     H231872   1.633   4.480   4.914
10544WAT      O31873   3.344   5.734   4.201
10544WAT     H131874   3.433   5.766   4.232
10544WAT     H231875   3.312   5.660   4.261
10545WAT      O31876   2.611   7.935   1.671
10545WAT     H131877   2.527   7.882   1.657
10545WAT     H231878   2.605   8.020   1.619
10546WAT      O31879   6.616   0.200   7.965
10546WAT     H131880   6.592   0.105   7.984
10546WAT     H231881   6.570   0.260   8.031
10547WAT      O31882   2.207   4.653   9.169
10547WAT     H131883   2.145   4.602   9.228
10547WAT     H231884   2.185   4.750   9.174
10548WAT      O31885   6.323   4.384   3.184
10548WAT     H131886   6.273   4.299   3.203
10548WAT     H231887   6.272   4.438   3.117
10549WAT      O31888   2.232   3.064   1.480
10549WAT     H131889   2.248   3.002   1.556
10549WAT     H231890   2.315   3.119   1.464
10550WAT      O31891   5.789   3.961   2.394
10550WAT     H131892   5.707   4.001   2.435
10550WAT     H231893   5.766   3.873   2.352
10551WAT      O31894   1.914   5.528   0.556
10551WAT     H131895   1.837   5.569   0.507
10551WAT     H231896   1.957   5.459   0.497
10552WAT      O31897   7.487   3.836   4.847
10552WAT     H131898   7.582   3.838   4.814
10552WAT     H231899   7.432   3.780   4.786
10553WAT      O31900   4.628   1.454   6.528
10553WAT     H131901   4.535   1.484   6.548
10553WAT     H231902   4.626   1.378   6.464
10554WAT      O31903   7.741   2.648   9.591
10554WAT     H131904   7.707   2.564   9.547
10554WAT     H231905   7.812   2.624   9.657
10555WAT      O31906   1.211   2.346   5.409
10555WAT     H131907   1.268   2.349   5.491
10555WAT     H231908   1.200   2.438   5.372
10556WAT      O31909   1.882   1.714   7.591
10556WAT     H131910   1.803   1.700   7.532
10556WAT     H231911   1.852   1.721   7.686
10557WAT      O31912   2.770   4.872   9.338
10557WAT     H131913   2.724   4.814   9.272
10557WAT     H231914   2.702   4.929   9.385
10558WAT      O31915   9.418   0.224   1.313
10558WAT     H131916   9.428   0.292   1.386
10558WAT     H231917   9.384   0.268   1.230
10559WAT      O31918   6.874   1.207   6.457
10559WAT     H131919   6.971   1.188   6.470
10559WAT     H231920   6.844   1.276   6.522
10560WAT      O31921   0.251   3.268   4.119
10560WAT     H131922   0.163   3.235   4.086
10560WAT     H231923   0.324   3.219   4.071
10561WAT      O31924   3.716   0.330   8.249
10561WAT     H131925   3.812   0.303   8.244
10561WAT     H231926   3.659   0.259   8.207
10562WAT      O31927   4.112   8.001   4.986
10562WAT     H131928   4.018   7.969   4.970
10562WAT     H231929   4.175   7.950   4.928
10563WAT      O31930   8.062   3.330   9.816
10563WAT     H131931   8.117   3.399   9.862
10563WAT     H231932   8.015   3.371   9.738
10564WAT      O31933   7.804   8.041   5.850
10564WAT     H131934   7.815   8.077   5.942
10564WAT     H231935   7.879   7.979   5.829
10565WAT      O31936   6.777   5.366   3.355
10565WAT     H131937   6.763   5.348   3.452
10565WAT     H231938   6.689   5.382   3.311
10566WAT      O31939   9.528   2.107   7.469
10566WAT     H131940   9.471   2.044   7.416
10566WAT     H231941   9.470   2.161   7.531
10567WAT      O31942   8.758   1.252   7.004
10567WAT     H131943   8.851   1.241   7.041
10567WAT     H231944   8.732   1.348   7.009
10568WAT      O31945   9.756   4.545   9.833
10568WAT     H131946   9.789   4.630   9.791
10568WAT     H231947   9.752   4.473   9.763
10569WAT      O31948   8.041   0.703   2.318
10569WAT     H131949   7.944   0.682   2.314
10569WAT     H231950   8.094   0.621   2.296
10570WAT      O31951   9.523   4.218   4.366
10570WAT     H131952   9.442   4.255   4.321
10570WAT     H231953   9.520   4.118   4.366
10571WAT      O31954   0.786   4.637   8.215
10571WAT     H131955   0.802   4.726   8.172
10571WAT     H231956   0.845   4.627   8.295
10572WAT      O31957   8.463   3.908   0.618
10572WAT     H131958   8.439   3.850   0.540
10572WAT     H231959   8.387   3.970   0.637
10573WAT      O31960   8.024   5.173   5.146
10573WAT     H131961   7.924   5.172   5.158
10573WAT     H231962   8.055   5.083   5.118
10574WAT      O31963   4.233   2.330   8.991
10574WAT     H131964   4.236   2.236   9.024
10574WAT     H231965   4.144   2.348   8.949
10575WAT      O31966   9.826   0.962   7.755
10575WAT     H131967   9.764   0.917   7.819
10575WAT     H231968   9.782   1.044   7.718
10576WAT      O31969   0.970   2.477   1.315
10576WAT     H131970   0.974   2.540   1.392
10576WAT     H231971   0.985   2.528   1.230
10577WAT      O31972   0.727   1.576   3.066
10577WAT     H131973   0.756   1.618   3.152
10577WAT     H231974   0.645   1.521   3.082
10578WAT      O31975   8.646   7.745   6.080
10578WAT     H131976   8.551   7.738   6.111
10578WAT     H231977   8.649   7.749   5.980
10579WAT      O31978   0.733   4.200   7.497
10579WAT     H131979   0.684   4.170   7.579
10579WAT     H231980   0.731   4.128   7.429
10580WAT      O31981   7.559   0.096   8.757
10580WAT     H131982   7.641   0.144   8.725
10580WAT     H231983   7.484   0.162   8.766
10581WAT      O31984   1.732   4.859   2.003
10581WAT     H131985   1.725   4.870   2.103
10581WAT     H231986   1.731   4.762   1.980
10582WAT      O31987   4.383   5.584   7.509
10582WAT     H131988   4.423   5.538   7.589
10582WAT     H231989   4.291   5.549   7.493
10583WAT      O31990   0.059   5.113   6.400
10583WAT     H131991   0.145   5.162   6.384
10583WAT     H231992   0.012   5.154   6.477
10584WAT      O31993   9.478   6.740   6.981
10584WAT     H131994   9.392   6.699   6.950
10584WAT     H231995   9.553   6.677   6.964
10585WAT      O31996   5.797   0.012   6.707
10585WAT     H131997   5.760   0.040   6.795
10585WAT     H231998   5.813  -0.087   6.707
10586WAT      O31999   8.711   9.774   4.948
10586WAT     H132000   8.760   9.815   5.025
10586WAT     H232001   8.612   9.787   4.962
10587WAT      O32002   1.412   6.529   4.015
10587WAT     H132003   1.346   6.489   3.952
10587WAT     H232004   1.471   6.593   3.967
10588WAT      O32005   0.830   7.592   2.669
10588WAT     H132006   0.824   7.553   2.761
10588WAT     H232007   0.790   7.528   2.603
10589WAT      O32008   7.802   9.162   3.380
10589WAT     H132009   7.783   9.122   3.469
10589WAT     H232010   7.901   9.172   3.369
10590WAT      O32011   5.410   8.753   5.251
10590WAT     H132012   5.405   8.848   5.281
10590WAT     H232013   5.372   8.693   5.322
10591WAT      O32014   1.284   3.961   6.319
10591WAT     H132015   1.288   3.904   6.237
10591WAT     H232016   1.201   4.017   6.317
10592WAT      O32017   4.995   8.689   9.295
10592WAT     H132018   4.964   8.689   9.200
10592WAT     H232019   4.977   8.778   9.336
10593WAT      O32020   0.158   2.440   8.285
10593WAT     H132021   0.187   2.416   8.378
10593WAT     H232022   0.212   2.388   8.219
10594WAT      O32023   6.411   2.246   3.543
10594WAT     H132024   6.440   2.263   3.449
10594WAT     H232025   6.412   2.331   3.595
10595WAT      O32026   2.838   5.196   4.471
10595WAT     H132027   2.892   5.126   4.518
10595WAT     H232028   2.897   5.272   4.444
10596WAT      O32029   5.938   9.565   0.493
10596WAT     H132030   5.938   9.592   0.397
10596WAT     H232031   5.911   9.643   0.550
10597WAT      O32032   6.062   9.436   4.786
10597WAT     H132033   6.121   9.355   4.780
10597WAT     H232034   6.009   9.445   4.702
10598WAT      O32035   3.050   3.799   9.088
10598WAT     H132036   3.060   3.792   9.187
10598WAT     H232037   3.117   3.740   9.043
10599WAT      O32038   4.787   7.947   6.754
10599WAT     H132039   4.796   7.966   6.852
10599WAT     H232040   4.764   8.031   6.706
10600WAT      O32041   9.724   7.691   8.813
10600WAT     H132042   9.633   7.670   8.848
10600WAT     H232043   9.725   7.784   8.777
10601WAT      O32044   1.661   3.397   7.477
10601WAT     H132045   1.620   3.390   7.568
10601WAT     H232046   1.730   3.325   7.466
10602WAT      O32047   6.213   9.121   6.404
10602WAT     H132048   6.256   9.161   6.322
10602WAT     H232049   6.271   9.047   6.439
10603WAT      O32050   9.277   0.799   6.401
10603WAT     H132051   9.217   0.721   6.382
10603WAT     H232052   9.287   0.855   6.319
10604WAT      O32053   1.044   5.796   1.600
10604WAT     H132054   1.069   5.880   1.550
10604WAT     H232055   0.947   5.801   1.625
10605WAT      O32056   4.882   6.495   8.377
10605WAT     H132057   4.978   6.522   8.387
10605WAT     H232058   4.828   6.537   8.450
10606WAT      O32059   6.684   6.929   8.993
10606WAT     H132060   6.758   6.978   8.946
10606WAT     H232061   6.723   6.869   9.063
10607WAT      O32062   1.004   8.550   2.612
10607WAT     H132063   1.001   8.463   2.563
10607WAT     H232064   0.980   8.535   2.708
10608WAT      O32065   7.171   1.490   4.010
10608WAT     H132066   7.104   1.536   4.068
10608WAT     H232067   7.160   1.522   3.916
10609WAT      O32068   6.327   6.048   6.524
10609WAT     H132069   6.269   5.976   6.488
10609WAT     H232070   6.408   6.008   6.567
10610WAT      O32071   8.862   5.447   8.751
10610WAT     H132072   8.948   5.497   8.761
10610WAT     H232073   8.856   5.409   8.659
10611WAT      O32074   1.894   4.814   1.104
10611WAT     H132075   1.912   4.715   1.106
10611WAT     H232076   1.822   4.835   1.170
10612WAT      O32077   3.189   5.389   4.916
10612WAT     H132078   3.261   5.322   4.901
10612WAT     H232079   3.174   5.442   4.833
10613WAT      O32080   0.225   9.488   8.529
10613WAT     H132081   0.146   9.474   8.469
10613WAT     H232082   0.211   9.440   8.615
10614WAT      O32083   6.604   6.586   0.882
10614WAT     H132084   6.548   6.506   0.858
10614WAT     H232085   6.546   6.667   0.885
10615WAT      O32086   3.514   8.339   4.299
10615WAT     H132087   3.443   8.299   4.242
10615WAT     H232088   3.485   8.429   4.330
10616WAT      O32089   6.330   6.793   0.502
10616WAT     H132090   6.314   6.890   0.485
10616WAT     H232091   6.428   6.774   0.496
10617WAT      O32092   1.645   5.519   8.148
10617WAT     H132093   1.713   5.476   8.208
10617WAT     H232094   1.562   5.464   8.146
10618WAT      O32095   1.344   4.611   7.548
10618WAT     H132096   1.325   4.599   7.646
10618WAT     H232097   1.270   4.663   7.506
10619WAT      O32098   1.232   8.377   1.735
10619WAT     H132099   1.249   8.367   1.637
10619WAT     H232100   1.140   8.344   1.757
10620WAT      O32101   8.376   6.111   5.373
10620WAT     H132102   8.298   6.169   5.399
10620WAT     H232103   8.433   6.161   5.307
10621WAT      O32104   2.529   2.759   1.710
10621WAT     H132105   2.430   2.756   1.692
10621WAT     H232106   2.564   2.851   1.691
10622WAT      O32107   6.452   7.937   9.282
10622WAT     H132108   6.464   7.966   9.187
10622WAT     H232109   6.529   7.971   9.337
10623WAT      O32110   2.799   2.070   0.624
10623WAT     H132111   2.865   1.995   0.630
10623WAT     H232112   2.785   2.095   0.529
10624WAT      O32113   8.878   9.279   1.274
10624WAT     H132114   8.860   9.181   1.283
10624WAT     H232115   8.939   9.309   1.348
10625WAT      O32116   2.109   8.294   6.458
10625WAT     H132117   2.024   8.339   6.482
10625WAT     H232118   2.094   8.234   6.380
10626WAT      O32119   9.827   5.310   1.176
10626WAT     H132120   9.733   5.278   1.165
10626WAT     H232121   9.829   5.410   1.178
10627WAT      O32122   0.026   0.494   0.099
10627WAT     H132123   0.081   0.565   0.056
10627WAT     H232124  -0.046   0.465   0.036
10628WAT      O32125   3.002   3.245   4.919
10628WAT     H132126   2.972   3.188   4.843
10628WAT     H232127   2.946   3.328   4.922
10629WAT      O32128   9.810   1.762   6.428
10629WAT     H132129   9.770   1.853   6.438
10629WAT     H232130   9.795   1.729   6.335
10630WAT      O32131   7.558   6.846   2.628
10630WAT     H132132   7.524   6.752   2.626
10630WAT     H232133   7.652   6.847   2.662
10631WAT      O32134   3.241   8.563   7.921
10631WAT     H132135   3.193   8.564   7.834
10631WAT     H232136   3.269   8.656   7.945
10632WAT      O32137   4.738   8.323   8.246
10632WAT     H132138   4.786   8.382   8.311
10632WAT     H232139   4.698   8.245   8.295
10633WAT      O32140   2.256   4.818   3.429
10633WAT     H132141   2.318   4.879   3.478
10633WAT     H232142   2.230   4.860   3.343
10634WAT      O32143   2.317   6.536   1.510
10634WAT     H132144   2.271   6.623   1.528
10634WAT     H232145   2.392   6.550   1.446
10635WAT      O32146   9.480   7.935   0.198
10635WAT     H132147   9.577   7.920   0.177
10635WAT     H232148   9.472   7.991   0.280
10636WAT      O32149   5.857   9.138   8.569
10636WAT     H132150   5.809   9.193   8.638
10636WAT     H232151   5.869   9.192   8.486
10637WAT      O32152   2.484   7.294   4.134
10637WAT     H132153   2.451   7.387   4.118
10637WAT     H232154   2.486   7.244   4.047
10638WAT      O32155   7.703   1.764   1.949
10638WAT     H132156   7.625   1.800   2.000
10638WAT     H232157   7.679   1.754   1.852
10639WAT      O32158   4.990   7.691   3.735
10639WAT     H132159   5.016   7.785   3.757
10639WAT     H232160   5.033   7.664   3.648
10640WAT      O32161   5.115   0.053   8.391
10640WAT     H132162   5.205   0.011   8.384
10640WAT     H232163   5.123   0.143   8.436
10641WAT      O32164   9.508   5.584   5.923
10641WAT     H132165   9.466   5.505   5.968
10641WAT     H232166   9.597   5.558   5.886
10642WAT      O32167   1.550   7.314   3.170
10642WAT     H132168   1.543   7.227   3.121
10642WAT     H232169   1.626   7.367   3.133
10643WAT      O32170   3.622   0.000   1.610
10643WAT     H132171   3.659   0.079   1.560
10643WAT     H232172   3.535   0.026   1.652
10644WAT      O32173   5.753   6.814   0.590
10644WAT     H132174   5.822   6.881   0.562
10644WAT     H232175   5.799   6.730   0.619
10645WAT      O32176   1.363   5.645   5.502
10645WAT     H132177   1.367   5.716   5.573
10645WAT     H232178   1.435   5.577   5.519
10646WAT      O32179   9.625   7.723   9.191
10646WAT     H132180   9.686   7.802   9.197
10646WAT     H232181   9.679   7.639   9.202
10647WAT      O32182   5.525   7.758   8.739
10647WAT     H132183   5.465   7.743   8.818
10647WAT     H232184   5.508   7.687   8.670
10648WAT      O32185   6.747   7.673   5.274
10648WAT     H132186   6.775   7.585   5.238
10648WAT     H232187   6.712   7.662   5.367
10649WAT      O32188   3.769   5.976   9.019
10649WAT     H132189   3.709   6.033   9.076
10649WAT     H232190   3.775   6.015   8.927
10650WAT      O32191   5.100   5.326   9.473
10650WAT     H132192   5.119   5.232   9.444
10650WAT     H232193   5.098   5.330   9.573
10651WAT      O32194   6.675   0.667   8.507
10651WAT     H132195   6.692   0.578   8.548
10651WAT     H232196   6.707   0.739   8.568
10652WAT      O32197   6.415   9.752   4.176
10652WAT     H132198   6.508   9.738   4.144
10652WAT     H232199   6.351   9.703   4.117
10653WAT      O32200   1.065   4.742   4.275
10653WAT     H132201   1.000   4.792   4.217
10653WAT     H232202   1.014   4.679   4.334
10654WAT      O32203   5.772   3.038   8.728
10654WAT     H132204   5.782   2.998   8.819
10654WAT     H232205   5.736   3.131   8.736
10655WAT      O32206   1.278   5.171   4.742
10655WAT     H132207   1.236   5.107   4.806
10655WAT     H232208   1.321   5.246   4.793
10656WAT      O32209   5.349   5.862   7.161
10656WAT     H132210   5.290   5.888   7.237
10656WAT     H232211   5.301   5.797   7.103
10657WAT      O32212   1.916   4.461   0.817
10657WAT     H132213   1.914   4.364   0.792
10657WAT     H232214   1.825   4.501   0.803
10658WAT      O32215   3.450   8.002   4.043
10658WAT     H132216   3.390   8.078   4.019
10658WAT     H232217   3.412   7.954   4.122
10659WAT      O32218   5.224   4.122   2.542
10659WAT     H132219   5.280   4.084   2.468
10659WAT     H232220   5.189   4.212   2.515
10660WAT      O32221   5.667   8.730   5.307
10660WAT     H132222   5.579   8.749   5.263
10660WAT     H232223   5.669   8.772   5.398
10661WAT      O32224   2.906   1.078   8.447
10661WAT     H132225   2.960   0.997   8.467
10661WAT     H232226   2.949   1.158   8.489
10662WAT      O32227   8.223   8.075   1.802
10662WAT     H132228   8.310   8.039   1.835
10662WAT     H232229   8.227   8.175   1.800
10663WAT      O32230   6.171   0.667   5.225
10663WAT     H132231   6.099   0.731   5.249
10663WAT     H232232   6.168   0.648   5.127
10664WAT      O32233   6.375   7.110   6.712
10664WAT     H132234   6.374   7.210   6.718
10664WAT     H232235   6.282   7.075   6.725
10665WAT      O32236   5.992   0.478   6.948
10665WAT     H132237   5.928   0.555   6.955
10665WAT     H232238   5.944   0.398   6.911
10666WAT      O32239   4.573   2.786   5.240
10666WAT     H132240   4.552   2.720   5.312
10666WAT     H232241   4.631   2.858   5.277
10667WAT      O32242   7.991   1.589   9.075
10667WAT     H132243   7.898   1.586   9.038
10667WAT     H232244   8.053   1.543   9.013
10668WAT      O32245   8.338   1.348   9.804
10668WAT     H132246   8.313   1.391   9.891
10668WAT     H232247   8.301   1.402   9.728
10669WAT      O32248   8.878   8.096   7.959
10669WAT     H132249   8.945   8.031   7.922
10669WAT     H232250   8.912   8.132   8.046
10670WAT      O32251   8.353   2.501   1.036
10670WAT     H132252   8.418   2.522   1.110
10670WAT     H232253   8.359   2.404   1.013
10671WAT      O32254   1.532   4.540   9.668
10671WAT     H132255   1.500   4.551   9.762
10671WAT     H232256   1.454   4.519   9.609
10672WAT      O32257   8.393   9.763   8.049
10672WAT     H132258   8.441   9.699   8.110
10672WAT     H232259   8.353   9.836   8.103
10673WAT      O32260   0.453   2.742   3.963
10673WAT     H132261   0.541   2.780   3.993
10673WAT     H232262   0.469   2.656   3.915
10674WAT      O32263   2.715   7.526   9.151
10674WAT     H132264   2.694   7.511   9.054
10674WAT     H232265   2.703   7.623   9.173
10675WAT      O32266   2.793   4.481   0.376
10675WAT     H132267   2.810   4.575   0.405
10675WAT     H232268   2.700   4.473   0.340
10676WAT      O32269   2.026   0.363   5.769
10676WAT     H132270   2.086   0.285   5.790
10676WAT     H232271   2.020   0.423   5.849
10677WAT      O32272   3.438   8.917   0.947
10677WAT     H132273   3.386   8.975   1.010
10677WAT     H232274   3.375   8.862   0.893
10678WAT      O32275   3.848   6.778   0.449
10678WAT     H132276   3.850   6.749   0.354
10678WAT     H232277   3.934   6.753   0.493
10679WAT      O32278   2.819   4.274   1.473
10679WAT     H132279   2.720   4.280   1.458
10679WAT     H232280   2.866   4.285   1.385
10680WAT      O32281   6.082   4.964   8.783
10680WAT     H132282   6.081   5.057   8.821
10680WAT     H232283   6.177   4.935   8.769
10681WAT      O32284   9.402   2.518   9.069
10681WAT     H132285   9.408   2.434   9.014
10681WAT     H232286   9.440   2.594   9.018
10682WAT      O32287   7.313   7.927   8.783
10682WAT     H132288   7.228   7.877   8.769
10682WAT     H232289   7.332   7.983   8.702
10683WAT      O32290   2.271   3.546   5.402
10683WAT     H132291   2.214   3.471   5.434
10683WAT     H232292   2.363   3.536   5.439
10684WAT      O32293   8.804   4.457   2.969
10684WAT     H132294   8.903   4.458   2.961
10684WAT     H232295   8.763   4.458   2.878
10685WAT      O32296   3.191   0.380   6.310
10685WAT     H132297   3.256   0.370   6.234
10685WAT     H232298   3.167   0.290   6.346
10686WAT      O32299   3.472   5.642   1.540
10686WAT     H132300   3.526   5.676   1.617
10686WAT     H232301   3.467   5.712   1.469
10687WAT      O32302   4.565   9.427   7.196
10687WAT     H132303   4.608   9.343   7.165
10687WAT     H232304   4.618   9.506   7.164
10688WAT      O32305   5.770   4.495   4.414
10688WAT     H132306   5.712   4.481   4.334
10688WAT     H232307   5.713   4.504   4.496
10689WAT      O32308   2.212   3.405   2.094
10689WAT     H132309   2.305   3.373   2.110
10689WAT     H232310   2.209   3.456   2.007
10690WAT      O32311   5.531   8.731   9.460
10690WAT     H132312   5.439   8.720   9.498
10690WAT     H232313   5.546   8.828   9.437
10691WAT      O32314   4.140   2.206   6.002
10691WAT     H132315   4.162   2.127   5.945
10691WAT     H232316   4.169   2.189   6.096
10692WAT      O32317   7.839   2.539   3.561
10692WAT     H132318   7.900   2.528   3.482
10692WAT     H232319   7.754   2.583   3.532
10693WAT      O32320   7.951   0.765   0.576
10693WAT     H132321   8.038   0.748   0.529
10693WAT     H232322   7.950   0.860   0.608
10694WAT      O32323   4.279   9.331   1.237
10694WAT     H132324   4.310   9.371   1.323
10694WAT     H232325   4.338   9.363   1.163
10695WAT      O32326   1.612   1.662   6.616
10695WAT     H132327   1.587   1.566   6.618
10695WAT     H232328   1.612   1.695   6.521
10696WAT      O32329   0.096   7.044   6.440
10696WAT     H132330   0.044   7.034   6.355
10696WAT     H232331   0.058   7.118   6.494
10697WAT      O32332   2.940   0.007   7.516
10697WAT     H132333   2.961  -0.086   7.547
10697WAT     H232334   3.020   0.046   7.472
10698WAT      O32335   8.135   7.606   7.815
10698WAT     H132336   8.119   7.632   7.910
10698WAT     H232337   8.193   7.525   7.812
10699WAT      O32338   6.204   6.973   2.132
10699WAT     H132339   6.300   6.970   2.158
10699WAT     H232340   6.169   6.880   2.120
10700WAT      O32341   3.573   0.236   7.292
10700WAT     H132342   3.531   0.259   7.205
10700WAT     H232343   3.616   0.146   7.286
10701WAT      O32344   7.872   8.388   7.635
10701WAT     H132345   7.876   8.294   7.669
10701WAT     H232346   7.902   8.451   7.707
10702WAT      O32347   3.524   4.142   0.284
10702WAT     H132348   3.503   4.178   0.375
10702WAT     H232349   3.511   4.042   0.283
10703WAT      O32350   3.247   8.540   2.757
10703WAT     H132351   3.228   8.552   2.659
10703WAT     H232352   3.268   8.629   2.798
10704WAT      O32353   6.524   5.440   2.104
10704WAT     H132354   6.561   5.495   2.179
10704WAT     H232355   6.580   5.452   2.023
10705WAT      O32356   6.603   2.032   8.597
10705WAT     H132357   6.518   1.981   8.614
10705WAT     H232358   6.668   2.013   8.670
10706WAT      O32359   4.961   3.450   1.344
10706WAT     H132360   5.001   3.541   1.334
10706WAT     H232361   5.014   3.397   1.410
10707WAT      O32362   3.846   9.640   7.610
10707WAT     H132363   3.801   9.657   7.697
10707WAT     H232364   3.821   9.548   7.577
10708WAT      O32365   2.804   8.424   2.268
10708WAT     H132366   2.707   8.427   2.291
10708WAT     H232367   2.817   8.450   2.173
10709WAT      O32368   2.276   5.539   2.728
10709WAT     H132369   2.296   5.473   2.655
10709WAT     H232370   2.320   5.626   2.707
10710WAT      O32371   1.680   0.411   9.707
10710WAT     H132372   1.659   0.466   9.788
10710WAT     H232373   1.607   0.344   9.693
10711WAT      O32374   6.565   5.974   3.187
10711WAT     H132375   6.646   5.975   3.245
10711WAT     H232376   6.522   5.884   3.192
10712WAT      O32377   8.997   4.986   5.863
10712WAT     H132378   8.910   4.947   5.833
10712WAT     H232379   9.072   4.942   5.815
10713WAT      O32380   7.513   5.933   6.963
10713WAT     H132381   7.485   6.024   6.933
10713WAT     H232382   7.581   5.942   7.037
10714WAT      O32383   3.979   6.153   1.611
10714WAT     H132384   3.951   6.164   1.706
10714WAT     H232385   3.900   6.165   1.551
10715WAT      O32386   3.834   8.084   6.963
10715WAT     H132387   3.881   8.131   6.888
10715WAT     H232388   3.901   8.056   7.032
10716WAT      O32389   9.063   4.643   1.815
10716WAT     H132390   9.145   4.643   1.757
10716WAT     H232391   9.019   4.733   1.810
10717WAT      O32392   6.725   5.256   3.028
10717WAT     H132393   6.651   5.302   3.077
10717WAT     H232394   6.713   5.157   3.035
10718WAT      O32395   0.640   3.536   7.305
10718WAT     H132396   0.683   3.614   7.260
10718WAT     H232397   0.556   3.512   7.257
10719WAT      O32398   7.952   4.710   8.185
10719WAT     H132399   7.907   4.777   8.242
10719WAT     H232400   7.928   4.725   8.089
10720WAT      O32401   4.956   7.614   0.386
10720WAT     H132402   4.927   7.596   0.292
10720WAT     H232403   4.909   7.695   0.421
10721WAT      O32404   5.644   8.196   7.826
10721WAT     H132405   5.631   8.288   7.864
10721WAT     H232406   5.721   8.196   7.762
10722WAT      O32407   6.623   9.495   8.017
10722WAT     H132408   6.604   9.398   8.028
10722WAT     H232409   6.597   9.524   7.925
10723WAT      O32410   8.470   5.800   7.977
10723WAT     H132411   8.467   5.719   8.036
10723WAT     H232412   8.477   5.882   8.034
10724WAT      O32413   4.532   9.355   3.473
10724WAT     H132414   4.529   9.368   3.374
10724WAT     H232415   4.617   9.308   3.498
10725WAT      O32416   8.943   7.291   4.383
10725WAT     H132417   8.995   7.376   4.386
10725WAT     H232418   9.003   7.215   4.407
10726WAT      O32419   3.368   7.261   7.406
10726WAT     H132420   3.301   7.206   7.356
10726WAT     H232421   3.460   7.239   7.373
10727WAT      O32422   9.431   0.891   8.465
10727WAT     H132423   9.338   0.891   8.503
10727WAT     H232424   9.468   0.984   8.469
10728WAT      O32425   3.130   7.465   1.895
10728WAT     H132426   3.112   7.367   1.891
10728WAT     H232427   3.165   7.496   1.806
10729WAT      O32428   4.349   1.165   7.993
10729WAT     H132429   4.359   1.165   7.893
10729WAT     H232430   4.369   1.256   8.029
10730WAT      O32431   6.729   2.835   0.895
10730WAT     H132432   6.790   2.903   0.855
10730WAT     H232433   6.657   2.882   0.948
10731WAT      O32434   7.916   9.752   8.457
10731WAT     H132435   7.942   9.778   8.550
10731WAT     H232436   7.997   9.753   8.398
10732WAT      O32437   0.980   3.223   5.879
10732WAT     H132438   0.987   3.286   5.957
10732WAT     H232439   0.955   3.132   5.913
10733WAT      O32440   8.559   7.571   3.404
10733WAT     H132441   8.565   7.554   3.306
10733WAT     H232442   8.576   7.667   3.423
10734WAT      O32443   7.521   1.346   8.645
10734WAT     H132444   7.449   1.297   8.694
10734WAT     H232445   7.483   1.386   8.562
10735WAT      O32446   1.278   3.920   9.590
10735WAT     H132447   1.373   3.896   9.605
10735WAT     H232448   1.224   3.836   9.578
10736WAT      O32449   7.798   7.924   4.085
10736WAT     H132450   7.862   7.878   4.146
10736WAT     H232451   7.848   7.987   4.026
10737WAT      O32452   5.313   2.183   5.093
10737WAT     H132453   5.412   2.199   5.090
10737WAT     H232454   5.265   2.268   5.075
10738WAT      O32455   9.134   9.482   5.426
10738WAT     H132456   9.046   9.467   5.382
10738WAT     H232457   9.167   9.397   5.466
10739WAT      O32458   0.654   0.378   2.492
10739WAT     H132459   0.584   0.415   2.552
10739WAT     H232460   0.737   0.434   2.499
10740WAT      O32461   3.478   6.456   4.087
10740WAT     H132462   3.524   6.459   4.176
10740WAT     H232463   3.473   6.361   4.056
10741WAT      O32464   7.187   2.639   4.229
10741WAT     H132465   7.162   2.575   4.302
10741WAT     H232466   7.109   2.698   4.208
10742WAT      O32467   3.238   3.138   4.829
10742WAT     H132468   3.270   3.197   4.755
10742WAT     H232469   3.173   3.188   4.886
10743WAT      O32470   8.532   1.789   3.362
10743WAT     H132471   8.519   1.764   3.266
10743WAT     H232472   8.488   1.877   3.380
10744WAT      O32473   9.032   2.294   3.090
10744WAT     H132474   9.077   2.384   3.082
10744WAT     H232475   9.089   2.234   3.145
10745WAT      O32476   8.907   4.851   6.625
10745WAT     H132477   8.961   4.932   6.647
10745WAT     H232478   8.967   4.783   6.582
10746WAT      O32479   4.275   8.441   0.656
10746WAT     H132480   4.258   8.539   0.657
10746WAT     H232481   4.269   8.408   0.561
10747WAT      O32482   2.747   2.980   3.095
10747WAT     H132483   2.840   2.953   3.069
10747WAT     H232484   2.723   3.064   3.046
10748WAT      O32485   7.808   8.700   8.714
10748WAT     H132486   7.820   8.797   8.696
10748WAT     H232487   7.723   8.668   8.674
10749WAT      O32488   5.927   8.148   3.550
10749WAT     H132489   5.933   8.211   3.627
10749WAT     H232490   5.841   8.097   3.554
10750WAT      O32491   1.711   7.328   8.460
10750WAT     H132492   1.637   7.311   8.395
10750WAT     H232493   1.756   7.241   8.483
10751WAT      O32494   7.007   3.663   2.846
10751WAT     H132495   7.041   3.628   2.758
10751WAT     H232496   7.038   3.757   2.859
10752WAT      O32497   0.762   1.702   2.570
10752WAT     H132498   0.802   1.616   2.602
10752WAT     H232499   0.746   1.763   2.648
10753WAT      O32500   8.218   6.305   4.414
10753WAT     H132501   8.185   6.323   4.507
10753WAT     H232502   8.199   6.210   4.390
10754WAT      O32503   5.599   2.752   9.255
10754WAT     H132504   5.662   2.742   9.178
10754WAT     H232505   5.540   2.832   9.240
10755WAT      O32506   8.810   5.923   2.377
10755WAT     H132507   8.894   5.928   2.430
10755WAT     H232508   8.788   5.828   2.356
10756WAT      O32509   8.052   4.224   1.498
10756WAT     H132510   8.152   4.224   1.506
10756WAT     H232511   8.021   4.312   1.464
10757WAT      O32512   7.003   3.562   9.745
10757WAT     H132513   7.057   3.550   9.828
10757WAT     H232514   6.910   3.527   9.759
10758WAT      O32515   3.701   6.036   8.051
10758WAT     H132516   3.742   6.083   8.128
10758WAT     H232517   3.770   5.979   8.006
10759WAT      O32518   5.206   3.710   1.924
10759WAT     H132519   5.222   3.808   1.933
10759WAT     H232520   5.140   3.694   1.850
10760WAT      O32521   9.049   9.336   0.208
10760WAT     H132522   9.032   9.250   0.160
10760WAT     H232523   8.967   9.363   0.259
10761WAT      O32524   2.526   0.202   6.214
10761WAT     H132525   2.584   0.281   6.234
10761WAT     H232526   2.535   0.177   6.118
10762WAT      O32527   6.132   6.664   0.944
10762WAT     H132528   6.038   6.643   0.973
10762WAT     H232529   6.186   6.580   0.946
10763WAT      O32530   2.552   1.661   1.714
10763WAT     H132531   2.461   1.635   1.747
10763WAT     H232532   2.614   1.671   1.792
10764WAT      O32533   3.287   8.120   9.829
10764WAT     H132534   3.328   8.047   9.885
10764WAT     H232535   3.308   8.209   9.870
10765WAT      O32536   4.548   8.400   8.054
10765WAT     H132537   4.619   8.376   8.120
10765WAT     H232538   4.538   8.500   8.051
10766WAT      O32539   0.202   4.192   8.967
10766WAT     H132540   0.125   4.208   9.028
10766WAT     H232541   0.286   4.228   9.008
10767WAT      O32542   7.244   2.237   6.435
10767WAT     H132543   7.274   2.270   6.346
10767WAT     H232544   7.230   2.138   6.431
10768WAT      O32545   0.390   3.330   5.630
10768WAT     H132546   0.352   3.416   5.663
10768WAT     H232547   0.318   3.276   5.586
10769WAT      O32548   1.482   6.996   3.545
10769WAT     H132549   1.395   7.046   3.535
10769WAT     H232550   1.473   6.928   3.618
10770WAT      O32551   4.546   7.427   2.089
10770WAT     H132552   4.643   7.405   2.099
10770WAT     H232553   4.491   7.348   2.116
10771WAT      O32554   6.070   4.691   1.323
10771WAT     H132555   6.064   4.691   1.423
10771WAT     H232556   6.113   4.607   1.293
10772WAT      O32557   2.262   5.154   3.164
10772WAT     H132558   2.202   5.168   3.243
10772WAT     H232559   2.236   5.218   3.091
10773WAT      O32560   7.788   6.444   4.415
10773WAT     H132561   7.856   6.502   4.461
10773WAT     H232562   7.805   6.444   4.317
10774WAT      O32563   6.227   4.535   6.831
10774WAT     H132564   6.193   4.448   6.796
10774WAT     H232565   6.149   4.596   6.852
10775WAT      O32566   4.581   3.597   1.684
10775WAT     H132567   4.650   3.618   1.615
10775WAT     H232568   4.577   3.499   1.699
10776WAT      O32569   6.332   5.977   7.357
10776WAT     H132570   6.330   6.055   7.419
10776WAT     H232571   6.377   6.003   7.272
10777WAT      O32572   7.983   7.877   0.873
10777WAT     H132573   7.977   7.848   0.968
10777WAT     H232574   7.903   7.843   0.823
10778WAT      O32575   1.156   4.310   9.426
10778WAT     H132576   1.113   4.237   9.479
10778WAT     H232577   1.103   4.325   9.342
10779WAT      O32578   1.426   9.122   8.789
10779WAT     H132579   1.368   9.051   8.830
10779WAT     H232580   1.373   9.172   8.720
10780WAT      O32581   8.854   8.746   6.297
10780WAT     H132582   8.901   8.815   6.243
10780WAT     H232583   8.904   8.660   6.294
10781WAT      O32584   9.151   4.540   8.635
10781WAT     H132585   9.138   4.606   8.709
10781WAT     H232586   9.088   4.463   8.647
10782WAT      O32587   1.396   1.738   7.727
10782WAT     H132588   1.461   1.815   7.725
10782WAT     H232589   1.310   1.766   7.686
10783WAT      O32590   7.888   3.430   7.230
10783WAT     H132591   7.850   3.405   7.142
10783WAT     H232592   7.847   3.373   7.302
10784WAT      O32593   1.417   5.720   3.961
10784WAT     H132594   1.398   5.765   4.048
10784WAT     H232595   1.363   5.763   3.889
10785WAT      O32596   1.672   1.184   5.201
10785WAT     H132597   1.590   1.215   5.249
10785WAT     H232598   1.743   1.255   5.209
10786WAT      O32599   6.081   8.054   3.874
10786WAT     H132600   6.136   8.036   3.955
10786WAT     H232601   6.041   8.145   3.880
10787WAT      O32602   1.656   8.716   3.745
10787WAT     H132603   1.646   8.737   3.648
10787WAT     H232604   1.658   8.801   3.798
10788WAT      O32605   9.187   7.843   8.701
10788WAT     H132606   9.164   7.907   8.627
10788WAT     H232607   9.282   7.858   8.729
10789WAT      O32608   6.265   7.991   8.491
10789WAT     H132609   6.213   8.045   8.557
10789WAT     H232610   6.314   8.052   8.428
10790WAT      O32611   1.855   3.702   9.033
10790WAT     H132612   1.824   3.749   8.950
10790WAT     H232613   1.845   3.603   9.021
10791WAT      O32614   0.299   6.076   3.887
10791WAT     H132615   0.367   6.058   3.816
10791WAT     H232616   0.317   6.166   3.928
10792WAT      O32617   3.515   8.801   4.220
10792WAT     H132618   3.488   8.897   4.218
10792WAT     H232619   3.603   8.792   4.266
10793WAT      O32620   9.523   4.540   5.304
10793WAT     H132621   9.437   4.591   5.308
10793WAT     H232622   9.571   4.562   5.218
10794WAT      O32623   9.687   3.237   7.466
10794WAT     H132624   9.590   3.251   7.488
10794WAT     H232625   9.723   3.319   7.421
10795WAT      O32626   5.767   5.289   3.995
10795WAT     H132627   5.682   5.242   3.972
10795WAT     H232628   5.845   5.237   3.962
10796WAT      O32629   5.192   9.840   7.527
10796WAT     H132630   5.151   9.758   7.488
10796WAT     H232631   5.274   9.815   7.579
10797WAT      O32632   7.540   7.246   7.407
10797WAT     H132633   7.602   7.322   7.389
10797WAT     H232634   7.567   7.167   7.353
10798WAT      O32635   9.805   4.045   1.495
10798WAT     H132636   9.726   3.991   1.522
10798WAT     H232637   9.826   4.112   1.567
10799WAT      O32638   5.042   0.743   8.437
10799WAT     H132639   5.131   0.698   8.431
10799WAT     H232640   4.972   0.676   8.461
10800WAT      O32641   2.814   0.104   5.167
10800WAT     H132642   2.765   0.027   5.126
10800WAT     H232643   2.908   0.078   5.186
10801WAT      O32644   8.022   9.610   4.305
10801WAT     H132645   7.931   9.602   4.263
10801WAT     H232646   8.086   9.551   4.257
10802WAT      O32647   9.401   1.326   7.287
10802WAT     H132648   9.301   1.318   7.294
10802WAT     H232649   9.439   1.239   7.255
10803WAT      O32650   2.767   7.382   9.869
10803WAT     H132651   2.837   7.354   9.934
10803WAT     H232652   2.775   7.328   9.785
10804WAT      O32653   5.094   2.025   6.919
10804WAT     H132654   5.055   2.096   6.977
10804WAT     H232655   5.023   1.958   6.896
10805WAT      O32656   5.080   2.458   6.903
10805WAT     H132657   5.016   2.385   6.881
10805WAT     H232658   5.136   2.431   6.982
10806WAT      O32659   2.719   3.388   8.890
10806WAT     H132660   2.788   3.318   8.875
10806WAT     H232661   2.745   3.445   8.968
10807WAT      O32662   0.617   9.669   8.430
10807WAT     H132663   0.682   9.743   8.450
10807WAT     H232664   0.549   9.664   8.502
10808WAT      O32665   7.142   3.968   8.872
10808WAT     H132666   7.051   4.002   8.897
10808WAT     H232667   7.210   4.039   8.890
10809WAT      O32668   1.221   4.836   4.027
10809WAT     H132669   1.172   4.813   4.111
10809WAT     H232670   1.206   4.764   3.959
10810WAT      O32671   7.851   9.581   8.768
10810WAT     H132672   7.856   9.570   8.867
10810WAT     H232673   7.756   9.598   8.741
10811WAT      O32674   0.614   4.100   0.442
10811WAT     H132675   0.586   4.194   0.421
10811WAT     H232676   0.612   4.086   0.541
10812WAT      O32677   3.753   1.349   2.755
10812WAT     H132678   3.847   1.340   2.724
10812WAT     H232679   3.692   1.304   2.690
10813WAT      O32680   5.887   4.587   9.432
10813WAT     H132681   5.825   4.569   9.355
10813WAT     H232682   5.965   4.523   9.427
10814WAT      O32683   9.092   3.168   9.107
10814WAT     H132684   9.042   3.086   9.135
10814WAT     H232685   9.056   3.202   9.021
10815WAT      O32686   4.962   1.074   2.279
10815WAT     H132687   4.986   1.151   2.220
10815WAT     H232688   5.005   0.991   2.244
10816WAT      O32689   0.512   2.339   0.986
10816WAT     H132690   0.547   2.335   0.892
10816WAT     H232691   0.509   2.247   1.024
10817WAT      O32692   8.973   5.417   4.497
10817WAT     H132693   8.898   5.352   4.508
10817WAT     H232694   9.032   5.414   4.578
10818WAT      O32695   4.278   7.200   0.534
10818WAT     H132696   4.298   7.216   0.438
10818WAT     H232697   4.257   7.103   0.548
10819WAT      O32698   3.370   6.525   5.307
10819WAT     H132699   3.409   6.453   5.250
10819WAT     H232700   3.434   6.603   5.310
10820WAT      O32701   1.346   2.778   7.400
10820WAT     H132702   1.361   2.806   7.495
10820WAT     H232703   1.374   2.852   7.339
10821WAT      O32704   7.392   5.657   4.471
10821WAT     H132705   7.324   5.642   4.399
10821WAT     H232706   7.468   5.593   4.459
10822WAT      O32707   3.078   5.392   2.619
10822WAT     H132708   3.006   5.446   2.661
10822WAT     H232709   3.158   5.391   2.679
10823WAT      O32710   0.229   1.331   1.575
10823WAT     H132711   0.275   1.243   1.560
10823WAT     H232712   0.136   1.314   1.607
10824WAT      O32713   7.611   0.897   5.496
10824WAT     H132714   7.640   0.951   5.575
10824WAT     H232715   7.692   0.853   5.455
10825WAT      O32716   4.444   8.888   4.182
10825WAT     H132717   4.507   8.922   4.112
10825WAT     H232718   4.373   8.832   4.140
10826WAT      O32719   9.871   1.438   2.965
10826WAT     H132720   9.921   1.457   2.881
10826WAT     H232721   9.936   1.426   3.040
10827WAT      O32722   2.806   5.673   3.369
10827WAT     H132723   2.811   5.673   3.269
10827WAT     H232724   2.711   5.673   3.399
10828WAT      O32725   8.121   1.956   1.287
10828WAT     H132726   8.213   1.932   1.318
10828WAT     H232727   8.053   1.905   1.340
10829WAT      O32728   7.418   9.624   3.503
10829WAT     H132729   7.431   9.539   3.454
10829WAT     H232730   7.360   9.686   3.449
10830WAT      O32731   8.072   3.091   1.991
10830WAT     H132732   8.026   3.005   2.014
10830WAT     H232733   8.023   3.168   2.032
10831WAT      O32734   5.793   8.500   0.889
10831WAT     H132735   5.845   8.550   0.820
10831WAT     H232736   5.700   8.536   0.892
10832WAT      O32737   3.119   3.655   0.300
10832WAT     H132738   3.059   3.578   0.279
10832WAT     H232739   3.097   3.732   0.241
10833WAT      O32740   3.544   9.497   7.680
10833WAT     H132741   3.515   9.584   7.717
10833WAT     H232742   3.501   9.483   7.591
10834WAT      O32743   2.614   7.802   9.850
10834WAT     H132744   2.657   7.892   9.838
10834WAT     H232745   2.684   7.731   9.844
10835WAT      O32746   0.707   3.538   5.889
10835WAT     H132747   0.710   3.442   5.858
10835WAT     H232748   0.616   3.575   5.871
10836WAT      O32749   4.145   3.154   5.705
10836WAT     H132750   4.133   3.176   5.801
10836WAT     H232751   4.153   3.239   5.652
10837WAT      O32752   0.713   9.621   9.520
10837WAT     H132753   0.732   9.535   9.474
10837WAT     H232754   0.680   9.688   9.453
10838WAT      O32755   2.422   2.989   0.093
10838WAT     H132756   2.376   3.056   0.152
10838WAT     H232757   2.384   2.898   0.111
10839WAT      O32758   6.723   6.463   0.506
10839WAT     H132759   6.757   6.545   0.553
10839WAT     H232760   6.625   6.472   0.489
10840WAT      O32761   1.379   6.711   2.855
10840WAT     H132762   1.410   6.623   2.818
10840WAT     H232763   1.444   6.782   2.830
10841WAT      O32764   3.691   7.421   8.775
10841WAT     H132765   3.686   7.499   8.713
10841WAT     H232766   3.668   7.450   8.868
10842WAT      O32767   0.254   3.303   0.408
10842WAT     H132768   0.352   3.309   0.428
10842WAT     H232769   0.229   3.207   0.394
10843WAT      O32770   1.805   7.204   6.063
10843WAT     H132771   1.815   7.113   6.024
10843WAT     H232772   1.771   7.196   6.157
10844WAT      O32773   1.290   1.016   9.525
10844WAT     H132774   1.362   1.070   9.570
10844WAT     H232775   1.322   0.986   9.435
10845WAT      O32776   2.114   6.509   9.885
10845WAT     H132777   2.166   6.585   9.923
10845WAT     H232778   2.091   6.445   9.959
10846WAT      O32779   6.249   0.841   1.107
10846WAT     H132780   6.196   0.814   1.027
10846WAT     H232781   6.313   0.769   1.131
10847WAT      O32782   1.637   8.574   5.638
10847WAT     H132783   1.596   8.488   5.670
10847WAT     H232784   1.689   8.615   5.712
10848WAT      O32785   1.452   3.935   0.630
10848WAT     H132786   1.407   3.899   0.549
10848WAT     H232787   1.487   3.859   0.685
10849WAT      O32788   7.579   1.018   8.607
10849WAT     H132789   7.555   1.115   8.612
10849WAT     H232790   7.591   0.982   8.700
10850WAT      O32791   4.727   8.911   5.570
10850WAT     H132792   4.783   8.961   5.503
10850WAT     H232793   4.636   8.894   5.531
10851WAT      O32794   1.704   7.814   7.405
10851WAT     H132795   1.626   7.870   7.430
10851WAT     H232796   1.783   7.872   7.386
10852WAT      O32797   2.135   5.080   5.283
10852WAT     H132798   2.040   5.066   5.312
10852WAT     H232799   2.195   5.074   5.363
10853WAT      O32800   0.022   2.267   2.168
10853WAT     H132801   0.077   2.262   2.085
10853WAT     H232802  -0.039   2.188   2.173
10854WAT      O32803   2.633   6.978   2.169
10854WAT     H132804   2.559   6.926   2.125
10854WAT     H232805   2.618   6.980   2.268
10855WAT      O32806   3.334   8.825   6.843
10855WAT     H132807   3.412   8.852   6.898
10855WAT     H232808   3.322   8.725   6.848
10856WAT      O32809   4.857   7.232   7.040
10856WAT     H132810   4.937   7.194   6.994
10856WAT     H232811   4.809   7.293   6.977
10857WAT      O32812   0.947   6.363   3.117
10857WAT     H132813   0.978   6.324   3.204
10857WAT     H232814   0.968   6.299   3.043
10858WAT      O32815   8.384   0.920   4.709
10858WAT     H132816   8.388   0.841   4.771
10858WAT     H232817   8.301   0.972   4.727
10859WAT      O32818   8.942   1.050   6.660
10859WAT     H132819   8.863   1.111   6.673
10859WAT     H232820   9.021   1.104   6.631
10860WAT      O32821   0.164   8.057   9.604
10860WAT     H132822   0.169   8.129   9.535
10860WAT     H232823   0.103   8.085   9.677
10861WAT      O32824   8.447   8.306   2.777
10861WAT     H132825   8.443   8.335   2.681
10861WAT     H232826   8.450   8.206   2.782
10862WAT      O32827   7.751   6.640   5.294
10862WAT     H132828   7.820   6.596   5.236
10862WAT     H232829   7.675   6.671   5.238
10863WAT      O32830   6.634   6.463   5.327
10863WAT     H132831   6.684   6.441   5.411
10863WAT     H232832   6.556   6.522   5.350
10864WAT      O32833   8.424   2.241   2.621
10864WAT     H132834   8.494   2.260   2.553
10864WAT     H232835   8.374   2.325   2.642
10865WAT      O32836   1.639   3.189   7.914
10865WAT     H132837   1.716   3.236   7.957
10865WAT     H232838   1.562   3.187   7.978
10866WAT      O32839   7.048   5.421   9.306
10866WAT     H132840   7.015   5.482   9.234
10866WAT     H232841   7.015   5.328   9.288
10867WAT      O32842   7.178   3.456   1.173
10867WAT     H132843   7.210   3.398   1.248
10867WAT     H232844   7.222   3.427   1.088
10868WAT      O32845   3.146   2.109   6.158
10868WAT     H132846   3.097   2.048   6.095
10868WAT     H232847   3.244   2.092   6.150
10869WAT      O32848   0.613   7.057   9.844
10869WAT     H132849   0.662   6.978   9.881
10869WAT     H232850   0.617   7.055   9.744
10870WAT      O32851   0.412   3.666   5.895
10870WAT     H132852   0.334   3.636   5.949
10870WAT     H232853   0.402   3.632   5.801
10871WAT      O32854   8.176   9.633   7.943
10871WAT     H132855   8.195   9.599   7.851
10871WAT     H232856   8.233   9.713   7.962
10872WAT      O32857   8.884   3.295   8.352
10872WAT     H132858   8.979   3.325   8.353
10872WAT     H232859   8.873   3.221   8.286
10873WAT      O32860   4.243   3.149   7.350
10873WAT     H132861   4.180   3.152   7.427
10873WAT     H232862   4.231   3.062   7.301
10874WAT      O32863   1.350   1.453   6.352
10874WAT     H132864   1.296   1.521   6.302
10874WAT     H232865   1.446   1.461   6.326
10875WAT      O32866   6.249   2.212   8.040
10875WAT     H132867   6.169   2.272   8.049
10875WAT     H232868   6.246   2.143   8.112
10876WAT      O32869   0.367   3.410   8.581
10876WAT     H132870   0.461   3.426   8.553
10876WAT     H232871   0.335   3.323   8.544
10877WAT      O32872   7.491   7.379   2.751
10877WAT     H132873   7.510   7.461   2.805
10877WAT     H232874   7.535   7.300   2.794
10878WAT      O32875   8.375   5.909   7.474
10878WAT     H132876   8.304   5.949   7.417
10878WAT     H232877   8.373   5.951   7.565
10879WAT      O32878   5.777   8.066   8.865
10879WAT     H132879   5.687   8.089   8.902
10879WAT     H232880   5.795   7.968   8.880
10880WAT      O32881   2.542   9.675   7.656
10880WAT     H132882   2.594   9.598   7.620
10880WAT     H232883   2.605   9.744   7.692
10881WAT      O32884   3.446   5.637   7.147
10881WAT     H132885   3.495   5.619   7.232
10881WAT     H232886   3.485   5.580   7.074
10882WAT      O32887   9.689   2.737   6.844
10882WAT     H132888   9.784   2.739   6.811
10882WAT     H232889   9.689   2.726   6.944
10883WAT      O32890   9.514   1.966   7.782
10883WAT     H132891   9.545   1.931   7.694
10883WAT     H232892   9.590   2.014   7.827
10884WAT      O32893   7.128   8.939   3.549
10884WAT     H132894   7.127   8.853   3.600
10884WAT     H232895   7.051   8.939   3.485
10885WAT      O32896   4.712   8.137   6.931
10885WAT     H132897   4.625   8.096   6.959
10885WAT     H232898   4.701   8.181   6.842
10886WAT      O32899   1.045   8.772   3.075
10886WAT     H132900   1.040   8.772   2.975
10886WAT     H232901   0.953   8.765   3.114
10887WAT      O32902   5.169   1.553   3.047
10887WAT     H132903   5.131   1.507   2.967
10887WAT     H232904   5.112   1.535   3.127
10888WAT      O32905   5.563   4.972   3.323
10888WAT     H132906   5.511   5.053   3.296
10888WAT     H232907   5.654   4.999   3.354
10889WAT      O32908   0.257   9.793   5.108
10889WAT     H132909   0.344   9.743   5.112
10889WAT     H232910   0.185   9.740   5.152
10890WAT      O32911   2.449   5.032   9.193
10890WAT     H132912   2.372   4.995   9.245
10890WAT     H232913   2.500   4.957   9.151
10891WAT      O32914   8.804   2.997   0.758
10891WAT     H132915   8.755   3.082   0.781
10891WAT     H232916   8.900   3.006   0.786
10892WAT      O32917   4.585   9.090   5.178
10892WAT     H132918   4.617   9.171   5.129
10892WAT     H232919   4.489   9.072   5.154
10893WAT      O32920   9.036   7.995   9.852
10893WAT     H132921   8.999   7.922   9.796
10893WAT     H232922   8.981   8.005   9.935
10894WAT      O32923   5.423   8.186   3.374
10894WAT     H132924   5.487   8.172   3.299
10894WAT     H232925   5.336   8.219   3.338
10895WAT      O32926   2.954   5.829   7.448
10895WAT     H132927   3.009   5.748   7.427
10895WAT     H232928   2.875   5.801   7.503
10896WAT      O32929   8.045   4.135   6.462
10896WAT     H132930   8.094   4.177   6.539
10896WAT     H232931   8.106   4.128   6.383
10897WAT      O32932   6.365   8.265   2.620
10897WAT     H132933   6.360   8.287   2.523
10897WAT     H232934   6.459   8.272   2.652
10898WAT      O32935   0.802   9.182   3.518
10898WAT     H132936   0.877   9.242   3.489
10898WAT     H232937   0.798   9.180   3.618
10899WAT      O32938   8.361   3.778   8.065
10899WAT     H132939   8.406   3.749   7.980
10899WAT     H232940   8.264   3.758   8.060
10900WAT      O32941   5.787   5.743   1.158
10900WAT     H132942   5.821   5.742   1.252
10900WAT     H232943   5.687   5.735   1.159
10901WAT      O32944   3.995   0.637   2.895
10901WAT     H132945   4.029   0.544   2.909
10901WAT     H232946   4.053   0.702   2.944
10902WAT      O32947   4.195   8.849   4.599
10902WAT     H132948   4.216   8.862   4.696
10902WAT     H232949   4.279   8.824   4.550
10903WAT      O32950   1.248   8.849   1.120
10903WAT     H132951   1.186   8.774   1.142
10903WAT     H232952   1.220   8.891   1.033
10904WAT      O32953   7.219   4.713   4.545
10904WAT     H132954   7.165   4.690   4.625
10904WAT     H232955   7.210   4.811   4.526
10905WAT      O32956   3.094   2.758   8.228
10905WAT     H132957   3.062   2.723   8.316
10905WAT     H232958   3.068   2.854   8.218
10906WAT      O32959   1.061   0.497   2.965
10906WAT     H132960   0.966   0.467   2.956
10906WAT     H232961   1.070   0.589   2.927
10907WAT      O32962   8.715   9.757   8.330
10907WAT     H132963   8.716   9.721   8.423
10907WAT     H232964   8.665   9.694   8.270
10908WAT      O32965   8.258   4.076   4.070
10908WAT     H132966   8.162   4.079   4.042
10908WAT     H232967   8.265   4.030   4.159
10909WAT      O32968   9.263   2.441   6.663
10909WAT     H132969   9.225   2.420   6.573
10909WAT     H232970   9.191   2.472   6.724
10910WAT      O32971   2.666   9.378   3.174
10910WAT     H132972   2.709   9.350   3.088
10910WAT     H232973   2.620   9.299   3.215
10911WAT      O32974   5.929   4.766   0.225
10911WAT     H132975   6.009   4.756   0.166
10911WAT     H232976   5.954   4.820   0.306
10912WAT      O32977   8.298   6.079   0.477
10912WAT     H132978   8.363   6.081   0.400
10912WAT     H232979   8.307   5.992   0.526
10913WAT      O32980   2.278   7.054   3.238
10913WAT     H132981   2.360   7.029   3.188
10913WAT     H232982   2.303   7.095   3.326
10914WAT      O32983   7.845   7.137   0.610
10914WAT     H132984   7.867   7.110   0.516
10914WAT     H232985   7.902   7.085   0.674
10915WAT      O32986   5.137   1.612   4.896
10915WAT     H132987   5.042   1.580   4.903
10915WAT     H232988   5.167   1.646   4.985
10916WAT      O32989   0.913   0.445   4.703
10916WAT     H132990   1.008   0.416   4.714
10916WAT     H232991   0.906   0.543   4.721
10917WAT      O32992   3.056   7.040   8.921
10917WAT     H132993   3.046   7.012   9.017
10917WAT     H232994   3.041   6.961   8.862
10918WAT      O32995   9.473   3.891   0.981
10918WAT     H132996   9.524   3.882   1.066
10918WAT     H232997   9.394   3.830   0.983
10919WAT      O32998   6.040   7.659   1.881
10919WAT     H132999   6.139   7.660   1.869
10919WAT     H233000   6.015   7.593   1.951
10920WAT      O33001   2.672   2.350   4.846
10920WAT     H133002   2.658   2.400   4.760
10920WAT     H233003   2.768   2.325   4.854
10921WAT      O33004   4.397   7.333   3.171
10921WAT     H133005   4.437   7.337   3.263
10921WAT     H233006   4.298   7.345   3.178
10922WAT      O33007   0.584   0.896   1.791
10922WAT     H133008   0.652   0.867   1.723
10922WAT     H233009   0.493   0.868   1.762
10923WAT      O33010   4.771   9.070   6.699
10923WAT     H133011   4.720   9.059   6.784
10923WAT     H233012   4.708   9.066   6.622
10924WAT      O33013   8.482   8.707   4.440
10924WAT     H133014   8.524   8.617   4.433
10924WAT     H233015   8.524   8.758   4.514
10925WAT      O33016   5.785   3.738   7.696
10925WAT     H133017   5.879   3.722   7.727
10925WAT     H233018   5.781   3.726   7.597
10926WAT      O33019   0.267   6.541   0.068
10926WAT     H133020   0.199   6.471   0.047
10926WAT     H233021   0.232   6.598   0.143
10927WAT      O33022   2.768   2.804   4.240
10927WAT     H133023   2.778   2.828   4.144
10927WAT     H233024   2.742   2.708   4.248
10928WAT      O33025   4.581   8.183   1.007
10928WAT     H133026   4.640   8.105   0.986
10928WAT     H233027   4.550   8.225   0.922
10929WAT      O33028   9.773   5.158   2.590
10929WAT     H133029   9.740   5.130   2.500
10929WAT     H233030   9.807   5.252   2.585
10930WAT      O33031   3.827   7.550   1.027
10930WAT     H133032   3.880   7.480   0.977
10930WAT     H233033   3.776   7.606   0.962
10931WAT      O33034   1.157   5.627   4.155
10931WAT     H133035   1.217   5.707   4.166
10931WAT     H233036   1.195   5.567   4.085
10932WAT      O33037   7.272   1.904   7.050
10932WAT     H133038   7.281   1.913   7.149
10932WAT     H233039   7.313   1.984   7.005
10933WAT      O33040   4.999   2.284   3.197
10933WAT     H133041   5.009   2.221   3.274
10933WAT     H233042   5.070   2.354   3.201
10934WAT      O33043   1.699   4.590   0.718
10934WAT     H133044   1.716   4.539   0.634
10934WAT     H233045   1.706   4.688   0.699
10935WAT      O33046   5.489   6.805   9.559
10935WAT     H133047   5.492   6.904   9.574
10935WAT     H233048   5.394   6.778   9.540
10936WAT      O33049   9.488   5.087   4.312
10936WAT     H133050   9.565   5.106   4.252
10936WAT     H233051   9.497   5.142   4.395
10937WAT      O33052   4.132   4.191   8.065
10937WAT     H133053   4.174   4.217   7.978
10937WAT     H233054   4.204   4.164   8.129
10938WAT      O33055   4.167   9.636   5.989
10938WAT     H133056   4.108   9.638   5.908
10938WAT     H233057   4.232   9.561   5.981
10939WAT      O33058   4.847   5.930   3.867
10939WAT     H133059   4.784   5.944   3.944
10939WAT     H233060   4.826   5.994   3.794
10940WAT      O33061   4.731   9.023   9.347
10940WAT     H133062   4.651   9.082   9.364
10940WAT     H233063   4.767   9.041   9.256
10941WAT      O33064   5.776   3.781   1.072
10941WAT     H133065   5.871   3.789   1.042
10941WAT     H233066   5.722   3.856   1.034
10942WAT      O33067   2.821   5.316   6.575
10942WAT     H133068   2.901   5.293   6.519
10942WAT     H233069   2.748   5.251   6.557
10943WAT      O33070   4.426   7.649   8.573
10943WAT     H133071   4.331   7.634   8.547
10943WAT     H233072   4.455   7.577   8.637
10944WAT      O33073   8.171   5.728   5.697
10944WAT     H133074   8.265   5.733   5.664
10944WAT     H233075   8.132   5.639   5.671
10945WAT      O33076   5.083   5.910   0.941
10945WAT     H133077   5.176   5.874   0.945
10945WAT     H233078   5.081   6.003   0.978
10946WAT      O33079   9.736   2.801   3.609
10946WAT     H133080   9.797   2.778   3.685
10946WAT     H233081   9.651   2.839   3.644
10947WAT      O33082   4.507   0.019   0.228
10947WAT     H133083   4.605   0.013   0.212
10947WAT     H233084   4.461   0.050   0.144
10948WAT      O33085   9.609   1.862   0.009
10948WAT     H133086   9.687   1.820   0.055
10948WAT     H233087   9.606   1.831  -0.086
10949WAT      O33088   6.181   8.872   2.986
10949WAT     H133089   6.147   8.875   2.892
10949WAT     H233090   6.185   8.777   3.017
10950WAT      O33091   2.159   6.264   8.729
10950WAT     H133092   2.171   6.168   8.702
10950WAT     H233093   2.136   6.319   8.649
10951WAT      O33094   5.815   0.637   7.836
10951WAT     H133095   5.782   0.718   7.884
10951WAT     H233096   5.891   0.662   7.776
10952WAT      O33097   8.828   8.040   5.935
10952WAT     H133098   8.891   8.108   5.897
10952WAT     H233099   8.850   7.950   5.898
10953WAT      O33100   0.169   1.597   0.971
10953WAT     H133101   0.123   1.531   1.030
10953WAT     H233102   0.265   1.573   0.963
10954WAT      O33103   3.476   2.526   7.226
10954WAT     H133104   3.521   2.471   7.296
10954WAT     H233105   3.445   2.467   7.152
10955WAT      O33106   0.786   8.381   8.751
10955WAT     H133107   0.746   8.435   8.825
10955WAT     H233108   0.865   8.330   8.786
10956WAT      O33109   9.340   5.927   6.534
10956WAT     H133110   9.372   5.855   6.473
10956WAT     H233111   9.401   5.934   6.613
10957WAT      O33112   0.221   7.712   4.445
10957WAT     H133113   0.312   7.710   4.403
10957WAT     H233114   0.169   7.631   4.416
10958WAT      O33115   3.062   9.031   8.802
10958WAT     H133116   3.025   9.028   8.709
10958WAT     H233117   3.069   9.127   8.832
10959WAT      O33118   1.043   8.052   0.924
10959WAT     H133119   1.118   8.077   0.863
10959WAT     H233120   0.973   8.004   0.871
10960WAT      O33121   1.812   1.222   8.426
10960WAT     H133122   1.818   1.244   8.328
10960WAT     H233123   1.747   1.147   8.439
10961WAT      O33124   7.529   4.626   3.945
10961WAT     H133125   7.574   4.538   3.963
10961WAT     H233126   7.594   4.701   3.958
10962WAT      O33127   1.473   7.100   4.265
10962WAT     H133128   1.424   7.112   4.352
10962WAT     H233129   1.546   7.033   4.277
10963WAT      O33130   1.801   1.449   9.869
10963WAT     H133131   1.754   1.474   9.954
10963WAT     H233132   1.839   1.531   9.826
10964WAT      O33133   3.822   3.425   7.282
10964WAT     H133134   3.913   3.398   7.251
10964WAT     H233135   3.809   3.523   7.267
10965WAT      O33136   7.071   2.652   1.462
10965WAT     H133137   7.167   2.633   1.440
10965WAT     H233138   7.066   2.720   1.534
10966WAT      O33139   1.014   3.482   3.317
10966WAT     H133140   1.075   3.509   3.242
10966WAT     H233141   1.069   3.454   3.396
10967WAT      O33142   0.129   6.332   2.954
10967WAT     H133143   0.152   6.259   3.019
10967WAT     H233144   0.168   6.418   2.987
10968WAT      O33145   6.933   0.610   4.172
10968WAT     H133146   6.863   0.616   4.243
10968WAT     H233147   6.891   0.582   4.086
10969WAT      O33148   5.575   6.379   0.089
10969WAT     H133149   5.486   6.412   0.057
10969WAT     H233150   5.563   6.289   0.132
10970WAT      O33151   5.355   3.253   4.710
10970WAT     H133152   5.264   3.228   4.676
10970WAT     H233153   5.347   3.334   4.768
10971WAT      O33154   7.054   0.488   2.748
10971WAT     H133155   7.035   0.444   2.835
10971WAT     H233156   6.968   0.518   2.706
10972WAT      O33157   1.122   7.098   7.642
10972WAT     H133158   1.120   7.080   7.543
10972WAT     H233159   1.160   7.189   7.658
10973WAT      O33160   0.924   5.890   3.854
10973WAT     H133161   0.836   5.899   3.809
10973WAT     H233162   0.993   5.943   3.805
10974WAT      O33163   4.002   7.376   2.337
10974WAT     H133164   3.985   7.293   2.284
10974WAT     H233165   4.000   7.456   2.276
10975WAT      O33166   4.959   8.151   8.134
10975WAT     H133167   4.998   8.089   8.203
10975WAT     H233168   4.899   8.218   8.179
10976WAT      O33169   4.075   6.862   2.610
10976WAT     H133170   4.096   6.869   2.708
10976WAT     H233171   4.076   6.766   2.582
10977WAT      O33172   8.758   5.259   6.776
10977WAT     H133173   8.738   5.171   6.733
10977WAT     H233174   8.764   5.330   6.705
10978WAT      O33175   1.397   7.717   6.443
10978WAT     H133176   1.376   7.709   6.345
10978WAT     H233177   1.494   7.736   6.454
10979WAT      O33178   0.386   8.936   9.167
10979WAT     H133179   0.328   8.877   9.111
10979WAT     H233180   0.353   9.030   9.162
10980WAT      O33181   3.992   6.519   5.306
10980WAT     H133182   3.951   6.465   5.380
10980WAT     H233183   3.932   6.517   5.226
10981WAT      O33184   4.213   5.502   3.884
10981WAT     H133185   4.310   5.525   3.894
10981WAT     H233186   4.178   5.542   3.799
10982WAT      O33187   4.223   8.950   9.496
10982WAT     H133188   4.126   8.944   9.522
10982WAT     H233189   4.230   8.983   9.401
10983WAT      O33190   2.672   7.831   8.864
10983WAT     H133191   2.768   7.821   8.842
10983WAT     H233192   2.636   7.914   8.820
10984WAT      O33193   0.687   0.275   5.415
10984WAT     H133194   0.650   0.217   5.487
10984WAT     H233195   0.617   0.292   5.346
10985WAT      O33196   1.442   3.594   6.706
10985WAT     H133197   1.468   3.554   6.618
10985WAT     H233198   1.419   3.690   6.692
10986WAT      O33199   2.489   0.593   1.202
10986WAT     H133200   2.404   0.565   1.248
10986WAT     H233201   2.500   0.541   1.118
10987WAT      O33202   1.649   2.073   8.829
10987WAT     H133203   1.556   2.037   8.834
10987WAT     H233204   1.648   2.171   8.850
10988WAT      O33205   4.922   1.187   0.562
10988WAT     H133206   4.945   1.269   0.511
10988WAT     H233207   4.953   1.106   0.512
10989WAT      O33208   7.924   8.401   0.973
10989WAT     H133209   7.898   8.356   0.888
10989WAT     H233210   7.878   8.490   0.979
10990WAT      O33211   1.232   2.251   2.173
10990WAT     H133212   1.288   2.290   2.100
10990WAT     H233213   1.135   2.267   2.152
10991WAT      O33214   4.212   5.861   6.223
10991WAT     H133215   4.234   5.899   6.133
10991WAT     H233216   4.297   5.839   6.271
10992WAT      O33217   2.576   0.043   1.217
10992WAT     H133218   2.616   0.103   1.286
10992WAT     H233219   2.646   0.016   1.152
10993WAT      O33220   2.473   2.468   6.708
10993WAT     H133221   2.510   2.399   6.769
10993WAT     H233222   2.392   2.432   6.662
10994WAT      O33223   2.782   2.790   6.127
10994WAT     H133224   2.709   2.824   6.187
10994WAT     H233225   2.871   2.810   6.168
10995WAT      O33226   6.171   1.413   7.480
10995WAT     H133227   6.154   1.478   7.553
10995WAT     H233228   6.232   1.453   7.412
10996WAT      O33229   2.012   7.331   2.660
10996WAT     H133230   1.964   7.411   2.623
10996WAT     H233231   2.030   7.347   2.758
10997WAT      O33232   6.730   8.913   5.019
10997WAT     H133233   6.670   8.993   5.026
10997WAT     H233234   6.803   8.933   4.952
10998WAT      O33235   6.264   5.619   7.690
10998WAT     H133236   6.257   5.621   7.789
10998WAT     H233237   6.172   5.618   7.650
10999WAT      O33238   8.537   7.739   4.219
10999WAT     H133239   8.506   7.720   4.126
10999WAT     H233240   8.505   7.666   4.280
11000WAT      O33241   8.962   8.558   7.962
11000WAT     H133242   8.963   8.561   8.062
11000WAT     H233243   8.871   8.533   7.931
11001WAT      O33244   6.146   8.994   1.394
11001WAT     H133245   6.227   8.973   1.450
11001WAT     H233246   6.090   9.062   1.442
11002WAT      O33247   6.459   1.610   6.389
11002WAT     H133248   6.438   1.534   6.329
11002WAT     H233249   6.520   1.579   6.462
11003WAT      O33250   3.266   6.418   3.250
11003WAT     H133251   3.294   6.443   3.157
11003WAT     H233252   3.168   6.398   3.250
11004WAT      O33253   0.136   3.395   6.272
11004WAT     H133254   0.172   3.317   6.324
11004WAT     H233255   0.089   3.457   6.335
11005WAT      O33256   2.212   0.872   4.123
11005WAT     H133257   2.219   0.935   4.201
11005WAT     H233258   2.151   0.911   4.054
11006WAT      O33259   8.693   3.257   5.625
11006WAT     H133260   8.644   3.271   5.710
11006WAT     H233261   8.737   3.167   5.625
11007WAT      O33262   4.027   7.601   2.199
11007WAT     H133263   4.100   7.669   2.201
11007WAT     H233264   3.946   7.640   2.155
11008WAT      O33265   4.877   9.163   7.975
11008WAT     H133266   4.969   9.134   8.001
11008WAT     H233267   4.870   9.262   7.980
11009WAT      O33268   2.721   0.797   1.548
11009WAT     H133269   2.692   0.796   1.452
11009WAT     H233270   2.644   0.827   1.606
11010WAT      O33271   8.713   8.774   7.749
11010WAT     H133272   8.772   8.843   7.792
11010WAT     H233273   8.703   8.696   7.811
11011WAT      O33274   9.056   8.242   1.579
11011WAT     H133275   9.041   8.231   1.481
11011WAT     H233276   9.123   8.315   1.595
11012WAT      O33277   7.528   5.343   7.567
11012WAT     H133278   7.453   5.401   7.538
11012WAT     H233279   7.593   5.397   7.622
11013WAT      O33280   1.589   8.402   3.310
11013WAT     H133281   1.521   8.463   3.351
11013WAT     H233282   1.548   8.354   3.232
11014WAT      O33283   8.668   8.322   4.707
11014WAT     H133284   8.764   8.304   4.684
11014WAT     H233285   8.663   8.396   4.774
11015WAT      O33286   8.513   0.259   0.729
11015WAT     H133287   8.461   0.184   0.689
11015WAT     H233288   8.547   0.231   0.819
11016WAT      O33289   0.340   4.049   3.326
11016WAT     H133290   0.279   4.009   3.257
11016WAT     H233291   0.404   3.980   3.358
11017WAT      O33292   3.899   3.555   5.306
11017WAT     H133293   3.997   3.558   5.286
11017WAT     H233294   3.852   3.624   5.251
11018WAT      O33295   0.611   4.651   8.818
11018WAT     H133296   0.618   4.648   8.718
11018WAT     H233297   0.665   4.728   8.853
11019WAT      O33298   0.952   2.953   8.661
11019WAT     H133299   0.927   2.916   8.572
11019WAT     H233300   0.901   2.905   8.733
11020WAT      O33301   9.880   0.809   6.146
11020WAT     H133302   9.806   0.871   6.120
11020WAT     H233303   9.968   0.850   6.121
11021WAT      O33304   2.954   1.291   0.331
11021WAT     H133305   2.901   1.311   0.249
11021WAT     H233306   2.998   1.375   0.364
11022WAT      O33307   5.649   2.755   2.860
11022WAT     H133308   5.652   2.655   2.858
11022WAT     H233309   5.734   2.790   2.900
11023WAT      O33310   4.850   6.452   5.181
11023WAT     H133311   4.756   6.431   5.155
11023WAT     H233312   4.893   6.506   5.108
11024WAT      O33313   2.550   7.530   6.035
11024WAT     H133314   2.624   7.582   6.078
11024WAT     H233315   2.560   7.534   5.935
11025WAT      O33316   9.091   6.017   2.091
11025WAT     H133317   9.126   6.106   2.121
11025WAT     H233318   8.993   6.024   2.074
11026WAT      O33319   2.492   6.692   5.854
11026WAT     H133320   2.560   6.627   5.888
11026WAT     H233321   2.406   6.679   5.902
11027WAT      O33322   7.971   2.092   0.927
11027WAT     H133323   7.926   2.032   0.992
11027WAT     H233324   7.914   2.101   0.845
11028WAT      O33325   8.651   1.439   1.725
11028WAT     H133326   8.689   1.373   1.661
11028WAT     H233327   8.596   1.506   1.675
11029WAT      O33328   1.936   0.576   8.866
11029WAT     H133329   1.879   0.657   8.852
11029WAT     H233330   2.004   0.571   8.793
11030WAT      O33331   3.089   7.374   5.317
11030WAT     H133332   3.033   7.292   5.307
11030WAT     H233333   3.054   7.445   5.256
11031WAT      O33334   3.991   5.774   7.595
11031WAT     H133335   3.970   5.780   7.498
11031WAT     H233336   3.913   5.737   7.645
11032WAT      O33337   4.304   7.637   7.124
11032WAT     H133338   4.366   7.611   7.198
11032WAT     H233339   4.354   7.691   7.056
11033WAT      O33340   3.148   7.828   1.321
11033WAT     H133341   3.211   7.756   1.292
11033WAT     H233342   3.196   7.916   1.323
11034WAT      O33343   2.569   4.043   7.729
11034WAT     H133344   2.571   3.964   7.791
11034WAT     H233345   2.651   4.099   7.744
11035WAT      O33346   0.599   3.030   8.224
11035WAT     H133347   0.686   2.985   8.247
11035WAT     H233348   0.584   3.106   8.288
11036WAT      O33349   0.992   9.415   4.930
11036WAT     H133350   1.017   9.371   4.843
11036WAT     H233351   1.066   9.474   4.960
11037WAT      O33352   2.380   1.840   6.006
11037WAT     H133353   2.459   1.877   5.959
11037WAT     H233354   2.340   1.911   6.065
11038WAT      O33355   9.239   6.583   1.532
11038WAT     H133356   9.308   6.570   1.603
11038WAT     H233357   9.212   6.680   1.530
11039WAT      O33358   4.147   5.778   7.213
11039WAT     H133359   4.147   5.754   7.116
11039WAT     H233360   4.240   5.771   7.249
11040WAT      O33361   4.266   4.657   7.683
11040WAT     H133362   4.281   4.654   7.782
11040WAT     H233363   4.300   4.573   7.641
11041WAT      O33364   4.116   2.735   0.231
11041WAT     H133365   4.177   2.674   0.180
11041WAT     H233366   4.091   2.813   0.174
11042WAT      O33367   9.273   2.723   7.043
11042WAT     H133368   9.327   2.643   7.069
11042WAT     H233369   9.298   2.751   6.950
11043WAT      O33370   2.700   5.457   4.859
11043WAT     H133371   2.633   5.386   4.837
11043WAT     H233372   2.679   5.494   4.950
11044WAT      O33373   9.113   4.428   5.371
11044WAT     H133374   9.029   4.438   5.318
11044WAT     H233375   9.174   4.505   5.353
11045WAT      O33376   3.201   0.091   8.459
11045WAT     H133377   3.102   0.077   8.452
11045WAT     H233378   3.246   0.045   8.383
11046WAT      O33379   2.927   7.841   3.408
11046WAT     H133380   2.987   7.765   3.380
11046WAT     H233381   2.978   7.927   3.405
11047WAT      O33382   7.266   1.359   1.927
11047WAT     H133383   7.343   1.301   1.955
11047WAT     H233384   7.228   1.324   1.842
11048WAT      O33385   1.444   6.784   5.329
11048WAT     H133386   1.488   6.719   5.267
11048WAT     H233387   1.384   6.735   5.392
11049WAT      O33388   2.687   0.623   7.874
11049WAT     H133389   2.653   0.681   7.800
11049WAT     H233390   2.733   0.543   7.835
11050WAT      O33391   3.078   6.099   4.648
11050WAT     H133392   3.054   6.103   4.745
11050WAT     H233393   3.028   6.171   4.599
11051WAT      O33394   1.526   2.327   3.237
11051WAT     H133395   1.474   2.409   3.211
11051WAT     H233396   1.601   2.353   3.298
11052WAT      O33397   4.033   0.494   6.212
11052WAT     H133398   4.023   0.556   6.290
11052WAT     H233399   3.996   0.405   6.235
11053WAT      O33400   1.213   0.915   2.990
11053WAT     H133401   1.309   0.942   2.989
11053WAT     H233402   1.156   0.992   2.959
11054WAT      O33403   1.996   2.058   5.701
11054WAT     H133404   1.963   2.026   5.789
11054WAT     H233405   2.081   2.009   5.678
11055WAT      O33406   5.589   3.250   3.359
11055WAT     H133407   5.608   3.345   3.332
11055WAT     H233408   5.491   3.238   3.374
11056WAT      O33409   3.192   0.352   6.585
11056WAT     H133410   3.216   0.382   6.492
11056WAT     H233411   3.095   0.369   6.601
11057WAT      O33412   8.298   4.818   3.343
11057WAT     H133413   8.307   4.721   3.318
11057WAT     H233414   8.326   4.831   3.438
11058WAT      O33415   4.802   7.063   1.476
11058WAT     H133416   4.862   6.986   1.498
11058WAT     H233417   4.849   7.123   1.410
11059WAT      O33418   2.292   9.301   8.015
11059WAT     H133419   2.196   9.327   8.010
11059WAT     H233420   2.304   9.231   8.086
11060WAT      O33421   0.597   1.840   0.144
11060WAT     H133422   0.610   1.804   0.052
11060WAT     H233423   0.678   1.891   0.172
11061WAT      O33424   8.978   7.212   8.014
11061WAT     H133425   9.061   7.205   7.958
11061WAT     H233426   8.967   7.129   8.068
11062WAT      O33427   7.399   7.582   6.012
11062WAT     H133428   7.445   7.670   6.012
11062WAT     H233429   7.459   7.512   5.974
11063WAT      O33430   7.730   4.485   1.538
11063WAT     H133431   7.637   4.510   1.509
11063WAT     H233432   7.724   4.419   1.612
11064WAT      O33433   9.750   1.408   3.791
11064WAT     H133434   9.840   1.415   3.832
11064WAT     H233435   9.740   1.319   3.746
11065WAT      O33436   0.764   6.342   1.870
11065WAT     H133437   0.708   6.395   1.805
11065WAT     H233438   0.784   6.252   1.831
11066WAT      O33439   6.367   3.228   9.545
11066WAT     H133440   6.440   3.161   9.556
11066WAT     H233441   6.400   3.319   9.570
11067WAT      O33442   8.497   0.092   1.677
11067WAT     H133443   8.454   0.177   1.646
11067WAT     H233444   8.532   0.105   1.770
11068WAT      O33445   0.976   7.938   6.359
11068WAT     H133446   0.980   7.843   6.389
11068WAT     H233447   0.902   7.949   6.292
11069WAT      O33448   9.129   2.496   5.177
11069WAT     H133449   9.116   2.594   5.193
11069WAT     H233450   9.225   2.479   5.155
11070WAT      O33451   2.355   1.898   7.189
11070WAT     H133452   2.427   1.901   7.119
11070WAT     H233453   2.397   1.901   7.279
11071WAT      O33454   8.577   0.588   1.613
11071WAT     H133455   8.587   0.627   1.521
11071WAT     H233456   8.668   0.574   1.652
11072WAT      O33457   3.375   8.742   2.870
11072WAT     H133458   3.395   8.752   2.773
11072WAT     H233459   3.449   8.782   2.924
11073WAT      O33460   0.348   7.415   3.445
11073WAT     H133461   0.356   7.501   3.496
11073WAT     H233462   0.257   7.409   3.403
11074WAT      O33463   1.233   0.265   2.243
11074WAT     H133464   1.297   0.236   2.314
11074WAT     H233465   1.185   0.348   2.274
11075WAT      O33466   7.747   5.957   1.125
11075WAT     H133467   7.831   5.908   1.149
11075WAT     H233468   7.767   6.027   1.057
11076WAT      O33469   8.503   6.130   9.358
11076WAT     H133470   8.544   6.221   9.349
11076WAT     H233471   8.406   6.139   9.379
11077WAT      O33472   6.387   6.807   9.018
11077WAT     H133473   6.474   6.759   9.026
11077WAT     H233474   6.366   6.853   9.105
11078WAT      O33475   8.931   1.501   4.157
11078WAT     H133476   9.014   1.450   4.179
11078WAT     H233477   8.862   1.484   4.226
11079WAT      O33478   5.162   8.064   5.428
11079WAT     H133479   5.174   8.084   5.331
11079WAT     H233480   5.075   8.017   5.442
11080WAT      O33481   6.473   1.648   1.347
11080WAT     H133482   6.460   1.746   1.354
11080WAT     H233483   6.543   1.618   1.412
11081WAT      O33484   9.060   6.434   5.828
11081WAT     H133485   9.070   6.367   5.901
11081WAT     H233486   9.140   6.428   5.767
11082WAT      O33487   6.459   8.732   6.294
11082WAT     H133488   6.523   8.705   6.365
11082WAT     H233489   6.367   8.738   6.332
11083WAT      O33490   3.635   1.250   6.827
11083WAT     H133491   3.719   1.241   6.879
11083WAT     H233492   3.647   1.209   6.736
11084WAT      O33493   7.769   3.346   5.628
11084WAT     H133494   7.794   3.439   5.601
11084WAT     H233495   7.678   3.346   5.669
11085WAT      O33496   1.691   6.193   7.491
11085WAT     H133497   1.712   6.237   7.404
11085WAT     H233498   1.651   6.103   7.474
11086WAT      O33499   9.755   0.157   2.547
11086WAT     H133500   9.809   0.241   2.539
11086WAT     H233501   9.686   0.156   2.475
11087WAT      O33502   8.418   8.815   9.690
11087WAT     H133503   8.388   8.880   9.760
11087WAT     H233504   8.497   8.764   9.723
11088WAT      O33505   2.181   3.167   3.119
11088WAT     H133506   2.231   3.097   3.067
11088WAT     H233507   2.093   3.130   3.148
11089WAT      O33508   7.230   5.787   1.135
11089WAT     H133509   7.229   5.815   1.231
11089WAT     H233510   7.324   5.779   1.103
11090WAT      O33511   3.797   5.859   9.752
11090WAT     H133512   3.867   5.930   9.759
11090WAT     H233513   3.831   5.775   9.794
11091WAT      O33514   1.760   7.497   0.180
11091WAT     H133515   1.707   7.450   0.250
11091WAT     H233516   1.761   7.443   0.096
11092WAT      O33517   8.660   8.580   8.447
11092WAT     H133518   8.671   8.677   8.472
11092WAT     H233519   8.600   8.535   8.513
11093WAT      O33520   7.708   9.416   5.467
11093WAT     H133521   7.647   9.457   5.399
11093WAT     H233522   7.696   9.317   5.466
11094WAT      O33523   6.655   7.935   1.281
11094WAT     H133524   6.658   7.984   1.194
11094WAT     H233525   6.740   7.951   1.331
11095WAT      O33526   6.914   6.602   2.684
11095WAT     H133527   6.892   6.700   2.681
11095WAT     H233528   7.002   6.589   2.729
11096WAT      O33529   8.319   1.079   0.960
11096WAT     H133530   8.395   1.019   0.987
11096WAT     H233531   8.285   1.052   0.870
11097WAT      O33532   1.797   4.285   0.034
11097WAT     H133533   1.732   4.269   0.108
11097WAT     H233534   1.831   4.197   0.000
11098WAT      O33535   6.406   2.396   9.030
11098WAT     H133536   6.310   2.416   9.047
11098WAT     H233537   6.415   2.341   8.947
11099WAT      O33538   8.603   0.156   8.208
11099WAT     H133539   8.653   0.082   8.253
11099WAT     H233540   8.511   0.164   8.248
11100WAT      O33541   8.383   5.450   4.789
11100WAT     H133542   8.375   5.457   4.888
11100WAT     H233543   8.341   5.365   4.758
11101WAT      O33544   3.052   7.013   3.055
11101WAT     H133545   3.045   7.082   2.983
11101WAT     H233546   2.961   6.990   3.088
11102WAT      O33547   3.702   0.510   6.366
11102WAT     H133548   3.671   0.602   6.343
11102WAT     H233549   3.623   0.455   6.396
11103WAT      O33550   4.980   1.250   5.671
11103WAT     H133551   4.919   1.294   5.605
11103WAT     H233552   4.929   1.226   5.753
11104WAT      O33553   3.674   3.785   0.128
11104WAT     H133554   3.728   3.869   0.134
11104WAT     H233555   3.668   3.756   0.032
11105WAT      O33556   7.509   6.637   5.127
11105WAT     H133557   7.452   6.670   5.203
11105WAT     H233558   7.471   6.552   5.091
11106WAT      O33559   1.564   5.073   6.191
11106WAT     H133560   1.467   5.098   6.191
11106WAT     H233561   1.601   5.085   6.283
11107WAT      O33562   6.795   4.940   5.701
11107WAT     H133563   6.852   4.904   5.775
11107WAT     H233564   6.817   4.893   5.616
11108WAT      O33565   8.149   2.339   5.718
11108WAT     H133566   8.212   2.265   5.739
11108WAT     H233567   8.193   2.427   5.738
11109WAT      O33568   1.681   4.833   1.354
11109WAT     H133569   1.662   4.930   1.343
11109WAT     H233570   1.774   4.820   1.388
11110WAT      O33571   1.498   1.747   4.068
11110WAT     H133572   1.431   1.780   4.134
11110WAT     H233573   1.579   1.806   4.071
11111WAT      O33574   6.323   1.317   9.760
11111WAT     H133575   6.271   1.392   9.717
11111WAT     H233576   6.298   1.231   9.717
11112WAT      O33577   2.689   1.579   6.511
11112WAT     H133578   2.742   1.587   6.596
11112WAT     H233579   2.615   1.514   6.525
11113WAT      O33580   3.180   0.539   8.267
11113WAT     H133581   3.226   0.610   8.320
11113WAT     H233582   3.243   0.463   8.252
11114WAT      O33583   2.852   4.298   0.588
11114WAT     H133584   2.763   4.270   0.624
11114WAT     H233585   2.840   4.375   0.526
11115WAT      O33586   1.084   5.057   1.101
11115WAT     H133587   1.032   5.058   1.186
11115WAT     H233588   1.136   5.143   1.093
11116WAT      O33589   0.595   2.561   8.373
11116WAT     H133590   0.499   2.575   8.397
11116WAT     H233591   0.601   2.506   8.290
11117WAT      O33592   1.493   4.628   6.760
11117WAT     H133593   1.566   4.589   6.816
11117WAT     H233594   1.509   4.606   6.664
11118WAT      O33595   6.600   3.165   6.725
11118WAT     H133596   6.670   3.101   6.756
11118WAT     H233597   6.629   3.259   6.745
11119WAT      O33598   2.137   5.882   2.135
11119WAT     H133599   2.146   5.914   2.041
11119WAT     H233600   2.225   5.849   2.168
11120WAT      O33601   1.127   4.909   5.845
11120WAT     H133602   1.119   4.998   5.801
11120WAT     H233603   1.046   4.854   5.825
11121WAT      O33604   0.387   8.007   7.604
11121WAT     H133605   0.397   8.029   7.507
11121WAT     H233606   0.292   7.984   7.624
11122WAT      O33607   0.510   9.360   2.427
11122WAT     H133608   0.473   9.267   2.428
11122WAT     H233609   0.451   9.420   2.481
11123WAT      O33610   1.779   3.864   0.519
11123WAT     H133611   1.823   3.811   0.591
11123WAT     H233612   1.709   3.807   0.474
11124WAT      O33613   9.025   6.651   6.366
11124WAT     H133614   8.938   6.665   6.413
11124WAT     H233615   9.019   6.570   6.308
11125WAT      O33616   5.611   6.194   2.705
11125WAT     H133617   5.684   6.194   2.773
11125WAT     H233618   5.543   6.264   2.728
11126WAT      O33619   8.093   7.116   3.045
11126WAT     H133620   8.011   7.151   3.091
11126WAT     H233621   8.169   7.179   3.059
11127WAT      O33622   9.274   0.796   3.587
11127WAT     H133623   9.194   0.756   3.541
11127WAT     H233624   9.343   0.820   3.519
11128WAT      O33625   7.507   2.737   6.412
11128WAT     H133626   7.537   2.709   6.503
11128WAT     H233627   7.419   2.784   6.419
11129WAT      O33628   0.391   5.102   4.647
11129WAT     H133629   0.292   5.117   4.640
11129WAT     H233630   0.433   5.108   4.557
11130WAT      O33631   6.823   1.701   6.261
11130WAT     H133632   6.791   1.618   6.213
11130WAT     H233633   6.753   1.772   6.254
11131WAT      O33634   4.547   2.074   0.610
11131WAT     H133635   4.474   2.024   0.562
11131WAT     H233636   4.622   2.091   0.547
11132WAT      O33637   9.490   4.809   8.618
11132WAT     H133638   9.429   4.881   8.585
11132WAT     H233639   9.471   4.724   8.569
11133WAT      O33640   6.237   4.867   0.464
11133WAT     H133641   6.306   4.935   0.488
11133WAT     H233642   6.226   4.803   0.541
11134WAT      O33643   9.685   3.273   4.999
11134WAT     H133644   9.747   3.257   4.922
11134WAT     H233645   9.714   3.216   5.077
11135WAT      O33646   6.725   0.603   4.375
11135WAT     H133647   6.661   0.666   4.330
11135WAT     H233648   6.673   0.535   4.427
11136WAT      O33649   9.827   8.557   1.551
11136WAT     H133650   9.750   8.611   1.586
11136WAT     H233651   9.913   8.603   1.572
11137WAT      O33652   0.994   9.695   3.698
11137WAT     H133653   1.064   9.731   3.636
11137WAT     H233654   1.038   9.659   3.781
11138WAT      O33655   2.736   0.189   2.801
11138WAT     H133656   2.668   0.241   2.749
11138WAT     H233657   2.820   0.243   2.810
11139WAT      O33658   7.818   8.752   5.194
11139WAT     H133659   7.767   8.822   5.144
11139WAT     H233660   7.783   8.745   5.287
11140WAT      O33661   9.092   2.835   8.995
11140WAT     H133662   9.086   2.774   9.074
11140WAT     H233663   9.010   2.825   8.939
11141WAT      O33664   5.601   8.194   3.147
11141WAT     H133665   5.566   8.264   3.083
11141WAT     H233666   5.608   8.106   3.099
11142WAT      O33667   6.092   9.301   2.338
11142WAT     H133668   6.007   9.354   2.344
11142WAT     H233669   6.146   9.333   2.260
11143WAT      O33670   9.243   7.596   5.897
11143WAT     H133671   9.175   7.524   5.884
11143WAT     H233672   9.324   7.557   5.942
11144WAT      O33673   0.308   2.014   1.285
11144WAT     H133674   0.326   1.921   1.317
11144WAT     H233675   0.218   2.017   1.241
11145WAT      O33676   9.105   3.951   5.235
11145WAT     H133677   9.108   3.881   5.163
11145WAT     H233678   9.140   4.037   5.199
11146WAT      O33679   3.587   5.810   4.286
11146WAT     H133680   3.658   5.802   4.217
11146WAT     H233681   3.627   5.842   4.372
11147WAT      O33682   5.595   1.066   1.539
11147WAT     H133683   5.635   0.989   1.590
11147WAT     H233684   5.604   1.048   1.441
11148WAT      O33685   7.032   7.896   9.015
11148WAT     H133686   7.001   7.945   9.096
11148WAT     H233687   6.959   7.895   8.946
11149WAT      O33688   4.226   8.384   3.304
11149WAT     H133689   4.201   8.426   3.216
11149WAT     H233690   4.310   8.332   3.293
11150WAT      O33691   7.316   5.343   0.019
11150WAT     H133692   7.393   5.296   0.064
11150WAT     H233693   7.316   5.321  -0.078
11151WAT      O33694   1.516   9.672   4.408
11151WAT     H133695   1.547   9.757   4.365
11151WAT     H233696   1.422   9.653   4.378
11152WAT      O33697   1.557   5.868   3.034
11152WAT     H133698   1.647   5.904   3.061
11152WAT     H233699   1.528   5.913   2.949
11153WAT      O33700   0.659   6.804   8.079
11153WAT     H133701   0.637   6.894   8.041
11153WAT     H233702   0.656   6.808   8.178
11154WAT      O33703   1.343   7.812   9.276
11154WAT     H133704   1.425   7.778   9.321
11154WAT     H233705   1.357   7.816   9.177
11155WAT      O33706   7.231   3.591   6.318
11155WAT     H133707   7.240   3.515   6.381
11155WAT     H233708   7.134   3.616   6.309
11156WAT      O33709   1.154   3.048   0.785
11156WAT     H133710   1.065   3.093   0.792
11156WAT     H233711   1.157   2.995   0.701
11157WAT      O33712   2.906   3.808   1.305
11157WAT     H133713   2.895   3.861   1.221
11157WAT     H233714   2.945   3.866   1.376
11158WAT      O33715   4.087   2.205   6.769
11158WAT     H133716   4.138   2.198   6.683
11158WAT     H233717   4.035   2.291   6.770
11159WAT      O33718   9.207   3.041   5.086
11159WAT     H133719   9.285   3.103   5.086
11159WAT     H233720   9.155   3.053   5.170
11160WAT      O33721   6.158   2.080   3.095
11160WAT     H133722   6.159   1.994   3.045
11160WAT     H233723   6.082   2.137   3.062
11161WAT      O33724   0.130   7.581   3.695
11161WAT     H133725   0.103   7.540   3.782
11161WAT     H233726   0.138   7.680   3.706
11162WAT      O33727   2.979   6.851   7.029
11162WAT     H133728   2.922   6.923   6.990
11162WAT     H233729   3.063   6.841   6.975
11163WAT      O33730   9.691   3.919   4.319
11163WAT     H133731   9.760   3.943   4.386
11163WAT     H233732   9.698   3.980   4.240
11164WAT      O33733   3.614   3.762   9.762
11164WAT     H133734   3.516   3.767   9.781
11164WAT     H233735   3.629   3.715   9.675
11165WAT      O33736   4.574   7.702   3.425
11165WAT     H133737   4.612   7.740   3.340
11165WAT     H233738   4.475   7.719   3.427
11166WAT      O33739   2.335   1.042   4.304
11166WAT     H133740   2.299   1.117   4.359
11166WAT     H233741   2.432   1.028   4.326
11167WAT      O33742   7.401   9.333   5.151
11167WAT     H133743   7.335   9.275   5.199
11167WAT     H233744   7.464   9.276   5.099
11168WAT      O33745   4.704   9.482   0.446
11168WAT     H133746   4.649   9.565   0.459
11168WAT     H233747   4.800   9.503   0.462
11169WAT      O33748   4.224   6.558   7.520
11169WAT     H133749   4.256   6.557   7.425
11169WAT     H233750   4.142   6.614   7.526
11170WAT      O33751   2.217   2.370   5.000
11170WAT     H133752   2.159   2.315   5.059
11170WAT     H233753   2.310   2.332   5.000
11171WAT      O33754   3.491   8.345   8.792
11171WAT     H133755   3.577   8.322   8.747
11171WAT     H233756   3.509   8.377   8.885
11172WAT      O33757   5.076   2.641   7.326
11172WAT     H133758   4.983   2.621   7.358
11172WAT     H233759   5.142   2.619   7.398
11173WAT      O33760   4.978   5.229   6.419
11173WAT     H133761   4.944   5.265   6.506
11173WAT     H233762   4.907   5.173   6.376
11174WAT      O33763   8.067   1.104   4.591
11174WAT     H133764   8.135   1.168   4.554
11174WAT     H233765   8.054   1.028   4.528
11175WAT      O33766   5.573   6.809   7.388
11175WAT     H133767   5.554   6.903   7.415
11175WAT     H233768   5.542   6.746   7.460
11176WAT      O33769   9.036   4.601   2.975
11176WAT     H133770   9.112   4.640   2.923
11176WAT     H233771   9.007   4.667   3.045
11177WAT      O33772   6.574   3.591   9.824
11177WAT     H133773   6.658   3.537   9.820
11177WAT     H233774   6.508   3.545   9.883
11178WAT      O33775   1.444   9.122   2.898
11178WAT     H133776   1.378   9.125   2.823
11178WAT     H233777   1.419   9.191   2.966
11179WAT      O33778   0.491   7.091   2.605
11179WAT     H133779   0.484   7.060   2.700
11179WAT     H233780   0.422   7.043   2.550
11180WAT      O33781   7.980   2.281   7.024
11180WAT     H133782   7.950   2.185   7.021
11180WAT     H233783   8.080   2.284   7.022
11181WAT      O33784   6.847   8.937   3.907
11181WAT     H133785   6.941   8.946   3.874
11181WAT     H233786   6.783   8.947   3.830
11182WAT      O33787   9.143   2.685   3.494
11182WAT     H133788   9.079   2.734   3.554
11182WAT     H233789   9.163   2.596   3.534
11183WAT      O33790   1.256   2.625   4.464
11183WAT     H133791   1.159   2.645   4.476
11183WAT     H233792   1.270   2.578   4.377
11184WAT      O33793   2.538   1.895   0.232
11184WAT     H133794   2.628   1.866   0.265
11184WAT     H233795   2.476   1.817   0.231
11185WAT      O33796   2.358   8.480   4.160
11185WAT     H133797   2.399   8.435   4.239
11185WAT     H233798   2.325   8.411   4.096
11186WAT      O33799   8.260   3.463   7.166
11186WAT     H133800   8.185   3.427   7.222
11186WAT     H233801   8.227   3.542   7.115
11187WAT      O33802   1.774   2.872   2.551
11187WAT     H133803   1.678   2.891   2.571
11187WAT     H233804   1.796   2.779   2.581
11188WAT      O33805   1.731   4.298   4.618
11188WAT     H133806   1.773   4.212   4.647
11188WAT     H233807   1.694   4.345   4.698
11189WAT      O33808   4.842   5.498   3.201
11189WAT     H133809   4.794   5.513   3.287
11189WAT     H233810   4.805   5.560   3.132
11190WAT      O33811   9.466   7.301   7.531
11190WAT     H133812   9.404   7.234   7.571
11190WAT     H233813   9.497   7.364   7.602
11191WAT      O33814   9.751   4.724   4.253
11191WAT     H133815   9.781   4.696   4.344
11191WAT     H233816   9.831   4.731   4.193
11192WAT      O33817   3.204   6.764   6.159
11192WAT     H133818   3.254   6.678   6.148
11192WAT     H233819   3.164   6.791   6.071
11193WAT      O33820   0.568   0.789   9.152
11193WAT     H133821   0.579   0.853   9.077
11193WAT     H233822   0.654   0.778   9.201
11194WAT      O33823   2.202   0.316   7.349
11194WAT     H133824   2.292   0.350   7.324
11194WAT     H233825   2.199   0.217   7.337
11195WAT      O33826   0.842   5.605   7.929
11195WAT     H133827   0.898   5.653   7.861
11195WAT     H233828   0.901   5.576   8.004
11196WAT      O33829   7.093   8.706   6.065
11196WAT     H133830   7.164   8.637   6.072
11196WAT     H233831   7.121   8.788   6.115
11197WAT      O33832   6.679   3.304   2.726
11197WAT     H133833   6.628   3.327   2.642
11197WAT     H233834   6.767   3.265   2.701
11198WAT      O33835   7.413   2.405   4.379
11198WAT     H133836   7.317   2.423   4.358
11198WAT     H233837   7.471   2.468   4.328
11199WAT      O33838   9.169   7.587   1.519
11199WAT     H133839   9.228   7.666   1.529
11199WAT     H233840   9.076   7.610   1.549
11200WAT      O33841   3.510   4.025   5.111
11200WAT     H133842   3.548   4.053   5.023
11200WAT     H233843   3.437   4.088   5.138
11201WAT      O33844   4.946   0.901   0.932
11201WAT     H133845   4.960   0.969   1.004
11201WAT     H233846   5.004   0.924   0.853
11202WAT      O33847   4.162   3.197   3.398
11202WAT     H133848   4.233   3.260   3.367
11202WAT     H233849   4.142   3.214   3.495
11203WAT      O33850   0.202   9.502   5.227
11203WAT     H133851   0.130   9.459   5.282
11203WAT     H233852   0.270   9.543   5.288
11204WAT      O33853   3.297   5.060   2.925
11204WAT     H133854   3.218   5.087   2.981
11204WAT     H233855   3.363   5.135   2.923
11205WAT      O33856   2.557   2.118   2.157
11205WAT     H133857   2.574   2.020   2.147
11205WAT     H233858   2.553   2.142   2.254
11206WAT      O33859   9.272   8.428   1.639
11206WAT     H133860   9.288   8.525   1.620
11206WAT     H233861   9.342   8.394   1.702
11207WAT      O33862   7.867   9.346   6.258
11207WAT     H133863   7.828   9.302   6.339
11207WAT     H233864   7.908   9.434   6.284
11208WAT      O33865   0.759   3.057   0.414
11208WAT     H133866   0.756   3.021   0.507
11208WAT     H233867   0.673   3.037   0.368
11209WAT      O33868   3.061   7.777   3.170
11209WAT     H133869   2.978   7.827   3.144
11209WAT     H233870   3.061   7.688   3.126
11210WAT      O33871   7.827   0.881   2.695
11210WAT     H133872   7.856   0.960   2.749
11210WAT     H233873   7.903   0.848   2.640
11211WAT      O33874   1.767   5.682   7.229
11211WAT     H133875   1.752   5.676   7.328
11211WAT     H233876   1.718   5.607   7.184
11212WAT      O33877   9.029   5.709   4.494
11212WAT     H133878   9.011   5.753   4.406
11212WAT     H233879   9.030   5.610   4.483
11213WAT      O33880   3.242   4.059   8.161
11213WAT     H133881   3.178   4.120   8.114
11213WAT     H233882   3.326   4.109   8.183
11214WAT      O33883   3.395   2.235   2.464
11214WAT     H133884   3.366   2.176   2.539
11214WAT     H233885   3.333   2.313   2.458
11215WAT      O33886   3.010   5.945   8.339
11215WAT     H133887   3.018   6.044   8.333
11215WAT     H233888   3.100   5.903   8.325
11216WAT      O33889   2.554   8.589   1.522
11216WAT     H133890   2.504   8.675   1.515
11216WAT     H233891   2.651   8.607   1.540
11217WAT      O33892   7.212   6.331   8.838
11217WAT     H133893   7.177   6.357   8.928
11217WAT     H233894   7.180   6.239   8.815
11218WAT      O33895   2.255   2.929   1.121
11218WAT     H133896   2.345   2.948   1.161
11218WAT     H233897   2.266   2.874   1.039
11219WAT      O33898   7.291   5.252   2.180
11219WAT     H133899   7.213   5.301   2.140
11219WAT     H233900   7.334   5.196   2.110
11220WAT      O33901   1.419   0.923   5.593
11220WAT     H133902   1.378   0.972   5.516
11220WAT     H233903   1.427   0.985   5.672
11221WAT      O33904   0.442   8.945   4.465
11221WAT     H133905   0.509   8.893   4.518
11221WAT     H233906   0.393   8.883   4.403
11222WAT      O33907   8.398   4.716   4.264
11222WAT     H133908   8.443   4.626   4.261
11222WAT     H233909   8.391   4.747   4.359
11223WAT      O33910   9.535   8.029   7.173
11223WAT     H133911   9.436   8.034   7.160
11223WAT     H233912   9.574   7.964   7.108
11224WAT      O33913   7.648   6.773   4.364
11224WAT     H133914   7.553   6.799   4.374
11224WAT     H233915   7.690   6.762   4.454
11225WAT      O33916   5.652   0.482   8.427
11225WAT     H133917   5.641   0.556   8.493
11225WAT     H233918   5.744   0.486   8.387
11226WAT      O33919   2.526   4.109   4.846
11226WAT     H133920   2.458   4.048   4.805
11226WAT     H233921   2.481   4.193   4.877
11227WAT      O33922   2.105   1.810   7.254
11227WAT     H133923   2.128   1.719   7.217
11227WAT     H233924   2.188   1.865   7.260
11228WAT      O33925   7.881   3.075   4.535
11228WAT     H133926   7.841   3.002   4.480
11228WAT     H233927   7.831   3.160   4.520
11229WAT      O33928   8.323   6.859   8.411
11229WAT     H133929   8.263   6.921   8.361
11229WAT     H233930   8.272   6.816   8.486
11230WAT      O33931   4.215   9.513   0.010
11230WAT     H133932   4.192   9.440   0.074
11230WAT     H233933   4.175   9.599   0.042
11231WAT      O33934   1.561   1.486   2.447
11231WAT     H133935   1.643   1.437   2.475
11231WAT     H233936   1.482   1.426   2.456
11232WAT      O33937   6.402   9.124   5.331
11232WAT     H133938   6.397   9.046   5.392
11232WAT     H233939   6.309   9.157   5.311
11233WAT      O33940   7.620   5.750   6.450
11233WAT     H133941   7.608   5.844   6.418
11233WAT     H233942   7.607   5.747   6.550
11234WAT      O33943   2.869   5.185   5.197
11234WAT     H133944   2.942   5.118   5.202
11234WAT     H233945   2.891   5.254   5.128
11235WAT      O33946   9.129   5.704   7.184
11235WAT     H133947   9.145   5.733   7.089
11235WAT     H233948   9.137   5.783   7.245
11236WAT      O33949   4.480   4.916   1.239
11236WAT     H133950   4.431   4.995   1.277
11236WAT     H233951   4.490   4.928   1.140
11237WAT      O33952   3.325   6.187   1.895
11237WAT     H133953   3.397   6.225   1.837
11237WAT     H233954   3.239   6.235   1.877
11238WAT      O33955   8.307   0.887   5.605
11238WAT     H133956   8.291   0.860   5.700
11238WAT     H233957   8.302   0.987   5.598
11239WAT      O33958   9.056   0.303   3.750
11239WAT     H133959   8.970   0.314   3.799
11239WAT     H233960   9.110   0.387   3.757
11240WAT      O33961   7.260   1.005   6.988
11240WAT     H133962   7.219   1.076   7.047
11240WAT     H233963   7.286   0.927   7.044
11241WAT      O33964   5.442   1.510   3.729
11241WAT     H133965   5.468   1.502   3.825
11241WAT     H233966   5.374   1.582   3.718
11242WAT      O33967   7.212   9.406   7.078
11242WAT     H133968   7.253   9.316   7.063
11242WAT     H233969   7.257   9.474   7.020
11243WAT      O33970   1.889   4.952   5.132
11243WAT     H133971   1.977   4.977   5.091
11243WAT     H233972   1.815   4.992   5.078
11244WAT      O33973   2.487   0.681   8.080
11244WAT     H133974   2.474   0.587   8.112
11244WAT     H233975   2.550   0.681   8.003
11245WAT      O33976   4.019   1.061   2.943
11245WAT     H133977   3.942   1.064   3.007
11245WAT     H233978   3.985   1.044   2.850
11246WAT      O33979   1.140   5.230   5.341
11246WAT     H133980   1.077   5.190   5.274
11246WAT     H233981   1.184   5.157   5.393
11247WAT      O33982   7.023   6.833   7.908
11247WAT     H133983   6.996   6.850   8.003
11247WAT     H233984   7.109   6.783   7.906
11248WAT      O33985   6.401   0.428   8.415
11248WAT     H133986   6.403   0.525   8.437
11248WAT     H233987   6.309   0.392   8.429
11249WAT      O33988   2.808   2.236   0.828
11249WAT     H133989   2.790   2.175   0.751
11249WAT     H233990   2.742   2.219   0.900
11250WAT      O33991   2.295   9.579   6.933
11250WAT     H133992   2.349   9.642   6.989
11250WAT     H233993   2.355   9.510   6.893
11251WAT      O33994   5.966   1.697   7.961
11251WAT     H133995   5.989   1.657   8.050
11251WAT     H233996   5.926   1.627   7.902
11252WAT      O33997   2.700   1.161   5.985
11252WAT     H133998   2.698   1.062   6.000
11252WAT     H233999   2.691   1.180   5.887
11253WAT      O34000   3.275   8.214   4.206
11253WAT     H134001   3.225   8.191   4.290
11253WAT     H234002   3.214   8.263   4.144
11254WAT      O34003   8.868   4.418   5.202
11254WAT     H134004   8.859   4.478   5.123
11254WAT     H234005   8.837   4.326   5.179
11255WAT      O34006   9.474   7.442   5.987
11255WAT     H134007   9.485   7.353   6.032
11255WAT     H234008   9.558   7.465   5.938
11256WAT      O34009   1.348   3.377   3.283
11256WAT     H134010   1.280   3.352   3.353
11256WAT     H234011   1.308   3.445   3.221
11257WAT      O34012   3.904   6.777   9.706
11257WAT     H134013   3.961   6.779   9.788
11257WAT     H234014   3.817   6.732   9.727
11258WAT      O34015   6.715   3.451   7.832
11258WAT     H134016   6.768   3.491   7.757
11258WAT     H234017   6.625   3.495   7.836
11259WAT      O34018   5.264   4.449   4.055
11259WAT     H134019   5.192   4.470   4.120
11259WAT     H234020   5.308   4.533   4.025
11260WAT      O34021   3.411   7.935   6.409
11260WAT     H134022   3.347   7.868   6.372
11260WAT     H234023   3.476   7.889   6.470
11261WAT      O34024   3.750   4.004   2.197
11261WAT     H134025   3.694   4.065   2.253
11261WAT     H234026   3.750   4.037   2.102
11262WAT      O34027   0.917   8.186   7.322
11262WAT     H134028   0.907   8.250   7.245
11262WAT     H234029   1.008   8.196   7.360
11263WAT      O34030   7.299   2.455   0.003
11263WAT     H134031   7.280   2.406   0.088
11263WAT     H234032   7.279   2.552   0.015
11264WAT      O34033   4.489   2.623   4.825
11264WAT     H134034   4.476   2.553   4.754
11264WAT     H234035   4.454   2.588   4.912
11265WAT      O34036   3.388   9.815   8.820
11265WAT     H134037   3.302   9.842   8.862
11265WAT     H234038   3.413   9.882   8.749
11266WAT      O34039   6.071   4.667   1.613
11266WAT     H134040   6.060   4.763   1.637
11266WAT     H234041   5.997   4.613   1.652
11267WAT      O34042   1.689   4.392   2.026
11267WAT     H134043   1.684   4.463   2.096
11267WAT     H234044   1.605   4.339   2.025
11268WAT      O34045   5.356   0.820   8.923
11268WAT     H134046   5.341   0.772   8.837
11268WAT     H234047   5.413   0.763   8.983
11269WAT      O34048   4.429   9.049   0.015
11269WAT     H134049   4.425   9.117   0.089
11269WAT     H234050   4.523   9.016   0.006
11270WAT      O34051   6.311   1.496   4.991
11270WAT     H134052   6.307   1.514   4.893
11270WAT     H234053   6.406   1.479   5.018
11271WAT      O34054   2.896   9.125   0.486
11271WAT     H134055   2.901   9.187   0.408
11271WAT     H234056   2.928   9.034   0.458
11272WAT      O34057   0.933   9.203   9.837
11272WAT     H134058   0.917   9.113   9.878
11272WAT     H234059   0.846   9.246   9.816
11273WAT      O34060   8.796   5.407   7.046
11273WAT     H134061   8.775   5.310   7.063
11273WAT     H234062   8.813   5.453   7.133
11274WAT      O34063   6.906   0.443   2.151
11274WAT     H134064   6.833   0.416   2.088
11274WAT     H234065   6.920   0.371   2.219
11275WAT      O34066   6.800   9.260   8.680
11275WAT     H134067   6.847   9.188   8.629
11275WAT     H234068   6.844   9.274   8.768
11276WAT      O34069   1.320   4.526   0.599
11276WAT     H134070   1.234   4.510   0.646
11276WAT     H234071   1.369   4.602   0.642
11277WAT      O34072   5.696   7.310   8.848
11277WAT     H134073   5.793   7.298   8.867
11277WAT     H234074   5.643   7.268   8.922
11278WAT      O34075   3.198   4.768   5.202
11278WAT     H134076   3.220   4.777   5.105
11278WAT     H234077   3.282   4.753   5.254
11279WAT      O34078   6.373   8.854   2.565
11279WAT     H134079   6.321   8.815   2.641
11279WAT     H234080   6.402   8.781   2.504
11280WAT      O34081   6.188   5.417   4.132
11280WAT     H134082   6.285   5.409   4.108
11280WAT     H234083   6.173   5.506   4.176
11281WAT      O34084   9.343   3.899   8.365
11281WAT     H134085   9.334   3.930   8.459
11281WAT     H234086   9.431   3.851   8.354
11282WAT      O34087   1.941   6.821   6.521
11282WAT     H134088   1.989   6.905   6.547
11282WAT     H234089   2.006   6.755   6.484
11283WAT      O34090   1.303   0.717   9.643
11283WAT     H134091   1.387   0.740   9.593
11283WAT     H234092   1.266   0.631   9.608
11284WAT      O34093   0.600   2.739   4.638
11284WAT     H134094   0.680   2.798   4.652
11284WAT     H234095   0.535   2.785   4.577
11285WAT      O34096   4.526   4.674   8.352
11285WAT     H134097   4.612   4.628   8.376
11285WAT     H234098   4.465   4.673   8.431
11286WAT      O34099   6.387   3.445   3.563
11286WAT     H134100   6.448   3.483   3.494
11286WAT     H234101   6.292   3.455   3.533
11287WAT      O34102   2.416   3.848   5.959
11287WAT     H134103   2.428   3.752   5.984
11287WAT     H234104   2.435   3.859   5.861
11288WAT      O34105   1.758   0.073   6.751
11288WAT     H134106   1.759   0.096   6.848
11288WAT     H234107   1.830   0.006   6.732
11289WAT      O34108   8.538   3.889   6.733
11289WAT     H134109   8.480   3.962   6.697
11289WAT     H234110   8.629   3.925   6.753
11290WAT      O34111   8.990   0.196   7.334
11290WAT     H134112   8.956   0.284   7.300
11290WAT     H234113   9.052   0.212   7.411
11291WAT      O34114   1.189   2.902   1.973
11291WAT     H134115   1.254   2.949   2.032
11291WAT     H234116   1.204   2.803   1.979
11292WAT      O34117   6.311   8.013   6.888
11292WAT     H134118   6.311   8.027   6.987
11292WAT     H234119   6.400   7.976   6.860
11293WAT      O34120   8.485   7.054   6.200
11293WAT     H134121   8.543   6.974   6.213
11293WAT     H234122   8.410   7.053   6.266
11294WAT      O34123   5.170   1.337   7.778
11294WAT     H134124   5.195   1.364   7.871
11294WAT     H234125   5.249   1.349   7.717
11295WAT      O34126   2.779   6.066   3.457
11295WAT     H134127   2.843   6.094   3.530
11295WAT     H234128   2.818   5.989   3.407
11296WAT      O34129   3.060   4.702   1.955
11296WAT     H134130   3.137   4.653   1.996
11296WAT     H234131   3.060   4.689   1.856
11297WAT      O34132   7.033   5.922   3.756
11297WAT     H134133   7.008   6.013   3.723
11297WAT     H234134   7.037   5.923   3.856
11298WAT      O34135   0.207   2.250   7.645
11298WAT     H134136   0.163   2.231   7.557
11298WAT     H234137   0.256   2.337   7.639
11299WAT      O34138   9.798   8.851   9.857
11299WAT     H134139   9.826   8.903   9.938
11299WAT     H234140   9.871   8.786   9.833
11300WAT      O34141   8.772   4.655   3.183
11300WAT     H134142   8.794   4.566   3.142
11300WAT     H234143   8.855   4.712   3.185
11301WAT      O34144   5.241   2.983   5.054
11301WAT     H134145   5.274   2.999   5.147
11301WAT     H234146   5.318   2.957   4.995
11302WAT      O34147   8.017   1.879   8.302
11302WAT     H134148   7.991   1.799   8.248
11302WAT     H234149   8.089   1.853   8.366
11303WAT      O34150   6.254   6.209   1.299
11303WAT     H134151   6.163   6.249   1.302
11303WAT     H234152   6.256   6.126   1.354
11304WAT      O34153   8.122   4.418   3.385
11304WAT     H134154   8.041   4.401   3.329
11304WAT     H234155   8.095   4.470   3.466
11305WAT      O34156   2.088   7.397   1.687
11305WAT     H134157   2.024   7.394   1.764
11305WAT     H234158   2.039   7.378   1.602
11306WAT      O34159   6.303   8.512   1.848
11306WAT     H134160   6.277   8.445   1.918
11306WAT     H234161   6.327   8.598   1.892
11307WAT      O34162   5.758   6.674   7.738
11307WAT     H134163   5.774   6.768   7.767
11307WAT     H234164   5.762   6.614   7.818
11308WAT      O34165   3.260   5.892   6.564
11308WAT     H134166   3.288   5.870   6.657
11308WAT     H234167   3.162   5.873   6.553
11309WAT      O34168   3.355   6.783   4.742
11309WAT     H134169   3.428   6.844   4.773
11309WAT     H234170   3.273   6.837   4.723
11310WAT      O34171   2.318   5.616   5.326
11310WAT     H134172   2.389   5.666   5.276
11310WAT     H234173   2.273   5.677   5.390
11311WAT      O34174   9.788   2.817   8.995
11311WAT     H134175   9.811   2.823   8.898
11311WAT     H234176   9.777   2.909   9.032
11312WAT      O34177   4.238   2.491   4.176
11312WAT     H134178   4.270   2.432   4.101
11312WAT     H234179   4.280   2.581   4.168
11313WAT      O34180   8.668   4.171   2.640
11313WAT     H134181   8.571   4.180   2.618
11313WAT     H234182   8.687   4.076   2.667
11314WAT      O34183   7.570   9.778   8.094
11314WAT     H134184   7.640   9.788   8.165
11314WAT     H234185   7.495   9.841   8.113
11315WAT      O34186   9.498   5.092   0.799
11315WAT     H134187   9.537   5.141   0.721
11315WAT     H234188   9.433   5.024   0.766
11316WAT      O34189   3.705   3.043   5.629
11316WAT     H134190   3.691   3.066   5.533
11316WAT     H234191   3.760   2.959   5.635
11317WAT      O34192   9.299   5.934   8.736
11317WAT     H134193   9.247   6.020   8.737
11317WAT     H234194   9.248   5.864   8.787
11318WAT      O34195   1.877   4.165   2.779
11318WAT     H134196   1.869   4.065   2.772
11318WAT     H234197   1.806   4.200   2.840
11319WAT      O34198   5.720   0.851   3.370
11319WAT     H134199   5.801   0.820   3.419
11319WAT     H234200   5.653   0.887   3.435
11320WAT      O34201   9.437   6.060   0.373
11320WAT     H134202   9.347   6.082   0.411
11320WAT     H234203   9.507   6.113   0.421
11321WAT      O34204   7.198   4.321   4.488
11321WAT     H134205   7.127   4.392   4.492
11321WAT     H234206   7.179   4.252   4.559
11322WAT      O34207   3.241   6.579   4.927
11322WAT     H134208   3.251   6.621   4.836
11322WAT     H234209   3.331   6.567   4.968
11323WAT      O34210   0.685   3.777   8.210
11323WAT     H134211   0.625   3.850   8.245
11323WAT     H234212   0.746   3.746   8.283
11324WAT      O34213   5.825   1.085   5.739
11324WAT     H134214   5.740   1.106   5.692
11324WAT     H234215   5.840   1.151   5.813
11325WAT      O34216   5.203   3.143   4.073
11325WAT     H134217   5.287   3.194   4.091
11325WAT     H234218   5.166   3.108   4.159
11326WAT      O34219   2.185   4.563   7.305
11326WAT     H134220   2.228   4.612   7.381
11326WAT     H234221   2.249   4.497   7.267
11327WAT      O34222   5.792   7.294   5.044
11327WAT     H134223   5.737   7.334   5.117
11327WAT     H234224   5.733   7.265   4.969
11328WAT      O34225   7.384   9.518   4.948
11328WAT     H134226   7.307   9.523   4.884
11328WAT     H234227   7.363   9.454   5.021
11329WAT      O34228   7.179   3.015   5.753
11329WAT     H134229   7.107   3.039   5.689
11329WAT     H234230   7.189   3.087   5.822
11330WAT      O34231   0.998   3.126   7.603
11330WAT     H134232   1.067   3.131   7.531
11330WAT     H234233   0.965   3.032   7.611
11331WAT      O34234   0.265   1.448   8.029
11331WAT     H134235   0.293   1.434   8.123
11331WAT     H234236   0.209   1.371   7.999
11332WAT      O34237   1.856   4.762   9.074
11332WAT     H134238   1.852   4.740   9.172
11332WAT     H234239   1.944   4.804   9.053
11333WAT      O34240   8.110   5.928   2.659
11333WAT     H134241   8.107   6.019   2.619
11333WAT     H234242   8.203   5.909   2.692
11334WAT      O34243   8.408   7.858   0.977
11334WAT     H134244   8.371   7.928   1.039
11334WAT     H234245   8.356   7.858   0.892
11335WAT      O34246   7.418   6.820   2.293
11335WAT     H134247   7.350   6.880   2.335
11335WAT     H234248   7.434   6.742   2.353
11336WAT      O34249   8.187   2.941   0.788
11336WAT     H134250   8.254   2.886   0.837
11336WAT     H234251   8.105   2.887   0.769
11337WAT      O34252   5.268   2.097   7.507
11337WAT     H134253   5.276   2.024   7.440
11337WAT     H234254   5.230   2.061   7.592
11338WAT      O34255   6.853   7.483   4.411
11338WAT     H134256   6.838   7.392   4.373
11338WAT     H234257   6.949   7.509   4.397
11339WAT      O34258   4.750   0.430   6.019
11339WAT     H134259   4.756   0.488   5.939
11339WAT     H234260   4.837   0.384   6.034
11340WAT      O34261   4.305   6.060   4.563
11340WAT     H134262   4.289   6.130   4.633
11340WAT     H234263   4.245   6.076   4.485
11341WAT      O34264   1.939   3.201   2.872
11341WAT     H134265   1.903   3.191   2.965
11341WAT     H234266   2.037   3.181   2.872
11342WAT      O34267   6.578   2.265   5.429
11342WAT     H134268   6.642   2.192   5.406
11342WAT     H234269   6.581   2.335   5.358
11343WAT      O34270   0.845   7.013   4.604
11343WAT     H134271   0.778   7.052   4.668
11343WAT     H234272   0.897   7.087   4.562
11344WAT      O34273   1.798   7.967   9.414
11344WAT     H134274   1.850   7.955   9.499
11344WAT     H234275   1.826   8.052   9.369
11345WAT      O34276   2.177   7.330   0.333
11345WAT     H134277   2.158   7.335   0.431
11345WAT     H234278   2.270   7.361   0.315
11346WAT      O34279   0.586   5.468   0.122
11346WAT     H134280   0.587   5.564   0.148
11346WAT     H234281   0.655   5.419   0.176
11347WAT      O34282   2.960   5.841   4.665
11347WAT     H134283   3.010   5.926   4.650
11347WAT     H234284   2.977   5.807   4.757
11348WAT      O34285   4.564   3.990   6.923
11348WAT     H134286   4.641   3.986   6.987
11348WAT     H234287   4.594   3.956   6.834
11349WAT      O34288   7.419   5.832   5.761
11349WAT     H134289   7.474   5.907   5.725
11349WAT     H234290   7.322   5.855   5.756
11350WAT      O34291   8.897   8.805   2.088
11350WAT     H134292   8.828   8.831   2.020
11350WAT     H234293   8.967   8.748   2.046
11351WAT      O34294   5.680   5.253   7.784
11351WAT     H134295   5.776   5.259   7.812
11351WAT     H234296   5.674   5.207   7.695
11352WAT      O34297   4.216   4.814   7.313
11352WAT     H134298   4.280   4.827   7.389
11352WAT     H234299   4.165   4.729   7.326
11353WAT      O34300   7.445   3.823   6.328
11353WAT     H134301   7.358   3.829   6.377
11353WAT     H234302   7.512   3.884   6.370
11354WAT      O34303   1.547   9.308   5.705
11354WAT     H134304   1.529   9.266   5.794
11354WAT     H234305   1.619   9.378   5.715
11355WAT      O34306   0.370   5.285   6.045
11355WAT     H134307   0.322   5.362   6.003
11355WAT     H234308   0.431   5.243   5.978
11356WAT      O34309   8.937   5.244   3.220
11356WAT     H134310   8.854   5.276   3.174
11356WAT     H234311   8.933   5.268   3.317
11357WAT      O34312   3.989   5.337   7.347
11357WAT     H134313   4.069   5.336   7.407
11357WAT     H234314   3.984   5.426   7.301
11358WAT      O34315   4.500   9.576   7.401
11358WAT     H134316   4.406   9.610   7.395
11358WAT     H234317   4.518   9.514   7.325
11359WAT      O34318   5.134   5.318   5.533
11359WAT     H134319   5.197   5.296   5.458
11359WAT     H234320   5.043   5.334   5.496
11360WAT      O34321   0.829   8.073   1.085
11360WAT     H134322   0.903   8.067   1.018
11360WAT     H234323   0.834   7.995   1.147
11361WAT      O34324   2.748   8.859   3.496
11361WAT     H134325   2.648   8.856   3.486
11361WAT     H234326   2.790   8.862   3.405
11362WAT      O34327   2.182   2.763   9.749
11362WAT     H134328   2.196   2.675   9.702
11362WAT     H234329   2.235   2.764   9.833
11363WAT      O34330   3.834   1.119   9.129
11363WAT     H134331   3.906   1.073   9.077
11363WAT     H234332   3.750   1.064   9.125
11364WAT      O34333   4.417   2.685   3.700
11364WAT     H134334   4.440   2.662   3.606
11364WAT     H234335   4.457   2.774   3.723
11365WAT      O34336   6.618   6.078   9.725
11365WAT     H134337   6.597   6.010   9.796
11365WAT     H234338   6.691   6.138   9.757
11366WAT      O34339   5.712   6.399   6.332
11366WAT     H134340   5.622   6.362   6.308
11366WAT     H234341   5.775   6.323   6.350
11367WAT      O34342   7.894   6.916   7.246
11367WAT     H134343   7.952   6.952   7.319
11367WAT     H234344   7.874   6.820   7.264
11368WAT      O34345   5.245   0.497   2.185
11368WAT     H134346   5.209   0.517   2.094
11368WAT     H234347   5.343   0.481   2.179
11369WAT      O34348   3.146   6.887   2.794
11369WAT     H134349   3.189   6.865   2.882
11369WAT     H234350   3.197   6.961   2.750
11370WAT      O34351   9.301   1.843   4.598
11370WAT     H134352   9.275   1.802   4.510
11370WAT     H234353   9.225   1.896   4.634
11371WAT      O34354   4.596   7.100   8.882
11371WAT     H134355   4.626   7.169   8.948
11371WAT     H234356   4.514   7.054   8.917
11372WAT      O34357   7.123   1.303   1.336
11372WAT     H134358   7.184   1.231   1.367
11372WAT     H234359   7.176   1.374   1.290
11373WAT      O34360   7.792   6.741   7.569
11373WAT     H134361   7.799   6.711   7.474
11373WAT     H234362   7.850   6.684   7.627
11374WAT      O34363   4.145   7.894   2.417
11374WAT     H134364   4.145   7.837   2.499
11374WAT     H234365   4.051   7.911   2.387
11375WAT      O34366   2.771   0.343   6.863
11375WAT     H134367   2.730   0.253   6.879
11375WAT     H234368   2.699   0.413   6.863
11376WAT      O34369   8.539   6.498   7.334
11376WAT     H134370   8.511   6.532   7.245
11376WAT     H234371   8.513   6.565   7.404
11377WAT      O34372   0.631   6.884   2.060
11377WAT     H134373   0.536   6.885   2.028
11377WAT     H234374   0.682   6.812   2.011
11378WAT      O34375   6.542   3.205   3.538
11378WAT     H134376   6.482   3.283   3.554
11378WAT     H234377   6.561   3.197   3.440
11379WAT      O34378   2.737   5.035   7.278
11379WAT     H134379   2.721   4.959   7.216
11379WAT     H234380   2.830   5.070   7.266
11380WAT      O34381   1.814   9.678   8.705
11380WAT     H134382   1.808   9.776   8.685
11380WAT     H234383   1.861   9.631   8.629
11381WAT      O34384   5.876   2.284   0.751
11381WAT     H134385   5.851   2.353   0.818
11381WAT     H234386   5.969   2.252   0.769
11382WAT      O34387   3.015   7.345   2.643
11382WAT     H134388   3.114   7.347   2.631
11382WAT     H234389   2.971   7.332   2.554
11383WAT      O34390   9.844   9.622   9.360
11383WAT     H134391   9.910   9.679   9.409
11383WAT     H234392   9.884   9.533   9.339
11384WAT      O34393   8.802   0.940   3.193
11384WAT     H134394   8.829   1.031   3.160
11384WAT     H234395   8.855   0.870   3.145
11385WAT      O34396   9.610   5.211   5.572
11385WAT     H134397   9.537   5.277   5.556
11385WAT     H234398   9.590   5.126   5.523
11386WAT      O34399   9.261   1.259   5.873
11386WAT     H134400   9.223   1.239   5.782
11386WAT     H234401   9.191   1.245   5.942
11387WAT      O34402   8.912   6.558   4.564
11387WAT     H134403   8.895   6.551   4.466
11387WAT     H234404   8.854   6.493   4.613
11388WAT      O34405   5.693   2.405   0.001
11388WAT     H134406   5.598   2.420  -0.027
11388WAT     H234407   5.701   2.422   0.099
11389WAT      O34408   7.561   2.747   3.603
11389WAT     H134409   7.549   2.845   3.589
11389WAT     H234410   7.508   2.719   3.684
11390WAT      O34411   4.773   2.474   6.702
11390WAT     H134412   4.829   2.403   6.746
11390WAT     H234413   4.833   2.542   6.660
11391WAT      O34414   3.351   7.658   1.218
11391WAT     H134415   3.366   7.720   1.141
11391WAT     H234416   3.440   7.632   1.257
11392WAT      O34417   7.258   8.057   3.522
11392WAT     H134418   7.290   7.963   3.537
11392WAT     H234419   7.177   8.073   3.578
11393WAT      O34420   8.537   7.276   4.680
11393WAT     H134421   8.611   7.282   4.613
11393WAT     H234422   8.545   7.191   4.731
11394WAT      O34423   0.471   4.583   6.936
11394WAT     H134424   0.497   4.572   6.840
11394WAT     H234425   0.533   4.649   6.980
11395WAT      O34426   6.953   3.850   4.895
11395WAT     H134427   6.930   3.780   4.964
11395WAT     H234428   6.979   3.935   4.941
11396WAT      O34429   1.820   7.202   1.714
11396WAT     H134430   1.728   7.169   1.733
11396WAT     H234431   1.868   7.219   1.801
11397WAT      O34432   5.869   5.552   4.365
11397WAT     H134433   5.906   5.596   4.283
11397WAT     H234434   5.773   5.529   4.349
11398WAT      O34435   8.053   0.855   0.880
11398WAT     H134436   8.117   0.919   0.837
11398WAT     H234437   7.960   0.891   0.872
11399WAT      O34438   2.892   3.604   9.826
11399WAT     H134439   2.829   3.593   9.749
11399WAT     H234440   2.985   3.580   9.796
11400WAT      O34441   0.273   7.247   0.495
11400WAT     H134442   0.355   7.213   0.449
11400WAT     H234443   0.299   7.316   0.562
11401WAT      O34444   1.828   4.185   6.087
11401WAT     H134445   1.743   4.236   6.070
11401WAT     H234446   1.857   4.141   6.002
11402WAT      O34447   6.487   0.258   3.538
11402WAT     H134448   6.403   0.297   3.576
11402WAT     H234449   6.562   0.322   3.551
11403WAT      O34450   8.741   0.340   7.575
11403WAT     H134451   8.663   0.292   7.615
11403WAT     H234452   8.726   0.352   7.477
11404WAT      O34453   9.357   2.569   0.805
11404WAT     H134454   9.293   2.504   0.847
11404WAT     H234455   9.414   2.610   0.877
11405WAT      O34456   4.804   0.749   7.867
11405WAT     H134457   4.821   0.660   7.825
11405WAT     H234458   4.706   0.767   7.868
11406WAT      O34459   8.741   2.298   1.066
11406WAT     H134460   8.724   2.297   1.165
11406WAT     H234461   8.749   2.392   1.035
11407WAT      O34462   8.362   1.365   5.962
11407WAT     H134463   8.291   1.420   5.918
11407WAT     H234464   8.442   1.360   5.903
11408WAT      O34465   6.321   6.204   7.498
11408WAT     H134466   6.393   6.184   7.564
11408WAT     H234467   6.311   6.303   7.487
11409WAT      O34468   7.162   4.281   2.322
11409WAT     H134469   7.114   4.303   2.407
11409WAT     H234470   7.144   4.352   2.254
11410WAT      O34471   9.595   3.418   7.166
11410WAT     H134472   9.680   3.433   7.217
11410WAT     H234473   9.612   3.354   7.091
11411WAT      O34474   6.027   8.133   2.659
11411WAT     H134475   6.034   8.181   2.572
11411WAT     H234476   6.115   8.090   2.679
11412WAT      O34477   8.462   2.101   9.883
11412WAT     H134478   8.374   2.094   9.836
11412WAT     H234479   8.496   2.009   9.902
11413WAT      O34480   8.110   9.454   1.255
11413WAT     H134481   8.029   9.493   1.212
11413WAT     H234482   8.136   9.510   1.333
11414WAT      O34483   7.371   3.013   0.111
11414WAT     H134484   7.384   2.939   0.044
11414WAT     H234485   7.387   3.101   0.066
11415WAT      O34486   1.122   0.694   0.423
11415WAT     H134487   1.074   0.729   0.505
11415WAT     H234488   1.088   0.603   0.402
11416WAT      O34489   4.382   4.933   8.483
11416WAT     H134490   4.334   4.846   8.498
11416WAT     H234491   4.333   5.006   8.530
11417WAT      O34492   6.805   9.161   5.603
11417WAT     H134493   6.880   9.207   5.555
11417WAT     H234494   6.810   9.063   5.586
11418WAT      O34495   5.469   6.467   5.125
11418WAT     H134496   5.516   6.419   5.199
11418WAT     H234497   5.468   6.565   5.144
11419WAT      O34498   8.622   8.873   4.627
11419WAT     H134499   8.607   8.802   4.696
11419WAT     H234500   8.612   8.963   4.670
11420WAT      O34501   8.287   6.667   0.766
11420WAT     H134502   8.349   6.590   0.778
11420WAT     H234503   8.335   6.742   0.721
11421WAT      O34504   7.721   2.094   2.164
11421WAT     H134505   7.668   2.016   2.130
11421WAT     H234506   7.815   2.065   2.181
11422WAT      O34507   1.939   3.057   3.152
11422WAT     H134508   1.934   2.987   3.081
11422WAT     H234509   1.855   3.056   3.206
11423WAT      O34510   1.935   1.119   6.247
11423WAT     H134511   1.892   1.036   6.282
11423WAT     H234512   1.872   1.166   6.185
11424WAT      O34513   2.183   5.550   8.748
11424WAT     H134514   2.107   5.542   8.813
11424WAT     H234515   2.229   5.638   8.761
11425WAT      O34516   8.152   7.458   5.923
11425WAT     H134517   8.065   7.440   5.969
11425WAT     H234518   8.210   7.377   5.926
11426WAT      O34519   5.528   7.874   9.070
11426WAT     H134520   5.470   7.810   9.021
11426WAT     H234521   5.622   7.864   9.039
11427WAT      O34522   0.439   8.899   5.950
11427WAT     H134523   0.367   8.834   5.973
11427WAT     H234524   0.497   8.860   5.878
11428WAT      O34525   7.283   5.932   5.287
11428WAT     H134526   7.239   5.998   5.347
11428WAT     H234527   7.348   5.979   5.227
11429WAT      O34528   0.653   9.297   3.018
11429WAT     H134529   0.592   9.290   3.097
11429WAT     H234530   0.608   9.350   2.946
11430WAT      O34531   1.007   6.002   3.550
11430WAT     H134532   1.017   5.904   3.535
11430WAT     H234533   1.081   6.051   3.502
11431WAT      O34534   5.418   6.732   5.273
11431WAT     H134535   5.423   6.704   5.369
11431WAT     H234536   5.326   6.765   5.253
11432WAT      O34537   5.163   2.704   5.538
11432WAT     H134538   5.165   2.786   5.595
11432WAT     H234539   5.247   2.697   5.486
11433WAT      O34540   1.456   3.089   5.739
11433WAT     H134541   1.519   3.094   5.661
11433WAT     H234542   1.376   3.145   5.720
11434WAT      O34543   8.370   9.614   8.846
11434WAT     H134544   8.420   9.542   8.896
11434WAT     H234545   8.368   9.697   8.901
11435WAT      O34546   6.798   2.442   4.437
11435WAT     H134547   6.700   2.461   4.446
11435WAT     H234548   6.825   2.373   4.504
11436WAT      O34549   6.741   3.569   5.694
11436WAT     H134550   6.705   3.489   5.742
11436WAT     H234551   6.822   3.602   5.742
11437WAT      O34552   3.365   0.970   1.517
11437WAT     H134553   3.268   0.961   1.536
11437WAT     H234554   3.401   0.883   1.482
11438WAT      O34555   7.140   1.682   6.952
11438WAT     H134556   7.222   1.626   6.967
11438WAT     H234557   7.163   1.779   6.961
11439WAT      O34558   8.182   2.978   2.511
11439WAT     H134559   8.122   2.921   2.567
11439WAT     H234560   8.127   3.038   2.453
11440WAT      O34561   4.523   5.952   6.155
11440WAT     H134562   4.615   5.917   6.142
11440WAT     H234563   4.498   6.010   6.077
11441WAT      O34564   3.224   6.521   5.750
11441WAT     H134565   3.271   6.470   5.678
11441WAT     H234566   3.292   6.554   5.816
11442WAT      O34567   4.633   0.354   6.797
11442WAT     H134568   4.584   0.267   6.785
11442WAT     H234569   4.642   0.374   6.894
11443WAT      O34570   1.876   4.102   4.779
11443WAT     H134571   1.858   4.107   4.877
11443WAT     H234572   1.970   4.132   4.761
11444WAT      O34573   1.984   2.982   6.771
11444WAT     H134574   1.892   2.948   6.754
11444WAT     H234575   2.051   2.911   6.747
11445WAT      O34576   9.742   4.785   3.779
11445WAT     H134577   9.688   4.829   3.851
11445WAT     H234578   9.782   4.856   3.720
11446WAT      O34579   0.034   4.235   9.206
11446WAT     H134580   0.074   4.315   9.252
11446WAT     H234581   0.042   4.155   9.266
11447WAT      O34582   0.327   0.160   2.185
11447WAT     H134583   0.407   0.216   2.163
11447WAT     H234584   0.342   0.113   2.272
11448WAT      O34585   8.184   5.746   0.843
11448WAT     H134586   8.257   5.717   0.781
11448WAT     H234587   8.110   5.788   0.790
11449WAT      O34588   9.677   2.107   4.685
11449WAT     H134589   9.667   2.111   4.784
11449WAT     H234590   9.742   2.177   4.656
11450WAT      O34591   3.859   4.681   3.010
11450WAT     H134592   3.788   4.707   3.075
11450WAT     H234593   3.821   4.619   2.942
11451WAT      O34594   8.871   9.821   5.942
11451WAT     H134595   8.885   9.731   5.902
11451WAT     H234596   8.887   9.817   6.041
11452WAT      O34597   5.114   6.050   4.295
11452WAT     H134598   5.170   5.983   4.247
11452WAT     H234599   5.124   6.037   4.394
11453WAT      O34600   5.233   2.065   1.616
11453WAT     H134601   5.258   2.095   1.524
11453WAT     H234602   5.308   2.086   1.680
11454WAT      O34603   8.147   5.485   8.955
11454WAT     H134604   8.195   5.411   9.002
11454WAT     H234605   8.214   5.547   8.914
11455WAT      O34606   5.049   6.711   1.292
11455WAT     H134607   5.003   6.629   1.328
11455WAT     H234608   5.145   6.689   1.273
11456WAT      O34609   5.481   2.127   1.747
11456WAT     H134610   5.490   2.121   1.846
11456WAT     H234611   5.571   2.114   1.704
11457WAT      O34612   4.141   5.552   3.281
11457WAT     H134613   4.184   5.623   3.338
11457WAT     H234614   4.156   5.462   3.323
11458WAT      O34615   1.934   3.519   1.253
11458WAT     H134616   1.864   3.452   1.227
11458WAT     H234617   1.988   3.544   1.173
11459WAT      O34618   0.873   7.467   6.170
11459WAT     H134619   0.881   7.560   6.132
11459WAT     H234620   0.800   7.466   6.238
11460WAT      O34621   3.302   2.028   4.353
11460WAT     H134622   3.243   2.098   4.394
11460WAT     H234623   3.394   2.064   4.342
11461WAT      O34624   2.029   5.568   4.669
11461WAT     H134625   2.094   5.597   4.738
11461WAT     H234626   1.993   5.477   4.692
11462WAT      O34627   3.463   4.067   6.766
11462WAT     H134628   3.419   4.010   6.835
11462WAT     H234629   3.406   4.071   6.684
11463WAT      O34630   7.355   7.980   5.636
11463WAT     H134631   7.380   7.936   5.550
11463WAT     H234632   7.436   8.022   5.677
11464WAT      O34633   3.654   5.862   2.906
11464WAT     H134634   3.599   5.789   2.947
11464WAT     H234635   3.707   5.907   2.978
11465WAT      O34636   0.839   8.852   8.227
11465WAT     H134637   0.891   8.773   8.259
11465WAT     H234638   0.793   8.896   8.305
11466WAT      O34639   4.251   5.393   6.919
11466WAT     H134640   4.288   5.300   6.920
11466WAT     H234641   4.314   5.454   6.967
11467WAT      O34642   2.070   1.244   6.450
11467WAT     H134643   2.022   1.332   6.455
11467WAT     H234644   2.026   1.186   6.381
11468WAT      O34645   2.176   5.473   9.812
11468WAT     H134646   2.152   5.502   9.904
11468WAT     H234647   2.149   5.377   9.799
11469WAT      O34648   7.488   1.695   0.164
11469WAT     H134649   7.425   1.668   0.237
11469WAT     H234650   7.436   1.733   0.088
11470WAT      O34651   8.633   1.718   5.379
11470WAT     H134652   8.596   1.635   5.338
11470WAT     H234653   8.645   1.788   5.309
11471WAT      O34654   0.335   1.982   9.861
11471WAT     H134655   0.371   1.906   9.915
11471WAT     H234656   0.333   2.065   9.916
11472WAT      O34657   0.391   6.742   8.427
11472WAT     H134658   0.362   6.655   8.387
11472WAT     H234659   0.358   6.748   8.521
11473WAT      O34660   8.369   1.478   4.278
11473WAT     H134661   8.320   1.557   4.241
11473WAT     H234662   8.385   1.412   4.205
11474WAT      O34663   4.041   7.550   2.836
11474WAT     H134664   3.954   7.533   2.882
11474WAT     H234665   4.111   7.571   2.905
11475WAT      O34666   6.645   7.312   1.613
11475WAT     H134667   6.629   7.249   1.689
11475WAT     H234668   6.709   7.271   1.548
11476WAT      O34669   3.137   2.692   2.775
11476WAT     H134670   3.114   2.625   2.846
11476WAT     H234671   3.054   2.724   2.731
11477WAT      O34672   7.714   8.668   6.233
11477WAT     H134673   7.639   8.734   6.227
11477WAT     H234674   7.754   8.654   6.143
11478WAT      O34675   6.276   7.141   5.628
11478WAT     H134676   6.376   7.137   5.634
11478WAT     H234677   6.246   7.236   5.626
11479WAT      O34678   1.120   1.309   9.592
11479WAT     H134679   1.035   1.351   9.624
11479WAT     H234680   1.119   1.306   9.492
11480WAT      O34681   7.481   9.433   0.189
11480WAT     H134682   7.579   9.411   0.193
11480WAT     H234683   7.448   9.420   0.096
11481WAT      O34684   8.521   9.692   2.006
11481WAT     H134685   8.593   9.639   2.051
11481WAT     H234686   8.533   9.789   2.028
11482WAT      O34687   0.124   0.170   7.952
11482WAT     H134688   0.120   0.259   7.907
11482WAT     H234689   0.032   0.143   7.981
11483WAT      O34690   4.596   8.897   0.192
11483WAT     H134691   4.578   8.808   0.235
11483WAT     H234692   4.579   8.970   0.259
11484WAT      O34693   5.791   1.596   8.359
11484WAT     H134694   5.872   1.645   8.391
11484WAT     H234695   5.772   1.520   8.421
11485WAT      O34696   3.473   1.407   6.533
11485WAT     H134697   3.394   1.447   6.486
11485WAT     H234698   3.475   1.441   6.627
11486WAT      O34699   6.396   1.367   6.828
11486WAT     H134700   6.384   1.413   6.740
11486WAT     H234701   6.479   1.311   6.826
11487WAT      O34702   6.763   8.727   6.720
11487WAT     H134703   6.817   8.671   6.782
11487WAT     H234704   6.701   8.784   6.774
11488WAT      O34705   5.295   0.765   4.945
11488WAT     H134706   5.232   0.797   5.015
11488WAT     H234707   5.296   0.829   4.869
11489WAT      O34708   1.467   7.950   1.167
11489WAT     H134709   1.519   7.873   1.202
11489WAT     H234710   1.440   7.932   1.073
11490WAT      O34711   1.906   4.204   0.482
11490WAT     H134712   1.862   4.115   0.470
11490WAT     H234713   2.006   4.192   0.480
11491WAT      O34714   2.584   5.956   3.067
11491WAT     H134715   2.645   6.035   3.076
11491WAT     H234716   2.562   5.921   3.158
11492WAT      O34717   6.182   8.328   0.205
11492WAT     H134718   6.168   8.385   0.124
11492WAT     H234719   6.114   8.351   0.274
11493WAT      O34720   4.747   7.390   4.664
11493WAT     H134721   4.779   7.309   4.713
11493WAT     H234722   4.799   7.401   4.580
11494WAT      O34723   4.542   6.600   4.411
11494WAT     H134724   4.512   6.681   4.362
11494WAT     H234725   4.503   6.600   4.503
11495WAT      O34726   5.313   1.280   1.522
11495WAT     H134727   5.284   1.327   1.605
11495WAT     H234728   5.401   1.236   1.538
11496WAT      O34729   8.094   8.497   0.103
11496WAT     H134730   8.064   8.548   0.022
11496WAT     H234731   8.173   8.542   0.144
11497WAT      O34732   1.894   3.413   5.188
11497WAT     H134733   1.936   3.450   5.105
11497WAT     H234734   1.843   3.330   5.165
11498WAT      O34735   0.962   4.252   3.407
11498WAT     H134736   0.914   4.212   3.485
11498WAT     H234737   0.973   4.183   3.336
11499WAT      O34738   7.010   2.676   0.949
11499WAT     H134739   6.915   2.707   0.948
11499WAT     H234740   7.057   2.711   0.867
11500WAT      O34741   2.965   1.893   9.673
11500WAT     H134742   3.042   1.900   9.610
11500WAT     H234743   2.909   1.814   9.649
11501WAT      O34744   7.800   6.784   2.789
11501WAT     H134745   7.833   6.838   2.866
11501WAT     H234746   7.768   6.695   2.821
11502WAT      O34747   5.272   1.132   6.672
11502WAT     H134748   5.237   1.039   6.660
11502WAT     H234749   5.371   1.133   6.659
11503WAT      O34750   1.850   0.834   2.734
11503WAT     H134751   1.795   0.755   2.707
11503WAT     H234752   1.909   0.809   2.811
11504WAT      O34753   2.757   5.233   7.465
11504WAT     H134754   2.791   5.183   7.546
11504WAT     H234755   2.727   5.167   7.396
11505WAT      O34756   8.044   1.198   7.725
11505WAT     H134757   8.057   1.235   7.817
11505WAT     H234758   7.949   1.170   7.713
11506WAT      O34759   8.989   0.615   7.013
11506WAT     H134760   9.006   0.595   6.916
11506WAT     H234761   9.024   0.706   7.035
11507WAT      O34762   7.003   6.332   2.799
11507WAT     H134763   7.035   6.425   2.819
11507WAT     H234764   6.954   6.332   2.712
11508WAT      O34765   5.086   6.085   6.771
11508WAT     H134766   5.183   6.077   6.750
11508WAT     H234767   5.032   6.050   6.695
11509WAT      O34768   9.859   0.318   6.281
11509WAT     H134769   9.803   0.400   6.271
11509WAT     H234770   9.946   0.331   6.234
11510WAT      O34771   9.806   0.973   3.024
11510WAT     H134772   9.816   0.997   2.928
11510WAT     H234773   9.879   0.910   3.051
11511WAT      O34774   0.172   6.243   7.670
11511WAT     H134775   0.113   6.166   7.695
11511WAT     H234776   0.259   6.235   7.720
11512WAT      O34777   3.117   3.149   2.855
11512WAT     H134778   3.086   3.198   2.773
11512WAT     H234779   3.183   3.079   2.829
11513WAT      O34780   4.809   7.668   6.788
11513WAT     H134781   4.906   7.658   6.810
11513WAT     H234782   4.790   7.762   6.762
11514WAT      O34783   5.419   3.616   6.132
11514WAT     H134784   5.489   3.676   6.171
11514WAT     H234785   5.459   3.559   6.060
11515WAT      O34786   3.373   8.572   3.331
11515WAT     H134787   3.472   8.578   3.341
11515WAT     H234788   3.346   8.598   3.238
11516WAT      O34789   1.733   0.992   0.867
11516WAT     H134790   1.812   1.011   0.924
11516WAT     H234791   1.739   0.898   0.831
11517WAT      O34792   9.261   0.134   0.948
11517WAT     H134793   9.190   0.087   0.896
11517WAT     H234794   9.323   0.066   0.989
11518WAT      O34795   5.950   3.379   7.225
11518WAT     H134796   5.889   3.414   7.154
11518WAT     H234797   6.042   3.366   7.187
11519WAT      O34798   0.625   3.829   5.270
11519WAT     H134799   0.699   3.762   5.262
11519WAT     H234800   0.628   3.891   5.191
11520WAT      O34801   4.126   5.963   1.301
11520WAT     H134802   4.114   6.051   1.255
11520WAT     H234803   4.145   5.979   1.398
11521WAT      O34804   5.661   2.625   9.661
11521WAT     H134805   5.579   2.617   9.717
11521WAT     H234806   5.683   2.536   9.621
11522WAT      O34807   4.237   9.064   2.527
11522WAT     H134808   4.149   9.047   2.482
11522WAT     H234809   4.270   9.155   2.501
11523WAT      O34810   7.152   5.641   5.776
11523WAT     H134811   7.195   5.630   5.866
11523WAT     H234812   7.159   5.555   5.725
11524WAT      O34813   2.144   7.305   0.603
11524WAT     H134814   2.063   7.363   0.608
11524WAT     H234815   2.163   7.266   0.694
11525WAT      O34816   7.330   5.416   3.144
11525WAT     H134817   7.266   5.376   3.211
11525WAT     H234818   7.423   5.383   3.163
11526WAT      O34819   9.748   5.523   5.838
11526WAT     H134820   9.819   5.588   5.809
11526WAT     H234821   9.792   5.445   5.884
11527WAT      O34822   7.437   5.321   9.398
11527WAT     H134823   7.536   5.331   9.414
11527WAT     H234824   7.410   5.377   9.320
11528WAT      O34825   0.253   7.532   6.031
11528WAT     H134826   0.230   7.574   5.944
11528WAT     H234827   0.175   7.540   6.094
11529WAT      O34828   5.811   8.761   2.480
11529WAT     H134829   5.897   8.738   2.526
11529WAT     H234830   5.831   8.803   2.391
11530WAT      O34831   7.814   0.061   9.823
11530WAT     H134832   7.883   0.082   9.893
11530WAT     H234833   7.859   0.026   9.741
11531WAT      O34834   2.523   3.641   6.292
11531WAT     H134835   2.460   3.635   6.369
11531WAT     H234836   2.598   3.703   6.315
11532WAT      O34837   9.770   8.501   0.024
11532WAT     H134838   9.693   8.454  -0.018
11532WAT     H234839   9.737   8.583   0.071
11533WAT      O34840   1.983   7.871   3.796
11533WAT     H134841   2.030   7.788   3.765
11533WAT     H234842   1.946   7.919   3.716
11534WAT      O34843   5.888   5.553   0.423
11534WAT     H134844   5.913   5.468   0.377
11534WAT     H234845   5.893   5.540   0.522
11535WAT      O34846   8.755   5.084   3.876
11535WAT     H134847   8.662   5.096   3.842
11535WAT     H234848   8.761   5.119   3.969
11536WAT      O34849   3.966   3.235   7.002
11536WAT     H134850   3.878   3.276   6.977
11536WAT     H234851   4.013   3.295   7.067
11537WAT      O34852   2.573   9.554   8.074
11537WAT     H134853   2.584   9.501   7.990
11537WAT     H234854   2.643   9.526   8.140
11538WAT      O34855   4.914   9.692   2.307
11538WAT     H134856   4.969   9.753   2.364
11538WAT     H234857   4.828   9.670   2.355
11539WAT      O34858   8.738   7.085   1.817
11539WAT     H134859   8.681   7.122   1.890
11539WAT     H234860   8.679   7.044   1.747
11540WAT      O34861   0.815   6.599   9.652
11540WAT     H134862   0.802   6.543   9.733
11540WAT     H234863   0.886   6.559   9.593
11541WAT      O34864   0.622   9.214   4.127
11541WAT     H134865   0.562   9.137   4.146
11541WAT     H234866   0.568   9.292   4.098
11542WAT      O34867   4.801   3.406   5.937
11542WAT     H134868   4.880   3.449   5.894
11542WAT     H234869   4.808   3.307   5.930
11543WAT      O34870   3.031   1.529   2.693
11543WAT     H134871   2.963   1.456   2.692
11543WAT     H234872   2.984   1.617   2.702
11544WAT      O34873   9.331   3.640   9.184
11544WAT     H134874   9.283   3.712   9.234
11544WAT     H234875   9.321   3.553   9.232
11545WAT      O34876   1.304   8.941   3.084
11545WAT     H134877   1.259   8.872   3.027
11545WAT     H234878   1.314   9.026   3.032
11546WAT      O34879   2.695   5.687   6.100
11546WAT     H134880   2.642   5.647   6.026
11546WAT     H234881   2.675   5.638   6.185
11547WAT      O34882   7.552   8.173   5.189
11547WAT     H134883   7.601   8.224   5.119
11547WAT     H234884   7.615   8.151   5.264
11548WAT      O34885   1.630   3.421   4.643
11548WAT     H134886   1.605   3.401   4.738
11548WAT     H234887   1.561   3.381   4.582
11549WAT      O34888   3.791   3.630   1.502
11549WAT     H134889   3.738   3.685   1.566
11549WAT     H234890   3.751   3.639   1.410
11550WAT      O34891   4.548   0.010   9.759
11550WAT     H134892   4.630   0.020   9.702
11550WAT     H234893   4.478  -0.040   9.708
11551WAT      O34894   8.718   2.074   4.433
11551WAT     H134895   8.624   2.078   4.400
11551WAT     H234896   8.760   2.164   4.424
11552WAT      O34897   8.606   1.748   9.722
11552WAT     H134898   8.510   1.726   9.739
11552WAT     H234899   8.612   1.816   9.649
11553WAT      O34900   0.403   2.405   7.802
11553WAT     H134901   0.497   2.389   7.771
11553WAT     H234902   0.390   2.363   7.892
11554WAT      O34903   8.638   2.335   7.339
11554WAT     H134904   8.637   2.296   7.247
11554WAT     H234905   8.705   2.286   7.395
11555WAT      O34906   7.144   2.606   5.927
11555WAT     H134907   7.203   2.540   5.880
11555WAT     H234908   7.078   2.557   5.984
11556WAT      O34909   3.623   8.308   1.569
11556WAT     H134910   3.687   8.320   1.644
11556WAT     H234911   3.653   8.231   1.512
11557WAT      O34912   2.153   7.722   0.921
11557WAT     H134913   2.105   7.764   0.844
11557WAT     H234914   2.087   7.672   0.978
11558WAT      O34915   7.552   3.426   7.813
11558WAT     H134916   7.638   3.435   7.763
11558WAT     H234917   7.571   3.411   7.910
11559WAT      O34918   1.452   3.806   7.839
11559WAT     H134919   1.363   3.775   7.873
11559WAT     H234920   1.457   3.792   7.740
11560WAT      O34921   8.140   0.978   1.465
11560WAT     H134922   8.157   1.072   1.497
11560WAT     H234923   8.218   0.947   1.411
11561WAT      O34924   7.563   7.535   7.714
11561WAT     H134925   7.653   7.491   7.707
11561WAT     H234926   7.567   7.610   7.780
11562WAT      O34927   3.261   2.273   3.229
11562WAT     H134928   3.263   2.181   3.190
11562WAT     H234929   3.292   2.270   3.324
11563WAT      O34930   8.972   2.209   0.947
11563WAT     H134931   8.879   2.230   0.976
11563WAT     H234932   9.021   2.165   1.022
11564WAT      O34933   7.384   1.666   0.714
11564WAT     H134934   7.407   1.697   0.806
11564WAT     H234935   7.314   1.726   0.675
11565WAT      O34936   1.216   2.858   0.582
11565WAT     H134937   1.154   2.791   0.622
11565WAT     H234938   1.195   2.870   0.485
11566WAT      O34939   6.492   9.020   6.174
11566WAT     H134940   6.463   8.925   6.185
11566WAT     H234941   6.590   9.023   6.154
11567WAT      O34942   6.870   4.695   6.522
11567WAT     H134943   6.840   4.607   6.484
11567WAT     H234944   6.938   4.679   6.594
11568WAT      O34945   2.550   2.782   2.099
11568WAT     H134946   2.584   2.875   2.115
11568WAT     H234947   2.619   2.729   2.052
11569WAT      O34948   0.914   0.769   4.034
11569WAT     H134949   0.981   0.698   4.012
11569WAT     H234950   0.933   0.850   3.978
11570WAT      O34951   1.267   7.227   1.155
11570WAT     H134952   1.253   7.307   1.096
11570WAT     H234953   1.359   7.191   1.142
11571WAT      O34954   8.188   2.069   8.638
11571WAT     H134955   8.272   2.022   8.664
11571WAT     H234956   8.112   2.004   8.637
11572WAT      O34957   1.547   6.543   2.745
11572WAT     H134958   1.584   6.492   2.822
11572WAT     H234959   1.620   6.595   2.700
11573WAT      O34960   5.910   5.844   0.443
11573WAT     H134961   5.847   5.880   0.512
11573WAT     H234962   5.891   5.747   0.428
11574WAT      O34963   2.374   3.242   7.042
11574WAT     H134964   2.451   3.204   7.095
11574WAT     H234965   2.357   3.183   6.963
11575WAT      O34966   7.855   2.966   0.089
11575WAT     H134967   7.941   2.930   0.055
11575WAT     H234968   7.838   2.932   0.182
11576WAT      O34969   4.453   0.544   0.589
11576WAT     H134970   4.538   0.500   0.619
11576WAT     H234971   4.428   0.616   0.654
11577WAT      O34972   3.130   7.452   0.943
11577WAT     H134973   3.111   7.370   0.996
11577WAT     H234974   3.085   7.446   0.854
11578WAT      O34975   9.096   6.557   3.551
11578WAT     H134976   9.144   6.473   3.578
11578WAT     H234977   9.027   6.579   3.620
11579WAT      O34978   4.397   8.301   4.977
11579WAT     H134979   4.302   8.296   5.008
11579WAT     H234980   4.434   8.208   4.968
11580WAT      O34981   6.950   9.717   5.482
11580WAT     H134982   7.014   9.641   5.495
11580WAT     H234983   6.876   9.687   5.421
11581WAT      O34984   2.507   6.435   3.415
11581WAT     H134985   2.532   6.498   3.489
11581WAT     H234986   2.409   6.442   3.398
11582WAT      O34987   0.745   8.549   8.238
11582WAT     H134988   0.740   8.553   8.338
11582WAT     H234989   0.837   8.575   8.208
11583WAT      O34990   7.528   6.424   6.080
11583WAT     H134991   7.619   6.403   6.115
11583WAT     H234992   7.516   6.382   5.990
11584WAT      O34993   3.047   6.153   1.714
11584WAT     H134994   3.042   6.218   1.790
11584WAT     H234995   2.998   6.069   1.739
11585WAT      O34996   8.988   4.553   8.312
11585WAT     H134997   8.910   4.581   8.255
11585WAT     H234998   8.998   4.618   8.388
11586WAT      O34999   5.762   3.562   2.746
11586WAT     H135000   5.744   3.521   2.657
11586WAT     H235001   5.794   3.656   2.734
11587WAT      O35002   4.619   4.624   9.499
11587WAT     H135003   4.692   4.674   9.546
11587WAT     H235004   4.541   4.684   9.484
11588WAT      O35005   6.458   6.479   7.140
11588WAT     H135006   6.552   6.474   7.172
11588WAT     H235007   6.422   6.387   7.125
11589WAT      O35008   5.229   1.419   1.954
11589WAT     H135009   5.279   1.504   1.968
11589WAT     H235010   5.293   1.342   1.953
11590WAT      O35011   4.866   8.023   2.748
11590WAT     H135012   4.864   8.028   2.648
11590WAT     H235013   4.785   7.974   2.780
11591WAT      O35014   9.000   0.536   6.506
11591WAT     H135015   8.980   0.633   6.519
11591WAT     H235016   9.069   0.526   6.434
11592WAT      O35017   7.271   8.119   4.942
11592WAT     H135018   7.270   8.109   5.042
11592WAT     H235019   7.206   8.190   4.915
11593WAT      O35020   7.362   7.416   5.080
11593WAT     H135021   7.351   7.507   5.040
11593WAT     H235022   7.423   7.361   5.023
11594WAT      O35023   4.767   9.371   1.144
11594WAT     H135024   4.779   9.371   1.244
11594WAT     H235025   4.852   9.341   1.100
11595WAT      O35026   4.557   8.088   7.270
11595WAT     H135027   4.477   8.104   7.213
11595WAT     H235028   4.548   8.000   7.316
11596WAT      O35029   8.048   1.017   6.954
11596WAT     H135030   8.141   0.994   6.982
11596WAT     H235031   8.041   1.017   6.854
11597WAT      O35032   2.945   3.202   8.949
11597WAT     H135033   3.038   3.237   8.940
11597WAT     H235034   2.948   3.103   8.967
11598WAT      O35035   2.788   3.847   8.607
11598WAT     H135036   2.772   3.769   8.668
11598WAT     H235037   2.886   3.867   8.606
11599WAT      O35038   1.511   2.181   1.779
11599WAT     H135039   1.576   2.106   1.794
11599WAT     H235040   1.419   2.143   1.772
11600WAT      O35041   6.022   5.703   8.045
11600WAT     H135042   6.076   5.651   7.979
11600WAT     H235043   6.082   5.767   8.094
11601WAT      O35044   5.649   4.111   4.970
11601WAT     H135045   5.638   4.210   4.961
11601WAT     H235046   5.713   4.078   4.901
11602WAT      O35047   3.243   4.496   8.621
11602WAT     H135048   3.305   4.527   8.549
11602WAT     H235049   3.150   4.522   8.598
11603WAT      O35050   6.593   8.862   6.895
11603WAT     H135051   6.672   8.917   6.923
11603WAT     H235052   6.522   8.923   6.858
11604WAT      O35053   2.169   5.766   4.840
11604WAT     H135054   2.189   5.864   4.834
11604WAT     H235055   2.253   5.716   4.860
11605WAT      O35056   3.981   8.230   2.915
11605WAT     H135057   4.027   8.151   2.955
11605WAT     H235058   3.882   8.218   2.922
11606WAT      O35059   1.142   1.325   9.304
11606WAT     H135060   1.071   1.372   9.251
11606WAT     H235061   1.214   1.390   9.327
11607WAT      O35062   6.521   8.510   2.186
11607WAT     H135063   6.499   8.438   2.121
11607WAT     H235064   6.582   8.576   2.143
11608WAT      O35065   8.181   4.932   8.895
11608WAT     H135066   8.109   4.984   8.849
11608WAT     H235067   8.208   4.979   8.979
11609WAT      O35068   2.925   7.942   5.733
11609WAT     H135069   2.979   7.893   5.802
11609WAT     H235070   2.846   7.886   5.707
11610WAT      O35071   1.010   4.330   7.522
11610WAT     H135072   0.918   4.313   7.558
11610WAT     H235073   1.005   4.401   7.451
11611WAT      O35074   2.533   9.841   8.654
11611WAT     H135075   2.557   9.915   8.717
11611WAT     H235076   2.530   9.754   8.705
11612WAT      O35077   4.477   2.349   0.294
11612WAT     H135078   4.448   2.323   0.202
11612WAT     H235079   4.567   2.309   0.312
11613WAT      O35080   5.774   1.551   0.589
11613WAT     H135081   5.743   1.515   0.677
11613WAT     H235082   5.851   1.496   0.556
11614WAT      O35083   4.384   6.230   0.802
11614WAT     H135084   4.424   6.140   0.819
11614WAT     H235085   4.452   6.300   0.822
11615WAT      O35086   3.876   0.217   5.232
11615WAT     H135087   3.957   0.170   5.265
11615WAT     H235088   3.871   0.210   5.132
11616WAT      O35089   1.740   7.107   6.820
11616WAT     H135090   1.792   7.110   6.734
11616WAT     H235091   1.675   7.184   6.822
11617WAT      O35092   9.432   8.890   4.456
11617WAT     H135093   9.469   8.902   4.548
11617WAT     H235094   9.380   8.805   4.452
11618WAT      O35095   2.923   4.030   3.308
11618WAT     H135096   2.843   4.020   3.367
11618WAT     H235097   2.935   4.126   3.282
11619WAT      O35098   0.926   9.116   2.152
11619WAT     H135099   1.018   9.079   2.140
11619WAT     H235100   0.862   9.068   2.093
11620WAT      O35101   3.838   3.040   4.131
11620WAT     H135102   3.859   2.952   4.088
11620WAT     H235103   3.759   3.081   4.085
11621WAT      O35104   6.831   5.806   1.642
11621WAT     H135105   6.923   5.832   1.673
11621WAT     H235106   6.763   5.860   1.691
11622WAT      O35107   4.722   5.495   0.601
11622WAT     H135108   4.704   5.496   0.700
11622WAT     H235109   4.809   5.449   0.583
11623WAT      O35110   4.733   0.540   3.261
11623WAT     H135111   4.828   0.568   3.273
11623WAT     H235112   4.675   0.594   3.321
11624WAT      O35113   6.644   8.109   4.821
11624WAT     H135114   6.593   8.084   4.739
11624WAT     H235115   6.594   8.079   4.902
11625WAT      O35116   7.436   7.753   4.361
11625WAT     H135117   7.459   7.806   4.279
11625WAT     H235118   7.345   7.779   4.392
11626WAT      O35119   2.293   0.192   3.559
11626WAT     H135120   2.231   0.139   3.617
11626WAT     H235121   2.310   0.281   3.601
11627WAT      O35122   7.470   4.545   1.830
11627WAT     H135123   7.465   4.560   1.929
11627WAT     H235124   7.497   4.630   1.785
11628WAT      O35125   0.237   4.453   2.961
11628WAT     H135126   0.165   4.426   2.896
11628WAT     H235127   0.243   4.384   3.033
11629WAT      O35128   7.940   5.349   2.611
11629WAT     H135129   7.982   5.309   2.693
11629WAT     H235130   7.991   5.431   2.584
11630WAT      O35131   4.730   2.479   3.628
11630WAT     H135132   4.697   2.451   3.538
11630WAT     H235133   4.742   2.578   3.630
11631WAT      O35134   1.050   6.795   0.898
11631WAT     H135135   1.126   6.740   0.864
11631WAT     H235136   1.067   6.820   0.993
11632WAT      O35137   4.863   2.560   0.162
11632WAT     H135138   4.930   2.507   0.214
11632WAT     H235139   4.815   2.623   0.223
11633WAT      O35140   1.080   7.280   6.327
11633WAT     H135141   0.996   7.327   6.300
11633WAT     H235142   1.145   7.283   6.252
11634WAT      O35143   5.424   1.162   4.936
11634WAT     H135144   5.428   1.069   4.973
11634WAT     H235145   5.329   1.195   4.939
11635WAT      O35146   6.610   8.672   4.858
11635WAT     H135147   6.576   8.698   4.768
11635WAT     H235148   6.672   8.743   4.891
11636WAT      O35149   3.456   1.482   9.020
11636WAT     H135150   3.517   1.510   9.094
11636WAT     H235151   3.423   1.389   9.039
11637WAT      O35152   3.216   2.554   8.659
11637WAT     H135153   3.238   2.642   8.616
11637WAT     H235154   3.155   2.503   8.600
11638WAT      O35155   5.218   4.347   0.380
11638WAT     H135156   5.180   4.273   0.434
11638WAT     H235157   5.318   4.347   0.390
11639WAT      O35158   0.556   9.678   1.762
11639WAT     H135159   0.469   9.631   1.780
11639WAT     H235160   0.632   9.616   1.784
11640WAT      O35161   9.147   0.699   8.684
11640WAT     H135162   9.072   0.633   8.691
11640WAT     H235163   9.156   0.748   8.771
11641WAT      O35164   4.943   5.811   4.502
11641WAT     H135165   4.867   5.866   4.468
11641WAT     H235166   4.991   5.860   4.574
11642WAT      O35167   2.266   3.921   1.961
11642WAT     H135168   2.215   3.999   1.997
11642WAT     H235169   2.204   3.861   1.911
11643WAT      O35170   9.807   9.566   6.324
11643WAT     H135171   9.774   9.479   6.358
11643WAT     H235172   9.753   9.640   6.364
11644WAT      O35173   0.305   7.762   0.491
11644WAT     H135174   0.237   7.766   0.565
11644WAT     H235175   0.300   7.845   0.436
11645WAT      O35176   9.365   3.420   1.274
11645WAT     H135177   9.296   3.416   1.202
11645WAT     H235178   9.447   3.465   1.240
11646WAT      O35179   0.676   5.511   3.943
11646WAT     H135180   0.676   5.569   4.025
11646WAT     H235181   0.761   5.460   3.938
11647WAT      O35182   3.499   0.196   4.013
11647WAT     H135183   3.477   0.257   3.937
11647WAT     H235184   3.509   0.103   3.979
11648WAT      O35185   1.611   5.520   7.103
11648WAT     H135186   1.516   5.490   7.088
11648WAT     H235187   1.673   5.443   7.088
11649WAT      O35188   7.433   9.552   8.086
11649WAT     H135189   7.363   9.546   8.015
11649WAT     H235190   7.488   9.635   8.071
11650WAT      O35191   8.694   8.384   2.857
11650WAT     H135192   8.617   8.330   2.824
11650WAT     H235193   8.686   8.477   2.822
11651WAT      O35194   2.624   9.610   4.789
11651WAT     H135195   2.557   9.626   4.717
11651WAT     H235196   2.697   9.551   4.755
11652WAT      O35197   8.861   1.879   7.184
11652WAT     H135198   8.849   1.796   7.239
11652WAT     H235199   8.916   1.945   7.235
11653WAT      O35200   3.398   7.568   8.227
11653WAT     H135201   3.363   7.608   8.142
11653WAT     H235202   3.477   7.510   8.206
11654WAT      O35203   6.372   6.858   6.352
11654WAT     H135204   6.426   6.899   6.426
11654WAT     H235205   6.355   6.761   6.373
11655WAT      O35206   3.858   8.981   4.966
11655WAT     H135207   3.924   8.913   4.934
11655WAT     H235208   3.810   9.020   4.887
11656WAT      O35209   7.793   4.886   7.148
11656WAT     H135210   7.774   4.878   7.246
11656WAT     H235211   7.761   4.804   7.101
11657WAT      O35212   2.502   5.299   8.051
11657WAT     H135213   2.581   5.336   8.098
11657WAT     H235214   2.450   5.240   8.113
11658WAT      O35215   7.651   0.415   6.630
11658WAT     H135216   7.671   0.507   6.597
11658WAT     H235217   7.734   0.359   6.626
11659WAT      O35218   6.751   9.634   4.722
11659WAT     H135219   6.841   9.653   4.683
11659WAT     H235220   6.682   9.691   4.676
11660WAT      O35221   8.065   3.991   2.570
11660WAT     H135222   8.090   4.055   2.497
11660WAT     H235223   7.971   3.960   2.558
11661WAT      O35224   9.424   0.029   4.873
11661WAT     H135225   9.417   0.035   4.773
11661WAT     H235226   9.508   0.074   4.903
11662WAT      O35227   6.140   5.314   8.134
11662WAT     H135228   6.198   5.313   8.216
11662WAT     H235229   6.165   5.237   8.075
11663WAT      O35230   2.471   4.933   6.627
11663WAT     H135231   2.378   4.969   6.634
11663WAT     H235232   2.484   4.861   6.695
11664WAT      O35233   2.178   1.109   5.249
11664WAT     H135234   2.158   1.073   5.158
11664WAT     H235235   2.127   1.194   5.264
11665WAT      O35236   4.912   3.019   9.355
11665WAT     H135237   4.906   3.116   9.375
11665WAT     H235238   5.007   2.990   9.358
11666WAT      O35239   1.891   9.751   3.331
11666WAT     H135240   1.923   9.836   3.374
11666WAT     H235241   1.799   9.766   3.293
11667WAT      O35242   8.096   2.975   4.317
11667WAT     H135243   8.000   3.004   4.305
11667WAT     H235244   8.156   3.050   4.291
11668WAT      O35245   6.623   1.377   4.848
11668WAT     H135246   6.566   1.298   4.825
11668WAT     H235247   6.700   1.381   4.785
11669WAT      O35248   7.459   7.106   6.887
11669WAT     H135249   7.449   7.127   6.984
11669WAT     H235250   7.549   7.066   6.870
11670WAT      O35251   9.784   1.843   9.003
11670WAT     H135252   9.809   1.871   8.911
11670WAT     H235253   9.787   1.922   9.064
11671WAT      O35254   7.545   7.264   4.372
11671WAT     H135255   7.634   7.229   4.400
11671WAT     H235256   7.524   7.348   4.422
11672WAT      O35257   5.535   2.964   2.719
11672WAT     H135258   5.564   2.877   2.759
11672WAT     H235259   5.574   3.039   2.772
11673WAT      O35260   2.285   7.912   7.097
11673WAT     H135261   2.211   7.846   7.085
11673WAT     H235262   2.357   7.871   7.154
11674WAT      O35263   9.670   8.223   6.348
11674WAT     H135264   9.751   8.182   6.305
11674WAT     H235265   9.697   8.277   6.428
11675WAT      O35266   2.977   6.604   5.350
11675WAT     H135267   3.023   6.687   5.319
11675WAT     H235268   2.882   6.625   5.374
11676WAT      O35269   5.947   3.383   0.787
11676WAT     H135270   5.963   3.450   0.859
11676WAT     H235271   5.855   3.346   0.796
11677WAT      O35272   3.347   4.505   9.352
11677WAT     H135273   3.338   4.417   9.305
11677WAT     H235274   3.414   4.496   9.425
11678WAT      O35275   7.445   2.745   6.008
11678WAT     H135276   7.502   2.686   6.066
11678WAT     H235277   7.465   2.841   6.027
11679WAT      O35278   4.851   7.765   9.653
11679WAT     H135279   4.930   7.738   9.708
11679WAT     H235280   4.791   7.822   9.708
11680WAT      O35281   3.353   6.145   8.912
11680WAT     H135282   3.255   6.152   8.895
11680WAT     H235283   3.402   6.153   8.826
11681WAT      O35284   5.075   7.792   7.735
11681WAT     H135285   4.990   7.764   7.780
11681WAT     H235286   5.152   7.775   7.797
11682WAT      O35287   7.452   4.965   0.789
11682WAT     H135288   7.494   4.906   0.720
11682WAT     H235289   7.405   4.908   0.857
11683WAT      O35290   5.242   8.444   2.202
11683WAT     H135291   5.272   8.406   2.115
11683WAT     H235292   5.268   8.382   2.276
11684WAT      O35293   9.456   3.110   6.822
11684WAT     H135294   9.400   3.127   6.741
11684WAT     H235295   9.399   3.117   6.904
11685WAT      O35296   4.904   1.252   1.630
11685WAT     H135297   4.864   1.161   1.620
11685WAT     H235298   4.850   1.306   1.694
11686WAT      O35299   9.358   0.684   8.017
11686WAT     H135300   9.327   0.594   8.049
11686WAT     H235301   9.386   0.739   8.096
11687WAT      O35302   9.790   4.788   9.666
11687WAT     H135303   9.764   4.884   9.673
11687WAT     H235304   9.808   4.766   9.570
11688WAT      O35305   2.269   8.271   2.864
11688WAT     H135306   2.240   8.342   2.799
11688WAT     H235307   2.363   8.242   2.842
11689WAT      O35308   3.483   0.279   5.056
11689WAT     H135309   3.479   0.275   4.956
11689WAT     H235310   3.432   0.359   5.089
11690WAT      O35311   5.952   3.966   4.247
11690WAT     H135312   6.030   3.933   4.194
11690WAT     H235313   5.965   4.063   4.268
11691WAT      O35314   9.671   2.605   7.141
11691WAT     H135315   9.624   2.632   7.225
11691WAT     H235316   9.768   2.629   7.148
11692WAT      O35317   6.947   3.329   2.168
11692WAT     H135318   6.867   3.389   2.172
11692WAT     H235319   6.991   3.338   2.079
11693WAT      O35320   9.179   8.182   8.027
11693WAT     H135321   9.159   8.143   8.117
11693WAT     H235322   9.168   8.112   7.957
11694WAT      O35323   3.160   3.481   5.891
11694WAT     H135324   3.248   3.485   5.844
11694WAT     H235325   3.087   3.506   5.828
11695WAT      O35326   6.086   4.223   8.566
11695WAT     H135327   6.057   4.127   8.565
11695WAT     H235328   6.185   4.228   8.568
11696WAT      O35329   5.305   6.824   3.236
11696WAT     H135330   5.265   6.862   3.153
11696WAT     H235331   5.285   6.726   3.241
11697WAT      O35332   0.217   9.227   7.246
11697WAT     H135333   0.295   9.290   7.238
11697WAT     H235334   0.136   9.269   7.205
11698WAT      O35335   1.181   6.466   4.432
11698WAT     H135336   1.145   6.387   4.382
11698WAT     H235337   1.246   6.515   4.373
11699WAT      O35338   8.221   2.052   4.264
11699WAT     H135339   8.215   1.952   4.272
11699WAT     H235340   8.132   2.088   4.237
11700WAT      O35341   0.146   0.747   9.293
11700WAT     H135342   0.064   0.759   9.237
11700WAT     H235343   0.208   0.824   9.279
11701WAT      O35344   6.274   5.398   2.029
11701WAT     H135345   6.365   5.414   2.069
11701WAT     H235346   6.208   5.380   2.102
11702WAT      O35347   2.340   1.331   3.141
11702WAT     H135348   2.250   1.307   3.180
11702WAT     H235349   2.371   1.417   3.182
11703WAT      O35350   0.149   7.528   8.752
11703WAT     H135351   0.245   7.528   8.725
11703WAT     H235352   0.096   7.583   8.688
11704WAT      O35353   4.548   1.764   1.381
11704WAT     H135354   4.516   1.822   1.455
11704WAT     H235355   4.641   1.732   1.401
11705WAT      O35356   7.094   4.498   3.063
11705WAT     H135357   7.186   4.461   3.049
11705WAT     H235358   7.027   4.425   3.051
11706WAT      O35359   9.708   4.435   4.102
11706WAT     H135360   9.669   4.527   4.108
11706WAT     H235361   9.773   4.421   4.176
11707WAT      O35362   6.445   8.996   0.835
11707WAT     H135363   6.466   8.922   0.771
11707WAT     H235364   6.353   9.031   0.815
11708WAT      O35365   8.492   6.247   3.550
11708WAT     H135366   8.511   6.151   3.529
11708WAT     H235367   8.395   6.257   3.572
11709WAT      O35368   7.420   6.072   1.064
11709WAT     H135369   7.472   6.032   1.139
11709WAT     H235370   7.326   6.090   1.094
11710WAT      O35371   7.595   2.695   5.469
11710WAT     H135372   7.603   2.719   5.565
11710WAT     H235373   7.683   2.707   5.424
11711WAT      O35374   5.371   7.996   8.348
11711WAT     H135375   5.285   8.043   8.365
11711WAT     H235376   5.427   7.997   8.430
11712WAT      O35377   5.362   6.011   5.871
11712WAT     H135378   5.425   6.066   5.817
11712WAT     H235379   5.397   5.918   5.880
11713WAT      O35380   6.405   5.599   5.343
11713WAT     H135381   6.449   5.519   5.385
11713WAT     H235382   6.309   5.601   5.367
11714WAT      O35383   8.068   0.198   5.393
11714WAT     H135384   8.037   0.114   5.438
11714WAT     H235385   8.161   0.184   5.359
11715WAT      O35386   4.126   6.310   7.052
11715WAT     H135387   4.150   6.233   6.993
11715WAT     H235388   4.167   6.296   7.142
11716WAT      O35389   6.496   2.299   3.864
11716WAT     H135390   6.586   2.274   3.829
11716WAT     H235391   6.463   2.380   3.814
11717WAT      O35392   3.179   3.957   2.771
11717WAT     H135393   3.252   4.021   2.748
11717WAT     H235394   3.180   3.940   2.870
11718WAT      O35395   6.187   8.421   0.689
11718WAT     H135396   6.235   8.443   0.604
11718WAT     H235397   6.242   8.452   0.767
11719WAT      O35398   7.384   0.756   8.172
11719WAT     H135399   7.449   0.715   8.236
11719WAT     H235400   7.377   0.699   8.090
11720WAT      O35401   9.079   1.992   8.823
11720WAT     H135402   9.082   2.090   8.802
11720WAT     H235403   9.172   1.955   8.823
11721WAT      O35404   1.152   3.081   5.514
11721WAT     H135405   1.181   3.145   5.586
11721WAT     H235406   1.059   3.105   5.484
11722WAT      O35407   6.150   3.218   3.566
11722WAT     H135408   6.124   3.138   3.512
11722WAT     H235409   6.181   3.291   3.506
11723WAT      O35410   0.384   0.814   5.094
11723WAT     H135411   0.383   0.778   5.188
11723WAT     H235412   0.408   0.911   5.096
11724WAT      O35413   8.187   9.124   8.864
11724WAT     H135414   8.172   9.026   8.848
11724WAT     H235415   8.107   9.163   8.909
11725WAT      O35416   7.495   9.144   4.951
11725WAT     H135417   7.401   9.171   4.933
11725WAT     H235418   7.547   9.143   4.865
11726WAT      O35419   2.675   0.822   9.571
11726WAT     H135420   2.733   0.776   9.504
11726WAT     H235421   2.678   0.921   9.555
11727WAT      O35422   6.152   5.932   3.838
11727WAT     H135423   6.224   5.973   3.782
11727WAT     H235424   6.183   5.928   3.933
11728WAT      O35425   9.560   9.353   3.752
11728WAT     H135426   9.622   9.297   3.698
11728WAT     H235427   9.470   9.309   3.755
11729WAT      O35428   6.685   6.350   1.084
11729WAT     H135429   6.610   6.308   1.136
11729WAT     H235430   6.692   6.447   1.109
11730WAT      O35431   2.750   0.953   0.383
11730WAT     H135432   2.831   0.939   0.440
11730WAT     H235433   2.677   0.993   0.438
11731WAT      O35434   0.433   0.616   6.337
11731WAT     H135435   0.434   0.521   6.367
11731WAT     H235436   0.341   0.642   6.310
11732WAT      O35437   0.908   5.599   0.410
11732WAT     H135438   0.869   5.526   0.353
11732WAT     H235439   0.903   5.573   0.506
11733WAT      O35440   1.421   3.565   8.664
11733WAT     H135441   1.493   3.522   8.609
11733WAT     H235442   1.342   3.584   8.606
11734WAT      O35443   5.562   6.724   6.210
11734WAT     H135444   5.653   6.751   6.243
11734WAT     H235445   5.501   6.803   6.212
11735WAT      O35446   5.091   7.952   3.432
11735WAT     H135447   5.060   8.016   3.363
11735WAT     H235448   5.190   7.940   3.424
11736WAT      O35449   2.536   6.149   2.419
11736WAT     H135450   2.563   6.062   2.377
11736WAT     H235451   2.515   6.216   2.347
11737WAT      O35452   9.593   1.523   6.805
11737WAT     H135453   9.570   1.589   6.877
11737WAT     H235454   9.656   1.565   6.740
11738WAT      O35455   3.023   4.503   3.091
11738WAT     H135456   2.996   4.473   2.999
11738WAT     H235457   3.062   4.426   3.141
11739WAT      O35458   0.336   1.273   2.623
11739WAT     H135459   0.298   1.216   2.550
11739WAT     H235460   0.299   1.244   2.711
11740WAT      O35461   2.234   1.054   6.214
11740WAT     H135462   2.260   0.967   6.172
11740WAT     H235463   2.144   1.082   6.181
11741WAT      O35464   7.625   6.463   3.692
11741WAT     H135465   7.632   6.486   3.594
11741WAT     H235466   7.669   6.535   3.746
11742WAT      O35467   6.143   6.168   8.203
11742WAT     H135468   6.095   6.214   8.278
11742WAT     H235469   6.236   6.205   8.195
11743WAT      O35470   2.520   1.773   3.937
11743WAT     H135471   2.424   1.745   3.930
11743WAT     H235472   2.561   1.732   4.019
11744WAT      O35473   7.872   5.855   1.623
11744WAT     H135474   7.813   5.866   1.703
11744WAT     H235475   7.864   5.936   1.565
11745WAT      O35476   4.240   8.923   2.815
11745WAT     H135477   4.264   8.918   2.718
11745WAT     H235478   4.320   8.949   2.868
11746WAT      O35479   4.622   6.534   3.331
11746WAT     H135480   4.638   6.447   3.378
11746WAT     H235481   4.539   6.527   3.275
11747WAT      O35482   1.436   5.735   6.619
11747WAT     H135483   1.339   5.755   6.607
11747WAT     H235484   1.461   5.658   6.559
11748WAT      O35485   9.099   5.384   9.157
11748WAT     H135486   9.188   5.410   9.194
11748WAT     H235487   9.043   5.342   9.228
11749WAT      O35488   6.534   4.765   1.262
11749WAT     H135489   6.574   4.854   1.283
11749WAT     H235490   6.464   4.743   1.330
11750WAT      O35491   8.965   6.863   7.795
11750WAT     H135492   8.910   6.793   7.750
11750WAT     H235493   8.926   6.886   7.883
11751WAT      O35494   9.650   2.741   7.815
11751WAT     H135495   9.650   2.841   7.809
11751WAT     H235496   9.568   2.711   7.864
11752WAT      O35497   4.465   8.840   5.450
11752WAT     H135498   4.491   8.744   5.456
11752WAT     H235499   4.388   8.850   5.387
11753WAT      O35500   7.164   9.425   2.196
11753WAT     H135501   7.160   9.328   2.176
11753WAT     H235502   7.255   9.448   2.233
11754WAT      O35503   1.288   4.896   9.071
11754WAT     H135504   1.378   4.922   9.035
11754WAT     H235505   1.218   4.912   9.001
11755WAT      O35506   7.696   4.211   2.094
11755WAT     H135507   7.757   4.276   2.048
11755WAT     H235508   7.631   4.174   2.027
11756WAT      O35509   2.932   6.879   6.047
11756WAT     H135510   2.881   6.933   6.113
11756WAT     H235511   2.869   6.828   5.989
11757WAT      O35512   4.894   8.004   4.654
11757WAT     H135513   4.820   7.988   4.720
11757WAT     H235514   4.982   7.989   4.699
11758WAT      O35515   4.339   9.293   3.671
11758WAT     H135516   4.402   9.325   3.601
11758WAT     H235517   4.384   9.221   3.725
11759WAT      O35518   8.793   0.606   7.472
11759WAT     H135519   8.794   0.536   7.401
11759WAT     H235520   8.857   0.679   7.448
11760WAT      O35521   4.558   9.106   0.335
11760WAT     H135522   4.505   9.073   0.414
11760WAT     H235523   4.508   9.181   0.291
11761WAT      O35524   8.706   2.334   2.195
11761WAT     H135525   8.653   2.354   2.113
11761WAT     H235526   8.786   2.393   2.199
11762WAT      O35527   0.507   8.710   0.679
11762WAT     H135528   0.521   8.685   0.775
11762WAT     H235529   0.575   8.662   0.623
11763WAT      O35530   0.242   5.841   1.780
11763WAT     H135531   0.320   5.836   1.718
11763WAT     H235532   0.223   5.751   1.818
11764WAT      O35533   3.906   4.720   2.062
11764WAT     H135534   3.940   4.795   2.118
11764WAT     H235535   3.947   4.725   1.971
11765WAT      O35536   7.115   3.633   0.088
11765WAT     H135537   7.078   3.623   0.181
11765WAT     H235538   7.210   3.604   0.087
11766WAT      O35539   0.180   0.901   6.500
11766WAT     H135540   0.261   0.945   6.462
11766WAT     H235541   0.102   0.963   6.493
11767WAT      O35542   4.348   7.460   7.543
11767WAT     H135543   4.353   7.360   7.535
11767WAT     H235544   4.255   7.487   7.569
11768WAT      O35545   6.561   1.436   0.582
11768WAT     H135546   6.504   1.404   0.658
11768WAT     H235547   6.635   1.371   0.568
11769WAT      O35548   4.547   7.844   7.371
11769WAT     H135549   4.543   7.749   7.341
11769WAT     H235550   4.456   7.885   7.362
11770WAT      O35551   1.771   3.607   8.199
11770WAT     H135552   1.685   3.623   8.149
11770WAT     H235553   1.783   3.678   8.268
11771WAT      O35554   4.606   0.746   9.412
11771WAT     H135555   4.656   0.670   9.454
11771WAT     H235556   4.670   0.804   9.361
11772WAT      O35557   6.079   0.750   1.420
11772WAT     H135558   6.068   0.822   1.351
11772WAT     H235559   6.007   0.759   1.489
11773WAT      O35560   7.711   1.297   5.771
11773WAT     H135561   7.641   1.365   5.748
11773WAT     H235562   7.750   1.318   5.860
11774WAT      O35563   5.715   9.535   9.332
11774WAT     H135564   5.667   9.562   9.415
11774WAT     H235565   5.691   9.441   9.308
11775WAT      O35566   7.713   3.975   1.536
11775WAT     H135567   7.799   3.984   1.587
11775WAT     H235568   7.709   4.045   1.465
11776WAT      O35569   8.120   7.358   7.572
11776WAT     H135570   8.082   7.449   7.553
11776WAT     H235571   8.152   7.355   7.666
11777WAT      O35572   6.425   2.005   6.698
11777WAT     H135573   6.352   2.071   6.713
11777WAT     H235574   6.418   1.968   6.605
11778WAT      O35575   8.164   8.501   4.732
11778WAT     H135576   8.208   8.560   4.664
11778WAT     H235577   8.175   8.405   4.706
11779WAT      O35578   1.540   5.452   5.706
11779WAT     H135579   1.632   5.423   5.734
11779WAT     H235580   1.523   5.424   5.612
11780WAT      O35581   9.485   0.346   4.949
11780WAT     H135582   9.532   0.283   4.887
11780WAT     H235583   9.393   0.312   4.969
11781WAT      O35584   8.557   6.109   9.674
11781WAT     H135585   8.595   6.152   9.592
11781WAT     H235586   8.475   6.159   9.703
11782WAT      O35587   6.078   7.209   0.200
11782WAT     H135588   6.048   7.220   0.106
11782WAT     H235589   6.116   7.295   0.234
11783WAT      O35590   8.610   3.260   4.630
11783WAT     H135591   8.556   3.178   4.649
11783WAT     H235592   8.551   3.341   4.639
11784WAT      O35593   1.573   5.337   7.801
11784WAT     H135594   1.623   5.306   7.720
11784WAT     H235595   1.637   5.373   7.868
11785WAT      O35596   8.772   7.625   4.923
11785WAT     H135597   8.781   7.575   4.836
11785WAT     H235598   8.688   7.595   4.969
11786WAT      O35599   7.256   9.634   7.884
11786WAT     H135600   7.321   9.625   7.809
11786WAT     H235601   7.178   9.574   7.868
11787WAT      O35602   7.487   1.067   4.627
11787WAT     H135603   7.548   1.092   4.553
11787WAT     H235604   7.529   0.996   4.683
11788WAT      O35605   3.133   9.588   5.052
11788WAT     H135606   3.056   9.524   5.047
11788WAT     H235607   3.146   9.631   4.962
11789WAT      O35608   0.151   2.137   0.339
11789WAT     H135609   0.176   2.153   0.244
11789WAT     H235610   0.232   2.110   0.391
11790WAT      O35611   7.064   1.828   9.594
11790WAT     H135612   7.039   1.836   9.498
11790WAT     H235613   7.011   1.895   9.647
11791WAT      O35614   4.759   9.293   5.079
11791WAT     H135615   4.805   9.382   5.071
11791WAT     H235616   4.791   9.233   5.006
11792WAT      O35617   6.256   0.102   6.877
11792WAT     H135618   6.250   0.202   6.878
11792WAT     H235619   6.186   0.064   6.937
11793WAT      O35620   9.841   6.923   6.652
11793WAT     H135621   9.860   6.832   6.690
11793WAT     H235622   9.912   6.948   6.587
11794WAT      O35623   1.906   5.978   4.211
11794WAT     H135624   1.885   5.968   4.308
11794WAT     H235625   1.894   5.890   4.165
11795WAT      O35626   9.338   4.688   3.333
11795WAT     H135627   9.373   4.617   3.393
11795WAT     H235628   9.260   4.732   3.376
11796WAT      O35629   0.233   1.138   2.841
11796WAT     H135630   0.148   1.109   2.794
11796WAT     H235631   0.233   1.103   2.934
11797WAT      O35632   1.377   9.844   9.816
11797WAT     H135633   1.388   9.827   9.914
11797WAT     H235634   1.289   9.808   9.785
11798WAT      O35635   5.552   1.968   1.977
11798WAT     H135636   5.562   2.038   2.047
11798WAT     H235637   5.559   1.877   2.019
11799WAT      O35638   7.285   7.389   0.984
11799WAT     H135639   7.262   7.311   0.927
11799WAT     H235640   7.344   7.360   1.059
11800WAT      O35641   9.526   0.490   1.242
11800WAT     H135642   9.492   0.468   1.334
11800WAT     H235643   9.465   0.450   1.174
11801WAT      O35644   4.295   4.690   9.777
11801WAT     H135645   4.247   4.634   9.845
11801WAT     H235646   4.393   4.671   9.782
11802WAT      O35647   5.711   0.770   9.679
11802WAT     H135648   5.686   0.680   9.644
11802WAT     H235649   5.649   0.796   9.753
11803WAT      O35650   2.426   9.263   7.549
11803WAT     H135651   2.403   9.288   7.455
11803WAT     H235652   2.376   9.322   7.613
11804WAT      O35653   6.633   0.448   2.515
11804WAT     H135654   6.591   0.440   2.424
11804WAT     H235655   6.566   0.482   2.580
11805WAT      O35656   6.156   4.371   5.302
11805WAT     H135657   6.100   4.416   5.233
11805WAT     H235658   6.166   4.275   5.279
11806WAT      O35659   6.415   7.835   2.864
11806WAT     H135660   6.508   7.866   2.883
11806WAT     H235661   6.353   7.870   2.934
11807WAT      O35662   9.559   7.884   4.110
11807WAT     H135663   9.639   7.824   4.109
11807WAT     H235664   9.589   7.980   4.119
11808WAT      O35665   9.333   2.714   5.945
11808WAT     H135666   9.418   2.693   5.898
11808WAT     H235667   9.332   2.811   5.971
11809WAT      O35668   9.430   6.442   1.675
11809WAT     H135669   9.491   6.363   1.668
11809WAT     H235670   9.416   6.466   1.771
11810WAT      O35671   3.978   0.278   3.595
11810WAT     H135672   4.030   0.291   3.510
11810WAT     H235673   4.037   0.235   3.664
11811WAT      O35674   5.584   5.705   0.631
11811WAT     H135675   5.576   5.667   0.539
11811WAT     H235676   5.497   5.695   0.678
11812WAT      O35677   1.510   7.519   5.230
11812WAT     H135678   1.583   7.465   5.189
11812WAT     H235679   1.443   7.543   5.160
11813WAT      O35680   5.081   0.835   6.893
11813WAT     H135681   5.101   0.920   6.942
11813WAT     H235682   5.116   0.757   6.945
11814WAT      O35683   2.821   3.073   1.844
11814WAT     H135684   2.740   3.065   1.785
11814WAT     H235685   2.817   3.159   1.894
11815WAT      O35686   0.865   0.788   4.287
11815WAT     H135687   0.869   0.782   4.188
11815WAT     H235688   0.853   0.884   4.315
11816WAT      O35689   6.525   1.891   7.302
11816WAT     H135690   6.555   1.896   7.207
11816WAT     H235691   6.468   1.970   7.324
11817WAT      O35692   7.241   5.165   7.437
11817WAT     H135693   7.288   5.179   7.350
11817WAT     H235694   7.188   5.081   7.434
11818WAT      O35695   6.193   4.464   3.453
11818WAT     H135696   6.227   4.378   3.413
11818WAT     H235697   6.103   4.448   3.494
11819WAT      O35698   9.092   6.562   2.082
11819WAT     H135699   9.044   6.631   2.135
11819WAT     H235700   9.171   6.529   2.134
11820WAT      O35701   7.352   6.163   2.700
11820WAT     H135702   7.389   6.234   2.759
11820WAT     H235703   7.270   6.124   2.742
11821WAT      O35704   9.674   5.374   4.698
11821WAT     H135705   9.637   5.424   4.776
11821WAT     H235706   9.769   5.400   4.683
11822WAT      O35707   7.700   3.233   3.609
11822WAT     H135708   7.758   3.165   3.654
11822WAT     H235709   7.624   3.186   3.564
11823WAT      O35710   6.773   1.917   8.377
11823WAT     H135711   6.826   1.840   8.412
11823WAT     H235712   6.676   1.901   8.396
11824WAT      O35713   9.852   2.345   7.187
11824WAT     H135714   9.812   2.338   7.278
11824WAT     H235715   9.860   2.253   7.148
11825WAT      O35716   5.682   0.717   8.560
11825WAT     H135717   5.774   0.692   8.592
11825WAT     H235718   5.652   0.799   8.608
11826WAT      O35719   1.893   0.767   9.394
11826WAT     H135720   1.956   0.808   9.459
11826WAT     H235721   1.858   0.681   9.431
11827WAT      O35722   4.849   0.449   1.763
11827WAT     H135723   4.774   0.407   1.711
11827WAT     H235724   4.930   0.390   1.757
11828WAT      O35725   0.801   2.587   7.896
11828WAT     H135726   0.732   2.607   7.966
11828WAT     H235727   0.867   2.521   7.933
11829WAT      O35728   5.018   8.687   2.697
11829WAT     H135729   5.059   8.749   2.764
11829WAT     H235730   5.068   8.693   2.611
11830WAT      O35731   5.401   4.824   9.074
11830WAT     H135732   5.430   4.775   8.992
11830WAT     H235733   5.426   4.772   9.155
11831WAT      O35734   8.318   4.639   6.668
11831WAT     H135735   8.308   4.737   6.682
11831WAT     H235736   8.298   4.616   6.573
11832WAT      O35737   3.774   9.734   5.209
11832WAT     H135738   3.756   9.693   5.120
11832WAT     H235739   3.836   9.676   5.262
11833WAT      O35740   7.216   9.274   3.982
11833WAT     H135741   7.225   9.357   3.927
11833WAT     H235742   7.238   9.195   3.926
11834WAT      O35743   9.709   5.073   2.360
11834WAT     H135744   9.680   5.094   2.266
11834WAT     H235745   9.702   4.975   2.376
11835WAT      O35746   0.301   4.387   4.639
11835WAT     H135747   0.256   4.443   4.569
11835WAT     H235748   0.252   4.301   4.649
11836WAT      O35749   9.665   1.351   1.894
11836WAT     H135750   9.668   1.450   1.887
11836WAT     H235751   9.570   1.320   1.899
11837WAT      O35752   5.970   8.444   3.111
11837WAT     H135753   5.964   8.392   3.026
11837WAT     H235754   5.925   8.393   3.184
11838WAT      O35755   2.522   6.213   4.702
11838WAT     H135756   2.475   6.163   4.630
11838WAT     H235757   2.463   6.286   4.736
11839WAT      O35758   6.821   5.173   5.492
11839WAT     H135759   6.831   5.273   5.491
11839WAT     H235760   6.875   5.136   5.568
11840WAT      O35761   4.127   4.872   5.679
11840WAT     H135762   4.098   4.787   5.636
11840WAT     H235763   4.077   4.949   5.639
11841WAT      O35764   5.647   9.750   0.875
11841WAT     H135765   5.632   9.842   0.912
11841WAT     H235766   5.564   9.696   0.885
11842WAT      O35767   2.664   8.613   7.400
11842WAT     H135768   2.698   8.635   7.492
11842WAT     H235769   2.568   8.640   7.393
11843WAT      O35770   4.418   6.190   1.854
11843WAT     H135771   4.371   6.267   1.809
11843WAT     H235772   4.380   6.176   1.945
11844WAT      O35773   1.950   0.943   6.584
11844WAT     H135774   1.901   0.931   6.670
11844WAT     H235775   1.886   0.935   6.507
11845WAT      O35776   9.064   4.119   4.978
11845WAT     H135777   9.045   4.213   4.948
11845WAT     H235778   9.163   4.105   4.984
11846WAT      O35779   2.391   4.549   7.725
11846WAT     H135780   2.318   4.512   7.783
11846WAT     H235781   2.476   4.500   7.744
11847WAT      O35782   2.812   4.052   5.209
11847WAT     H135783   2.787   3.973   5.153
11847WAT     H235784   2.850   4.124   5.150
11848WAT      O35785   4.397   8.623   5.036
11848WAT     H135786   4.454   8.551   5.076
11848WAT     H235787   4.302   8.607   5.060
11849WAT      O35788   5.682   7.490   6.137
11849WAT     H135789   5.710   7.580   6.172
11849WAT     H235790   5.763   7.434   6.120
11850WAT      O35791   2.110   2.279   5.560
11850WAT     H135792   2.039   2.237   5.616
11850WAT     H235793   2.069   2.345   5.497
11851WAT      O35794   5.825   3.157   6.517
11851WAT     H135795   5.865   3.230   6.461
11851WAT     H235796   5.732   3.138   6.485
11852WAT      O35797   9.823   6.253   5.478
11852WAT     H135798   9.723   6.256   5.485
11852WAT     H235799   9.857   6.343   5.452
11853WAT      O35800   7.282   5.862   0.191
11853WAT     H135801   7.188   5.829   0.197
11853WAT     H235802   7.322   5.866   0.283
11854WAT      O35803   4.230   4.418   3.507
11854WAT     H135804   4.164   4.357   3.463
11854WAT     H235805   4.315   4.368   3.524
11855WAT      O35806   7.401   6.685   4.586
11855WAT     H135807   7.476   6.625   4.559
11855WAT     H235808   7.367   6.658   4.677
11856WAT      O35809   2.417   4.147   9.538
11856WAT     H135810   2.362   4.125   9.457
11856WAT     H235811   2.356   4.156   9.617
11857WAT      O35812   0.064   6.374   9.861
11857WAT     H135813   0.031   6.283   9.885
11857WAT     H235814   0.001   6.417   9.796
11858WAT      O35815   7.142   5.144   5.939
11858WAT     H135816   7.095   5.224   5.977
11858WAT     H235817   7.130   5.067   6.001
11859WAT      O35818   2.945   2.984   2.262
11859WAT     H135819   2.964   2.896   2.306
11859WAT     H235820   2.987   2.986   2.171
11860WAT      O35821   0.490   0.981   2.820
11860WAT     H135822   0.480   0.887   2.789
11860WAT     H235823   0.400   1.018   2.844
11861WAT      O35824   4.849   5.705   9.436
11861WAT     H135825   4.819   5.716   9.341
11861WAT     H235826   4.845   5.608   9.461
11862WAT      O35827   3.422   1.502   1.412
11862WAT     H135828   3.347   1.539   1.357
11862WAT     H235829   3.463   1.576   1.466
11863WAT      O35830   3.641   7.128   5.514
11863WAT     H135831   3.726   7.083   5.487
11863WAT     H235832   3.594   7.163   5.432
11864WAT      O35833   8.992   5.125   2.163
11864WAT     H135834   8.908   5.078   2.187
11864WAT     H235835   9.025   5.178   2.241
11865WAT      O35836   1.672   0.751   3.651
11865WAT     H135837   1.601   0.812   3.684
11865WAT     H235838   1.701   0.690   3.724
11866WAT      O35839   6.665   5.643   3.524
11866WAT     H135840   6.764   5.644   3.506
11866WAT     H235841   6.619   5.706   3.462
11867WAT      O35842   3.826   9.197   3.761
11867WAT     H135843   3.833   9.127   3.831
11867WAT     H235844   3.885   9.174   3.684
11868WAT      O35845   3.081   2.459   3.264
11868WAT     H135846   3.111   2.523   3.335
11868WAT     H235847   3.142   2.380   3.262
11869WAT      O35848   7.962   6.550   1.776
11869WAT     H135849   7.887   6.517   1.719
11869WAT     H235850   8.029   6.596   1.717
11870WAT      O35851   8.987   4.309   9.706
11870WAT     H135852   8.998   4.394   9.654
11870WAT     H235853   8.967   4.332   9.802
11871WAT      O35854   5.505   7.753   6.659
11871WAT     H135855   5.437   7.698   6.612
11871WAT     H235856   5.585   7.765   6.600
11872WAT      O35857   6.112   9.276   7.279
11872WAT     H135858   6.041   9.271   7.210
11872WAT     H235859   6.117   9.369   7.316
11873WAT      O35860   4.865   1.219   0.157
11873WAT     H135861   4.841   1.304   0.205
11873WAT     H235862   4.798   1.148   0.179
11874WAT      O35863   8.776   7.810   8.670
11874WAT     H135864   8.837   7.810   8.750
11874WAT     H235865   8.731   7.899   8.662
11875WAT      O35866   4.355   1.160   0.343
11875WAT     H135867   4.335   1.247   0.389
11875WAT     H235868   4.286   1.092   0.368
11876WAT      O35869   1.244   2.487   1.641
11876WAT     H135870   1.162   2.429   1.645
11876WAT     H235871   1.280   2.501   1.733
11877WAT      O35872   6.108   2.994   9.876
11877WAT     H135873   6.107   3.012   9.975
11877WAT     H235874   6.020   3.021   9.837
11878WAT      O35875   3.407   2.349   8.954
11878WAT     H135876   3.441   2.292   8.879
11878WAT     H235877   3.316   2.383   8.931
11879WAT      O35878   3.991   0.805   1.163
11879WAT     H135879   3.990   0.892   1.213
11879WAT     H235880   3.986   0.823   1.065
11880WAT      O35881   0.513   1.068   0.582
11880WAT     H135882   0.476   1.028   0.666
11880WAT     H235883   0.602   1.109   0.601
11881WAT      O35884   3.101   4.687   2.401
11881WAT     H135885   3.073   4.594   2.422
11881WAT     H235886   3.177   4.714   2.461
11882WAT      O35887   2.219   0.133   5.323
11882WAT     H135888   2.273   0.205   5.366
11882WAT     H235889   2.189   0.164   5.232
11883WAT      O35890   4.734   3.006   9.718
11883WAT     H135891   4.708   2.911   9.703
11883WAT     H235892   4.680   3.066   9.658
11884WAT      O35893   0.578   4.840   7.513
11884WAT     H135894   0.536   4.839   7.603
11884WAT     H235895   0.612   4.749   7.490
11885WAT      O35896   4.004   9.131   6.631
11885WAT     H135897   3.954   9.177   6.705
11885WAT     H235898   4.064   9.197   6.586
11886WAT      O35899   4.352   4.415   4.796
11886WAT     H135900   4.400   4.371   4.721
11886WAT     H235901   4.406   4.406   4.880
11887WAT      O35902   7.644   7.257   5.591
11887WAT     H135903   7.549   7.242   5.618
11887WAT     H235904   7.651   7.342   5.538
11888WAT      O35905   2.726   3.275   8.380
11888WAT     H135906   2.655   3.327   8.428
11888WAT     H235907   2.773   3.215   8.445
11889WAT      O35908   9.128   1.637   6.529
11889WAT     H135909   9.092   1.719   6.574
11889WAT     H235910   9.088   1.628   6.438
11890WAT      O35911   8.440   8.143   4.728
11890WAT     H135912   8.517   8.208   4.736
11890WAT     H235913   8.466   8.056   4.770
11891WAT      O35914   6.577   8.674   2.828
11891WAT     H135915   6.478   8.681   2.829
11891WAT     H235916   6.607   8.620   2.908
11892WAT      O35917   6.664   3.080   8.915
11892WAT     H135918   6.623   3.058   9.004
11892WAT     H235919   6.592   3.094   8.848
11893WAT      O35920   3.173   8.678   2.495
11893WAT     H135921   3.170   8.765   2.445
11893WAT     H235922   3.093   8.623   2.472
11894WAT      O35923   2.529   5.566   0.770
11894WAT     H135924   2.583   5.559   0.686
11894WAT     H235925   2.440   5.524   0.756
11895WAT      O35926   7.752   3.694   3.175
11895WAT     H135927   7.673   3.667   3.231
11895WAT     H235928   7.772   3.791   3.189
11896WAT      O35929   1.639   7.701   5.649
11896WAT     H135930   1.626   7.788   5.602
11896WAT     H235931   1.612   7.626   5.588
11897WAT      O35932   7.582   7.587   4.023
11897WAT     H135933   7.524   7.603   4.103
11897WAT     H235934   7.576   7.666   3.962
11898WAT      O35935   5.525   2.809   8.533
11898WAT     H135936   5.528   2.904   8.502
11898WAT     H235937   5.460   2.800   8.608
11899WAT      O35938   8.821   5.544   7.297
11899WAT     H135939   8.824   5.643   7.290
11899WAT     H235940   8.894   5.512   7.357
11900WAT      O35941   7.686   2.594   0.996
11900WAT     H135942   7.589   2.606   1.021
11900WAT     H235943   7.738   2.672   1.028
11901WAT      O35944   6.107   8.682   4.938
11901WAT     H135945   6.090   8.586   4.916
11901WAT     H235946   6.205   8.699   4.941
11902WAT      O35947   3.660   7.783   6.234
11902WAT     H135948   3.631   7.726   6.311
11902WAT     H235949   3.652   7.731   6.149
11903WAT      O35950   0.250   5.535   7.942
11903WAT     H135951   0.173   5.593   7.967
11903WAT     H235952   0.287   5.564   7.854
11904WAT      O35953   1.409   5.139   9.472
11904WAT     H135954   1.437   5.210   9.537
11904WAT     H235955   1.311   5.146   9.454
11905WAT      O35956   6.702   7.417   0.347
11905WAT     H135957   6.717   7.434   0.444
11905WAT     H235958   6.772   7.464   0.294
11906WAT      O35959   2.812   7.393   3.556
11906WAT     H135960   2.817   7.491   3.575
11906WAT     H235961   2.814   7.377   3.457
11907WAT      O35962   9.466   1.280   2.648
11907WAT     H135963   9.444   1.369   2.688
11907WAT     H235964   9.432   1.276   2.554
11908WAT      O35965   4.781   1.459   0.271
11908WAT     H135966   4.683   1.467   0.253
11908WAT     H235967   4.826   1.546   0.250
11909WAT      O35968   2.547   5.734   8.405
11909WAT     H135969   2.504   5.678   8.334
11909WAT     H235970   2.644   5.745   8.385
11910WAT      O35971   7.183   3.575   7.700
11910WAT     H135972   7.170   3.477   7.684
11910WAT     H235973   7.094   3.621   7.702
11911WAT      O35974   1.529   4.467   2.663
11911WAT     H135975   1.541   4.541   2.730
11911WAT     H235976   1.435   4.434   2.665
11912WAT      O35977   3.796   4.764   3.773
11912WAT     H135978   3.743   4.724   3.698
11912WAT     H235979   3.774   4.861   3.782
11913WAT      O35980   6.535   6.965   6.538
11913WAT     H135981   6.480   7.021   6.600
11913WAT     H235982   6.589   7.025   6.479
11914WAT      O35983   6.034   5.796   6.636
11914WAT     H135984   6.097   5.781   6.560
11914WAT     H235985   6.039   5.892   6.664
11915WAT      O35986   3.209   1.790   8.957
11915WAT     H135987   3.154   1.861   8.912
11915WAT     H235988   3.305   1.817   8.956
11916WAT      O35989   8.218   2.196   0.338
11916WAT     H135990   8.310   2.227   0.313
11916WAT     H235991   8.190   2.242   0.422
11917WAT      O35992   2.174   5.868   3.082
11917WAT     H135993   2.202   5.910   2.996
11917WAT     H235994   2.229   5.905   3.157
11918WAT      O35995   9.803   3.642   9.881
11918WAT     H135996   9.719   3.688   9.852
11918WAT     H235997   9.810   3.644   9.981
11919WAT      O35998   0.898   5.263   0.584
11919WAT     H135999   0.900   5.250   0.484
11919WAT     H236000   0.989   5.248   0.621
11920WAT      O36001   8.232   2.866   0.398
11920WAT     H136002   8.245   2.837   0.304
11920WAT     H236003   8.161   2.811   0.441
11921WAT      O36004   3.197   1.574   1.263
11921WAT     H136005   3.117   1.627   1.236
11921WAT     H236006   3.262   1.571   1.188
11922WAT      O36007   8.024   7.937   6.397
11922WAT     H136008   8.099   7.987   6.354
11922WAT     H236009   7.982   7.875   6.330
11923WAT      O36010   6.878   8.235   9.794
11923WAT     H136011   6.856   8.161   9.857
11923WAT     H236012   6.904   8.316   9.847
11924WAT      O36013   3.838   1.408   9.513
11924WAT     H136014   3.920   1.467   9.510
11924WAT     H236015   3.864   1.316   9.542
11925WAT      O36016   7.263   3.914   0.818
11925WAT     H136017   7.357   3.933   0.848
11925WAT     H236018   7.200   3.974   0.866
11926WAT      O36019   4.325   3.835   9.080
11926WAT     H136020   4.297   3.913   9.136
11926WAT     H236021   4.282   3.842   8.990
11927WAT      O36022   1.994   4.178   1.000
11927WAT     H136023   1.958   4.240   1.070
11927WAT     H236024   1.935   4.182   0.919
11928WAT      O36025   8.886   8.613   8.987
11928WAT     H136026   8.791   8.586   8.976
11928WAT     H236027   8.894   8.712   8.974
11929WAT      O36028   5.422   1.695   4.673
11929WAT     H136029   5.329   1.731   4.676
11929WAT     H236030   5.457   1.688   4.767
11930WAT      O36031   1.781   5.450   3.981
11930WAT     H136032   1.764   5.488   3.890
11930WAT     H236033   1.719   5.494   4.047
11931WAT      O36034   6.787   8.467   5.872
11931WAT     H136035   6.689   8.482   5.861
11931WAT     H236036   6.804   8.371   5.896
11932WAT      O36037   8.448   7.264   7.577
11932WAT     H136038   8.401   7.222   7.499
11932WAT     H236039   8.522   7.322   7.543
11933WAT      O36040   7.281   2.592   0.285
11933WAT     H136041   7.335   2.510   0.266
11933WAT     H236042   7.342   2.671   0.289
11934WAT      O36043   0.700   7.453   0.525
11934WAT     H136044   0.732   7.393   0.451
11934WAT     H236045   0.723   7.548   0.503
11935WAT      O36046   6.320   4.752   8.954
11935WAT     H136047   6.268   4.806   9.020
11935WAT     H236048   6.304   4.654   8.971
11936WAT      O36049   2.397   8.311   6.795
11936WAT     H136050   2.388   8.317   6.696
11936WAT     H236051   2.397   8.215   6.823
11937WAT      O36052   1.593   8.517   6.809
11937WAT     H136053   1.671   8.455   6.821
11937WAT     H236054   1.523   8.497   6.877
11938WAT      O36055   4.022   0.095   0.333
11938WAT     H136056   4.101   0.128   0.383
11938WAT     H236057   3.955   0.057   0.396
11939WAT      O36058   5.163   1.707   2.490
11939WAT     H136059   5.182   1.743   2.399
11939WAT     H236060   5.134   1.612   2.483
11940WAT      O36061   8.606   1.979   8.200
11940WAT     H136062   8.548   1.991   8.120
11940WAT     H236063   8.550   1.977   8.282
11941WAT      O36064   8.750   1.827   8.654
11941WAT     H136065   8.803   1.895   8.603
11941WAT     H236066   8.744   1.855   8.750
11942WAT      O36067   9.055   8.422   7.585
11942WAT     H136068   9.005   8.346   7.627
11942WAT     H236069   8.993   8.473   7.525
11943WAT      O36070   5.056   6.549   4.196
11943WAT     H136071   4.968   6.595   4.187
11943WAT     H236072   5.128   6.606   4.156
11944WAT      O36073   7.599   5.137   1.666
11944WAT     H136074   7.536   5.108   1.594
11944WAT     H236075   7.555   5.209   1.721
11945WAT      O36076   5.941   1.152   1.601
11945WAT     H136077   5.968   1.076   1.661
11945WAT     H236078   5.999   1.153   1.520
11946WAT      O36079   9.266   3.926   7.187
11946WAT     H136080   9.301   4.017   7.168
11946WAT     H236081   9.166   3.927   7.183
11947WAT      O36082   1.230   6.852   1.845
11947WAT     H136083   1.219   6.873   1.748
11947WAT     H236084   1.282   6.767   1.854
11948WAT      O36085   2.328   9.313   3.020
11948WAT     H136086   2.352   9.408   3.035
11948WAT     H236087   2.232   9.298   3.046
11949WAT      O36088   4.856   5.853   8.948
11949WAT     H136089   4.848   5.800   9.033
11949WAT     H236090   4.853   5.951   8.970
11950WAT      O36091   0.197   0.451   7.019
11950WAT     H136092   0.229   0.358   7.037
11950WAT     H236093   0.264   0.499   6.963
11951WAT      O36094   9.823   5.629   0.569
11951WAT     H136095   9.833   5.651   0.666
11951WAT     H236096   9.738   5.670   0.535
11952WAT      O36097   3.265   9.748   5.601
11952WAT     H136098   3.260   9.731   5.502
11952WAT     H236099   3.330   9.684   5.642
11953WAT      O36100   0.384   4.612   7.725
11953WAT     H136101   0.443   4.566   7.658
11953WAT     H236102   0.290   4.614   7.691
11954WAT      O36103   3.029   0.267   6.966
11954WAT     H136104   2.941   0.310   6.950
11954WAT     H236105   3.047   0.199   6.895
11955WAT      O36106   7.299   8.332   7.292
11955WAT     H136107   7.343   8.418   7.268
11955WAT     H236108   7.200   8.339   7.279
11956WAT      O36109   5.546   6.318   8.062
11956WAT     H136110   5.577   6.246   8.001
11956WAT     H236111   5.454   6.348   8.036
11957WAT      O36112   2.682   3.321   2.322
11957WAT     H136113   2.693   3.415   2.355
11957WAT     H236114   2.771   3.278   2.313
11958WAT      O36115   5.034   0.288   4.068
11958WAT     H136116   5.082   0.279   4.155
11958WAT     H236117   4.980   0.205   4.051
11959WAT      O36118   6.495   4.394   1.710
11959WAT     H136119   6.495   4.400   1.810
11959WAT     H236120   6.414   4.441   1.674
11960WAT      O36121   9.786   1.289   5.051
11960WAT     H136122   9.837   1.367   5.087
11960WAT     H236123   9.688   1.309   5.057
11961WAT      O36124   8.334   9.246   4.350
11961WAT     H136125   8.267   9.185   4.307
11961WAT     H236126   8.420   9.197   4.362
11962WAT      O36127   2.156   2.317   2.794
11962WAT     H136128   2.217   2.377   2.742
11962WAT     H236129   2.066   2.316   2.751
11963WAT      O36130   4.596   2.440   6.139
11963WAT     H136131   4.679   2.472   6.094
11963WAT     H236132   4.516   2.476   6.092
11964WAT      O36133   7.986   7.346   7.883
11964WAT     H136134   8.080   7.379   7.879
11964WAT     H236135   7.944   7.374   7.970
11965WAT      O36136   7.962   2.151   1.943
11965WAT     H136137   7.964   2.139   2.042
11965WAT     H236138   8.049   2.123   1.904
11966WAT      O36139   4.901   2.614   5.494
11966WAT     H136140   4.984   2.662   5.522
11966WAT     H236141   4.883   2.633   5.397
11967WAT      O36142   8.336   8.815   8.628
11967WAT     H136143   8.248   8.803   8.674
11967WAT     H236144   8.329   8.783   8.533
11968WAT      O36145   2.241   6.876   6.700
11968WAT     H136146   2.205   6.824   6.778
11968WAT     H236147   2.171   6.940   6.668
11969WAT      O36148   3.494   3.064   5.774
11969WAT     H136149   3.573   3.074   5.713
11969WAT     H236150   3.452   2.975   5.759
11970WAT      O36151   5.297   4.717   2.224
11970WAT     H136152   5.265   4.628   2.190
11970WAT     H236153   5.219   4.769   2.259
11971WAT      O36154   3.910   7.678   9.371
11971WAT     H136155   3.821   7.717   9.395
11971WAT     H236156   3.914   7.663   9.272
11972WAT      O36157   6.981   5.479   3.710
11972WAT     H136158   7.071   5.452   3.675
11972WAT     H236159   6.981   5.577   3.729
11973WAT      O36160   2.426   6.482   4.762
11973WAT     H136161   2.510   6.533   4.783
11973WAT     H236162   2.396   6.504   4.669
11974WAT      O36163   1.529   0.320   7.003
11974WAT     H136164   1.602   0.350   7.065
11974WAT     H236165   1.528   0.221   6.997
11975WAT      O36166   8.608   7.645   0.946
11975WAT     H136167   8.656   7.661   1.033
11975WAT     H236168   8.636   7.713   0.879
11976WAT      O36169   4.162   1.389   7.291
11976WAT     H136170   4.234   1.347   7.347
11976WAT     H236171   4.138   1.478   7.329
11977WAT      O36172   2.618   5.386   0.081
11977WAT     H136173   2.688   5.319   0.106
11977WAT     H236174   2.565   5.350   0.004
11978WAT      O36175   2.652   2.628   3.740
11978WAT     H136176   2.600   2.694   3.686
11978WAT     H236177   2.669   2.546   3.685
11979WAT      O36178   2.606   3.239   5.566
11979WAT     H136179   2.698   3.201   5.567
11979WAT     H236180   2.542   3.170   5.532
11980WAT      O36181   8.398   2.041   2.975
11980WAT     H136182   8.364   2.020   2.884
11980WAT     H236183   8.323   2.032   3.042
11981WAT      O36184   6.542   5.707   9.477
11981WAT     H136185   6.474   5.688   9.405
11981WAT     H236186   6.600   5.627   9.490
11982WAT      O36187   1.628   6.891   2.827
11982WAT     H136188   1.721   6.908   2.858
11982WAT     H236189   1.613   6.937   2.739
11983WAT      O36190   0.817   6.034   1.588
11983WAT     H136191   0.871   6.050   1.670
11983WAT     H236192   0.877   6.042   1.507
11984WAT      O36193   6.569   4.951   8.994
11984WAT     H136194   6.590   4.967   9.090
11984WAT     H236195   6.507   4.873   8.986
11985WAT      O36196   1.145   5.104   8.519
11985WAT     H136197   1.211   5.044   8.565
11985WAT     H236198   1.096   5.052   8.449
11986WAT      O36199   9.445   5.499   3.461
11986WAT     H136200   9.426   5.434   3.535
11986WAT     H236201   9.541   5.526   3.464
11987WAT      O36202   0.621   8.173   2.032
11987WAT     H136203   0.566   8.164   1.948
11987WAT     H236204   0.618   8.087   2.083
11988WAT      O36205   8.475   3.710   4.135
11988WAT     H136206   8.455   3.720   4.232
11988WAT     H236207   8.392   3.685   4.086
11989WAT      O36208   8.585   3.423   1.016
11989WAT     H136209   8.533   3.506   0.996
11989WAT     H236210   8.682   3.445   1.021
11990WAT      O36211   0.011   5.049   5.027
11990WAT     H136212  -0.060   5.090   5.084
11990WAT     H236213   0.066   4.987   5.083
11991WAT      O36214   6.863   6.591   9.074
11991WAT     H136215   6.783   6.566   9.019
11991WAT     H236216   6.901   6.678   9.041
11992WAT      O36217   4.552   0.411   2.433
11992WAT     H136218   4.543   0.463   2.348
11992WAT     H236219   4.574   0.474   2.508
11993WAT      O36220   0.619   1.644   7.956
11993WAT     H136221   0.525   1.675   7.966
11993WAT     H236222   0.672   1.670   8.037
11994WAT      O36223   5.410   9.806   3.532
11994WAT     H136224   5.509   9.805   3.520
11994WAT     H236225   5.372   9.888   3.490
11995WAT      O36226   1.094   2.129   3.128
11995WAT     H136227   1.165   2.059   3.138
11995WAT     H236228   1.005   2.091   3.156
11996WAT      O36229   4.084   3.890   9.679
11996WAT     H136230   4.078   3.790   9.687
11996WAT     H236231   4.105   3.929   9.769
11997WAT      O36232   9.372   8.735   1.701
11997WAT     H136233   9.301   8.755   1.634
11997WAT     H236234   9.441   8.807   1.699
11998WAT      O36235   7.115   2.942   9.790
11998WAT     H136236   7.049   2.905   9.856
11998WAT     H236237   7.157   3.024   9.829
11999WAT      O36238   8.133   1.773   4.271
11999WAT     H136239   8.161   1.802   4.362
11999WAT     H236240   8.045   1.725   4.277
12000WAT      O36241   8.499   4.710   1.004
12000WAT     H136242   8.516   4.730   1.100
12000WAT     H236243   8.586   4.702   0.956
12001WAT      O36244   1.871   8.523   6.035
12001WAT     H136245   1.909   8.550   5.946
12001WAT     H236246   1.894   8.592   6.104
12002WAT      O36247   7.925   0.077   4.639
12002WAT     H136248   7.980   0.158   4.621
12002WAT     H236249   7.849   0.101   4.700
12003WAT      O36250   2.705   5.043   6.630
12003WAT     H136251   2.711   5.089   6.719
12003WAT     H236252   2.616   4.998   6.622
12004WAT      O36253   0.219   1.382   9.692
12004WAT     H136254   0.175   1.294   9.679
12004WAT     H236255   0.318   1.371   9.687
12005WAT      O36256   5.469   7.831   3.884
12005WAT     H136257   5.403   7.769   3.843
12005WAT     H236258   5.455   7.923   3.848
12006WAT      O36259   2.208   4.400   7.877
12006WAT     H136260   2.174   4.435   7.964
12006WAT     H236261   2.236   4.304   7.888
12007WAT      O36262   9.225   6.599   5.551
12007WAT     H136263   9.308   6.606   5.497
12007WAT     H236264   9.189   6.690   5.571
12008WAT      O36265   7.024   4.696   2.058
12008WAT     H136266   7.082   4.761   2.107
12008WAT     H236267   7.063   4.677   1.968
12009WAT      O36268   3.109   8.835   5.649
12009WAT     H136269   3.175   8.884   5.707
12009WAT     H236270   3.039   8.793   5.707
12010WAT      O36271   3.103   1.282   6.075
12010WAT     H136272   3.165   1.228   6.018
12010WAT     H236273   3.085   1.370   6.030
12011WAT      O36274   0.733   8.343   2.417
12011WAT     H136275   0.737   8.388   2.507
12011WAT     H236276   0.674   8.263   2.422
12012WAT      O36277   4.612   7.774   5.564
12012WAT     H136278   4.622   7.873   5.571
12012WAT     H236279   4.537   7.744   5.623
12013WAT      O36280   5.702   0.850   7.955
12013WAT     H136281   5.637   0.833   8.030
12013WAT     H236282   5.657   0.903   7.883
12014WAT      O36283   0.735   4.424   2.692
12014WAT     H136284   0.636   4.420   2.705
12014WAT     H236285   0.773   4.495   2.751
12015WAT      O36286   9.640   1.108   1.384
12015WAT     H136287   9.613   1.152   1.469
12015WAT     H236288   9.619   1.010   1.388
12016WAT      O36289   3.506   7.069   7.686
12016WAT     H136290   3.527   6.973   7.700
12016WAT     H236291   3.444   7.100   7.758
12017WAT      O36292   0.716   5.781   6.772
12017WAT     H136293   0.629   5.731   6.777
12017WAT     H236294   0.781   5.730   6.716
12018WAT      O36295   0.834   3.374   2.777
12018WAT     H136296   0.798   3.432   2.704
12018WAT     H236297   0.778   3.291   2.784
12019WAT      O36298   5.584   1.799   9.623
12019WAT     H136299   5.644   1.866   9.579
12019WAT     H236300   5.507   1.779   9.562
12020WAT      O36301   1.413   5.194   2.924
12020WAT     H136302   1.377   5.249   2.999
12020WAT     H236303   1.471   5.250   2.866
12021WAT      O36304   7.304   5.392   6.988
12021WAT     H136305   7.236   5.378   6.916
12021WAT     H236306   7.284   5.477   7.036
12022WAT      O36307   5.225   6.359   5.080
12022WAT     H136308   5.321   6.386   5.088
12022WAT     H236309   5.205   6.337   4.984
12023WAT      O36310   4.274   2.675   6.786
12023WAT     H136311   4.255   2.717   6.698
12023WAT     H236312   4.353   2.614   6.777
12024WAT      O36313   6.579   9.703   9.357
12024WAT     H136314   6.543   9.610   9.347
12024WAT     H236315   6.514   9.768   9.318
12025WAT      O36316   4.251   3.748   0.459
12025WAT     H136317   4.181   3.723   0.526
12025WAT     H236318   4.277   3.668   0.406
12026WAT      O36319   4.254   4.458   6.238
12026WAT     H136320   4.343   4.419   6.216
12026WAT     H236321   4.263   4.556   6.256
12027WAT      O36322   4.629   0.927   8.396
12027WAT     H136323   4.617   0.854   8.463
12027WAT     H236324   4.638   0.888   8.304
12028WAT      O36325   5.508   7.917   6.888
12028WAT     H136326   5.550   7.845   6.833
12028WAT     H236327   5.410   7.923   6.867
12029WAT      O36328   1.331   0.698   0.057
12029WAT     H136329   1.324   0.790   0.096
12029WAT     H236330   1.326   0.705  -0.043
12030WAT      O36331   8.443   7.520   2.733
12030WAT     H136332   8.485   7.470   2.809
12030WAT     H236333   8.515   7.569   2.683
12031WAT      O36334   5.104   7.534   0.773
12031WAT     H136335   5.144   7.487   0.852
12031WAT     H236336   5.019   7.579   0.801
12032WAT      O36337   7.006   7.324   3.949
12032WAT     H136338   7.038   7.348   3.858
12032WAT     H236339   6.950   7.242   3.944
12033WAT      O36340   2.656   0.330   8.645
12033WAT     H136341   2.646   0.279   8.730
12033WAT     H236342   2.729   0.290   8.590
12034WAT      O36343   0.706   7.815   8.484
12034WAT     H136344   0.705   7.765   8.397
12034WAT     H236345   0.757   7.763   8.552
12035WAT      O36346   9.487   4.941   9.723
12035WAT     H136347   9.416   4.873   9.701
12035WAT     H236348   9.575   4.910   9.688
12036WAT      O36349   4.983   9.227   8.604
12036WAT     H136350   4.954   9.300   8.542
12036WAT     H236351   4.903   9.192   8.653
12037WAT      O36352   8.381   4.994   4.447
12037WAT     H136353   8.307   5.061   4.450
12037WAT     H236354   8.468   5.038   4.467
12038WAT      O36355   2.321   4.206   0.493
12038WAT     H136356   2.266   4.275   0.446
12038WAT     H236357   2.352   4.241   0.581
12039WAT      O36358   9.424   5.143   8.967
12039WAT     H136359   9.430   5.154   9.066
12039WAT     H236360   9.367   5.216   8.929
12040WAT      O36361   4.231   3.009   7.974
12040WAT     H136362   4.171   2.986   8.051
12040WAT     H236363   4.230   2.935   7.908
12041WAT      O36364   0.301   9.231   9.857
12041WAT     H136365   0.222   9.260   9.802
12041WAT     H236366   0.323   9.303   9.923
12042WAT      O36367   5.585   0.019   6.912
12042WAT     H136368   5.622  -0.026   6.994
12042WAT     H236369   5.499  -0.024   6.886
12043WAT      O36370   5.340   0.437   9.410
12043WAT     H136371   5.354   0.469   9.316
12043WAT     H236372   5.243   0.438   9.432
12044WAT      O36373   1.515   8.837   3.194
12044WAT     H136374   1.428   8.870   3.158
12044WAT     H236375   1.575   8.811   3.118
12045WAT      O36376   8.287   4.339   7.066
12045WAT     H136377   8.194   4.373   7.052
12045WAT     H236378   8.353   4.410   7.042
12046WAT      O36379   5.678   6.125   5.374
12046WAT     H136380   5.721   6.087   5.456
12046WAT     H236381   5.592   6.077   5.356
12047WAT      O36382   3.839   0.578   8.222
12047WAT     H136383   3.906   0.588   8.295
12047WAT     H236384   3.783   0.497   8.238
12048WAT      O36385   9.842   5.231   3.250
12048WAT     H136386   9.911   5.231   3.178
12048WAT     H236387   9.770   5.296   3.226
12049WAT      O36388   1.312   0.448   6.888
12049WAT     H136389   1.316   0.537   6.933
12049WAT     H236390   1.397   0.397   6.906
12050WAT      O36391   9.139   4.606   7.213
12050WAT     H136392   9.055   4.580   7.260
12050WAT     H236393   9.119   4.622   7.116
12051WAT      O36394   1.379   6.795   7.293
12051WAT     H136395   1.465   6.836   7.262
12051WAT     H236396   1.379   6.786   7.392
12052WAT      O36397   1.040   5.265   8.882
12052WAT     H136398   1.089   5.350   8.861
12052WAT     H236399   1.017   5.264   8.980
12053WAT      O36400   9.297   9.405   2.856
12053WAT     H136401   9.303   9.358   2.767
12053WAT     H236402   9.326   9.500   2.845
12054WAT      O36403   9.664   3.114   8.599
12054WAT     H136404   9.742   3.153   8.649
12054WAT     H236405   9.691   3.099   8.503
12055WAT      O36406   9.346   5.456   1.840
12055WAT     H136407   9.255   5.497   1.829
12055WAT     H236408   9.413   5.510   1.790
12056WAT      O36409   0.033   4.114   7.746
12056WAT     H136410   0.005   4.137   7.839
12056WAT     H236411   0.132   4.105   7.743
12057WAT      O36412   3.613   8.795   3.742
12057WAT     H136413   3.559   8.767   3.822
12057WAT     H236414   3.576   8.752   3.660
12058WAT      O36415   4.164   6.462   1.290
12058WAT     H136416   4.253   6.424   1.267
12058WAT     H236417   4.146   6.450   1.388
12059WAT      O36418   6.885   4.923   4.702
12059WAT     H136419   6.793   4.894   4.676
12059WAT     H236420   6.917   4.992   4.638
12060WAT      O36421   5.469   1.954   3.459
12060WAT     H136422   5.382   1.948   3.411
12060WAT     H236423   5.475   1.882   3.528
12061WAT      O36424   7.820   7.000   3.715
12061WAT     H136425   7.902   6.947   3.738
12061WAT     H236426   7.818   7.084   3.770
12062WAT      O36427   4.643   9.357   0.697
12062WAT     H136428   4.647   9.428   0.768
12062WAT     H236429   4.678   9.395   0.611
12063WAT      O36430   9.392   7.448   1.356
12063WAT     H136431   9.300   7.475   1.381
12063WAT     H236432   9.459   7.494   1.415
12064WAT      O36433   8.690   0.421   5.344
12064WAT     H136434   8.696   0.520   5.331
12064WAT     H236435   8.636   0.381   5.270
12065WAT      O36436   0.504   8.335   1.109
12065WAT     H136437   0.420   8.343   1.055
12065WAT     H236438   0.548   8.425   1.116
12066WAT      O36439   8.958   3.650   5.911
12066WAT     H136440   8.994   3.685   5.824
12066WAT     H236441   8.873   3.600   5.893
12067WAT      O36442   7.243   4.074   4.337
12067WAT     H136443   7.272   4.168   4.356
12067WAT     H236444   7.144   4.072   4.322
12068WAT      O36445   7.567   1.941   4.915
12068WAT     H136446   7.539   1.977   5.004
12068WAT     H236447   7.539   1.845   4.907
12069WAT      O36448   5.292   6.527   1.535
12069WAT     H136449   5.331   6.589   1.603
12069WAT     H236450   5.361   6.461   1.507
12070WAT      O36451   7.206   7.722   6.098
12070WAT     H136452   7.265   7.643   6.079
12070WAT     H236453   7.260   7.795   6.139
12071WAT      O36454   6.480   8.154   8.789
12071WAT     H136455   6.403   8.099   8.756
12071WAT     H236456   6.541   8.174   8.713
12072WAT      O36457   6.420   9.460   3.981
12072WAT     H136458   6.393   9.383   4.039
12072WAT     H236459   6.518   9.456   3.963
12073WAT      O36460   2.452   8.457   4.425
12073WAT     H136461   2.537   8.499   4.456
12073WAT     H236462   2.432   8.377   4.483
12074WAT      O36463   9.776   3.226   2.751
12074WAT     H136464   9.692   3.254   2.704
12074WAT     H236465   9.827   3.308   2.780
12075WAT      O36466   2.053   2.248   0.172
12075WAT     H136467   1.983   2.303   0.218
12075WAT     H236468   2.015   2.210   0.087
12076WAT      O36469   0.299   1.583   7.463
12076WAT     H136470   0.340   1.656   7.518
12076WAT     H236471   0.362   1.506   7.458
12077WAT      O36472   8.910   3.792   4.603
12077WAT     H136473   8.868   3.791   4.512
12077WAT     H236474   8.970   3.713   4.613
12078WAT      O36475   9.022   2.836   2.166
12078WAT     H136476   9.071   2.767   2.220
12078WAT     H236477   9.014   2.804   2.072
12079WAT      O36478   1.365   1.867   0.946
12079WAT     H136479   1.336   1.898   1.036
12079WAT     H236480   1.404   1.944   0.895
12080WAT      O36481   9.718   4.168   1.272
12080WAT     H136482   9.758   4.118   1.349
12080WAT     H236483   9.769   4.253   1.258
12081WAT      O36484   8.973   1.349   9.479
12081WAT     H136485   9.035   1.280   9.440
12081WAT     H236486   8.982   1.349   9.578
12082WAT      O36487   7.618   9.199   7.617
12082WAT     H136488   7.708   9.214   7.658
12082WAT     H236489   7.627   9.139   7.538
12083WAT      O36490   5.299   5.558   0.501
12083WAT     H136491   5.237   5.603   0.437
12083WAT     H236492   5.296   5.606   0.589
12084WAT      O36493   0.306   9.478   6.129
12084WAT     H136494   0.259   9.556   6.086
12084WAT     H236495   0.373   9.440   6.066
12085WAT      O36496   9.823   6.122   5.129
12085WAT     H136497   9.863   6.208   5.099
12085WAT     H236498   9.741   6.103   5.076
12086WAT      O36499   7.046   2.872   8.368
12086WAT     H136500   6.998   2.957   8.390
12086WAT     H236501   7.035   2.807   8.443
12087WAT      O36502   5.528   1.152   3.069
12087WAT     H136503   5.608   1.092   3.082
12087WAT     H236504   5.454   1.100   3.026
12088WAT      O36505   3.391   8.206   6.510
12088WAT     H136506   3.445   8.127   6.482
12088WAT     H236507   3.426   8.241   6.597
12089WAT      O36508   0.573   1.574   2.150
12089WAT     H136509   0.645   1.628   2.107
12089WAT     H236510   0.565   1.486   2.102
12090WAT      O36511   6.253   8.526   7.350
12090WAT     H136512   6.182   8.468   7.392
12090WAT     H236513   6.263   8.610   7.404
12091WAT      O36514   7.347   5.416   5.880
12091WAT     H136515   7.285   5.362   5.824
12091WAT     H236516   7.295   5.476   5.940
12092WAT      O36517   4.108   8.034   3.029
12092WAT     H136518   4.058   7.948   3.033
12092WAT     H236519   4.196   8.023   3.077
12093WAT      O36520   6.291   8.047   0.561
12093WAT     H136521   6.355   8.092   0.498
12093WAT     H236522   6.335   7.968   0.602
12094WAT      O36523   1.218   9.641   4.698
12094WAT     H136524   1.277   9.569   4.660
12094WAT     H236525   1.122   9.617   4.684
12095WAT      O36526   2.896   0.462   7.633
12095WAT     H136527   2.953   0.544   7.642
12095WAT     H236528   2.948   0.382   7.663
12096WAT      O36529   0.549   0.942   1.285
12096WAT     H136530   0.561   0.947   1.186
12096WAT     H236531   0.623   0.889   1.326
12097WAT      O36532   0.264   7.008   2.467
12097WAT     H136533   0.294   6.941   2.399
12097WAT     H236534   0.204   6.964   2.533
12098WAT      O36535   8.821   3.072   8.222
12098WAT     H136536   8.778   3.071   8.132
12098WAT     H236537   8.896   3.007   8.224
12099WAT      O36538   7.437   3.407   2.740
12099WAT     H136539   7.389   3.492   2.718
12099WAT     H236540   7.445   3.350   2.658
12100WAT      O36541   7.146   6.842   1.857
12100WAT     H136542   7.235   6.888   1.857
12100WAT     H236543   7.159   6.744   1.875
12101WAT      O36544   1.950   8.351   5.695
12101WAT     H136545   1.894   8.268   5.704
12101WAT     H236546   1.995   8.351   5.605
12102WAT      O36547   0.580   0.348   4.440
12102WAT     H136548   0.678   0.371   4.436
12102WAT     H236549   0.569   0.251   4.458
12103WAT      O36550   5.157   6.177   9.156
12103WAT     H136551   5.180   6.180   9.058
12103WAT     H236552   5.137   6.083   9.183
12104WAT      O36553   8.704   9.339   4.729
12104WAT     H136554   8.659   9.251   4.739
12104WAT     H236555   8.665   9.404   4.794
12105WAT      O36556   8.566   0.860   5.205
12105WAT     H136557   8.571   0.955   5.236
12105WAT     H236558   8.474   0.842   5.169
12106WAT      O36559   1.654   1.595   7.407
12106WAT     H136560   1.663   1.521   7.473
12106WAT     H236561   1.564   1.590   7.363
12107WAT      O36562   5.551   7.971   8.556
12107WAT     H136563   5.573   7.909   8.631
12107WAT     H236564   5.622   7.964   8.485
12108WAT      O36565   7.970   1.613   0.253
12108WAT     H136566   7.944   1.552   0.178
12108WAT     H236567   7.987   1.559   0.336
12109WAT      O36568   6.629   1.789   4.157
12109WAT     H136569   6.701   1.789   4.088
12109WAT     H236570   6.667   1.819   4.245
12110WAT      O36571   0.969   5.082   5.171
12110WAT     H136572   0.871   5.094   5.186
12110WAT     H236573   0.986   4.989   5.137
12111WAT      O36574   7.596   6.263   7.339
12111WAT     H136575   7.601   6.235   7.434
12111WAT     H236576   7.686   6.256   7.297
12112WAT      O36577   9.180   4.475   1.388
12112WAT     H136578   9.258   4.465   1.325
12112WAT     H236579   9.121   4.394   1.380
12113WAT      O36580   5.151   8.778   2.947
12113WAT     H136581   5.221   8.708   2.936
12113WAT     H236582   5.134   8.793   3.044
12114WAT      O36583   4.590   8.101   8.379
12114WAT     H136584   4.631   8.039   8.446
12114WAT     H236585   4.503   8.135   8.414
12115WAT      O36586   1.127   5.375   6.213
12115WAT     H136587   1.132   5.474   6.223
12115WAT     H236588   1.048   5.340   6.263
12116WAT      O36589   7.367   3.441   4.818
12116WAT     H136590   7.448   3.437   4.759
12116WAT     H236591   7.341   3.536   4.832
12117WAT      O36592   4.171   4.094   1.915
12117WAT     H136593   4.203   4.071   2.007
12117WAT     H236594   4.247   4.134   1.863
12118WAT      O36595   1.341   9.474   2.354
12118WAT     H136596   1.251   9.499   2.318
12118WAT     H236597   1.393   9.557   2.372
12119WAT      O36598   9.316   3.120   5.326
12119WAT     H136599   9.220   3.119   5.354
12119WAT     H236600   9.357   3.207   5.352
12120WAT      O36601   8.755   3.489   2.957
12120WAT     H136602   8.848   3.516   2.931
12120WAT     H236603   8.689   3.534   2.897
12121WAT      O36604   9.010   3.345   0.340
12121WAT     H136605   8.970   3.433   0.365
12121WAT     H236606   8.953   3.271   0.376
12122WAT      O36607   2.879   0.415   7.197
12122WAT     H136608   2.906   0.333   7.146
12122WAT     H236609   2.898   0.496   7.142
12123WAT      O36610   2.317  -0.005   5.606
12123WAT     H136611   2.322   0.068   5.537
12123WAT     H236612   2.306   0.035   5.697
12124WAT      O36613   0.711   3.126   3.990
12124WAT     H136614   0.714   3.156   3.895
12124WAT     H236615   0.716   3.205   4.051
12125WAT      O36616   6.234   7.937   5.590
12125WAT     H136617   6.295   7.988   5.529
12125WAT     H236618   6.152   7.991   5.607
12126WAT      O36619   7.351   5.979   8.320
12126WAT     H136620   7.265   5.986   8.268
12126WAT     H236621   7.354   6.051   8.389
12127WAT      O36622   0.467   0.760   3.054
12127WAT     H136623   0.469   0.666   3.020
12127WAT     H236624   0.421   0.819   2.987
12128WAT      O36625   8.947   6.829   8.357
12128WAT     H136626   8.948   6.746   8.302
12128WAT     H236627   9.038   6.844   8.395
12129WAT      O36628   2.861   2.893   0.660
12129WAT     H136629   2.784   2.832   0.641
12129WAT     H236630   2.874   2.954   0.582
12130WAT      O36631   6.740   8.753   5.244
12130WAT     H136632   6.725   8.825   5.176
12130WAT     H236633   6.654   8.707   5.263
12131WAT      O36634   8.318   2.384   4.246
12131WAT     H136635   8.262   2.360   4.167
12131WAT     H236636   8.280   2.339   4.328
12132WAT      O36637   9.648   6.372   2.155
12132WAT     H136638   9.588   6.315   2.211
12132WAT     H236639   9.672   6.323   2.071
12133WAT      O36640   9.096   3.225   4.677
12133WAT     H136641   9.115   3.138   4.723
12133WAT     H236642   9.133   3.300   4.731
12134WAT      O36643   5.133   2.527   7.636
12134WAT     H136644   5.104   2.435   7.663
12134WAT     H236645   5.228   2.524   7.606
12135WAT      O36646   8.570   0.864   1.051
12135WAT     H136647   8.631   0.903   1.120
12135WAT     H236648   8.575   0.764   1.054
12136WAT      O36649   4.761   2.854   0.557
12136WAT     H136650   4.799   2.781   0.614
12136WAT     H236651   4.768   2.829   0.461
12137WAT      O36652   1.783   3.153   2.668
12137WAT     H136653   1.838   3.183   2.745
12137WAT     H236654   1.835   3.088   2.612
12138WAT      O36655   5.286   3.960   1.461
12138WAT     H136656   5.291   3.886   1.394
12138WAT     H236657   5.326   3.928   1.547
12139WAT      O36658   6.338   2.993   7.854
12139WAT     H136659   6.361   2.930   7.929
12139WAT     H236660   6.321   2.941   7.771
12140WAT      O36661   5.870   6.580   0.970
12140WAT     H136662   5.815   6.659   0.998
12140WAT     H236663   5.874   6.576   0.870
12141WAT      O36664   9.718   0.396   3.803
12141WAT     H136665   9.728   0.339   3.721
12141WAT     H236666   9.800   0.389   3.859
12142WAT      O36667   1.130   6.544   1.980
12142WAT     H136668   1.059   6.586   2.037
12142WAT     H236669   1.200   6.613   1.958
12143WAT      O36670   7.005   7.264   0.594
12143WAT     H136671   7.031   7.170   0.570
12143WAT     H236672   6.985   7.315   0.510
12144WAT      O36673   3.183   6.003   7.246
12144WAT     H136674   3.205   6.065   7.321
12144WAT     H236675   3.106   5.944   7.271
12145WAT      O36676   5.077   6.161   1.628
12145WAT     H136677   5.121   6.123   1.709
12145WAT     H236678   4.982   6.130   1.623
12146WAT      O36679   3.424   2.760   1.556
12146WAT     H136680   3.373   2.685   1.512
12146WAT     H236681   3.522   2.745   1.543
12147WAT      O36682   0.644   4.660   3.598
12147WAT     H136683   0.675   4.701   3.512
12147WAT     H236684   0.650   4.729   3.671
12148WAT      O36685   6.908   9.589   7.387
12148WAT     H136686   6.949   9.679   7.372
12148WAT     H236687   6.834   9.597   7.453
12149WAT      O36688   5.970   3.973   8.321
12149WAT     H136689   5.879   3.969   8.280
12149WAT     H236690   6.039   3.982   8.249
12150WAT      O36691   4.744   3.653   6.630
12150WAT     H136692   4.670   3.588   6.644
12150WAT     H236693   4.805   3.619   6.558
12151WAT      O36694   0.491   5.113   8.718
12151WAT     H136695   0.575   5.159   8.689
12151WAT     H236696   0.423   5.181   8.745
12152WAT      O36697   0.645   1.270   0.936
12152WAT     H136698   0.719   1.333   0.959
12152WAT     H236699   0.678   1.176   0.943
12153WAT      O36700   0.823   1.298   1.481
12153WAT     H136701   0.833   1.278   1.383
12153WAT     H236702   0.732   1.336   1.498
12154WAT      O36703   1.862   1.601   5.068
12154WAT     H136704   1.775   1.572   5.027
12154WAT     H236705   1.937   1.577   5.006
12155WAT      O36706   4.662   5.221   3.916
12155WAT     H136707   4.679   5.267   4.003
12155WAT     H236708   4.608   5.138   3.932
12156WAT      O36709   8.401   7.036   8.666
12156WAT     H136710   8.484   7.046   8.611
12156WAT     H236711   8.328   6.995   8.611
12157WAT      O36712   2.145   2.381   4.342
12157WAT     H136713   2.183   2.464   4.301
12157WAT     H236714   2.200   2.355   4.421
12158WAT      O36715   7.762   9.265   7.998
12158WAT     H136716   7.843   9.322   7.984
12158WAT     H236717   7.759   9.194   7.927
12159WAT      O36718   5.709   7.616   7.036
12159WAT     H136719   5.712   7.645   7.132
12159WAT     H236720   5.792   7.565   7.015
12160WAT      O36721   8.017   9.762   7.688
12160WAT     H136722   8.111   9.730   7.672
12160WAT     H236723   8.009   9.795   7.782
12161WAT      O36724   1.362   5.651   7.886
12161WAT     H136725   1.312   5.728   7.924
12161WAT     H236726   1.341   5.568   7.939
12162WAT      O36727   7.285   3.481   4.291
12162WAT     H136728   7.194   3.498   4.254
12162WAT     H236729   7.354   3.494   4.219
12163WAT      O36730   3.474   9.059   9.288
12163WAT     H136731   3.463   9.158   9.293
12163WAT     H236732   3.570   9.037   9.270
12164WAT      O36733   6.107   0.775   0.598
12164WAT     H136734   6.159   0.860   0.588
12164WAT     H236735   6.168   0.702   0.632
12165WAT      O36736   2.086   4.880   2.544
12165WAT     H136737   2.105   4.904   2.639
12165WAT     H236738   2.099   4.782   2.531
12166WAT      O36739   1.716   8.254   0.476
12166WAT     H136740   1.652   8.309   0.423
12166WAT     H236741   1.803   8.247   0.428
12167WAT      O36742   5.016   7.959   6.346
12167WAT     H136743   5.044   8.051   6.317
12167WAT     H236744   4.929   7.935   6.302
12168WAT      O36745   5.466   7.161   5.532
12168WAT     H136746   5.371   7.152   5.563
12168WAT     H236747   5.492   7.258   5.536
12169WAT      O36748   5.974   8.310   8.470
12169WAT     H136749   5.934   8.222   8.495
12169WAT     H236750   5.967   8.373   8.547
12170WAT      O36751   6.131   1.720   5.898
12170WAT     H136752   6.036   1.694   5.886
12170WAT     H236753   6.137   1.803   5.953
12171WAT      O36754   9.598   0.973   6.721
12171WAT     H136755   9.593   1.069   6.749
12171WAT     H236756   9.506   0.940   6.700
12172WAT      O36757   9.550   0.927   4.148
12172WAT     H136758   9.565   1.026   4.156
12172WAT     H236759   9.637   0.879   4.162
12173WAT      O36760   3.328   3.645   7.965
12173WAT     H136761   3.275   3.565   7.936
12173WAT     H236762   3.275   3.697   8.032
12174WAT      O36763   1.217   9.640   4.316
12174WAT     H136764   1.142   9.647   4.251
12174WAT     H236765   1.252   9.546   4.317
12175WAT      O36766   1.202   1.203   6.445
12175WAT     H136767   1.247   1.277   6.394
12175WAT     H236768   1.214   1.117   6.396
12176WAT      O36769   7.437   0.838   8.467
12176WAT     H136770   7.502   0.900   8.510
12176WAT     H236771   7.480   0.750   8.451
12177WAT      O36772   5.488   2.019   4.651
12177WAT     H136773   5.513   2.107   4.693
12177WAT     H236774   5.393   1.997   4.673
12178WAT      O36775   9.869   6.385   0.649
12178WAT     H136776   9.950   6.391   0.591
12178WAT     H236777   9.879   6.307   0.711
12179WAT      O36778   8.579   8.724   3.793
12179WAT     H136779   8.610   8.663   3.720
12179WAT     H236780   8.594   8.681   3.882
12180WAT      O36781   4.893   4.489   7.324
12180WAT     H136782   4.862   4.584   7.328
12180WAT     H236783   4.987   4.487   7.291
12181WAT      O36784   5.194   8.649   4.700
12181WAT     H136785   5.106   8.668   4.742
12181WAT     H236786   5.195   8.684   4.607
12182WAT      O36787   1.051   6.500   7.451
12182WAT     H136788   0.952   6.502   7.457
12182WAT     H236789   1.090   6.509   7.543
12183WAT      O36790   9.433   0.542   0.841
12183WAT     H136791   9.389   0.498   0.763
12183WAT     H236792   9.527   0.509   0.850
12184WAT      O36793   3.237   5.239   9.671
12184WAT     H136794   3.324   5.190   9.680
12184WAT     H236795   3.162   5.173   9.661
12185WAT      O36796   6.571   8.748   5.657
12185WAT     H136797   6.578   8.833   5.710
12185WAT     H236798   6.567   8.670   5.720
12186WAT      O36799   1.293   4.000   4.225
12186WAT     H136800   1.226   4.070   4.200
12186WAT     H236801   1.278   3.971   4.320
12187WAT      O36802   8.267   0.911   7.846
12187WAT     H136803   8.321   0.890   7.764
12187WAT     H236804   8.279   0.838   7.913
12188WAT      O36805   7.889   9.215   7.701
12188WAT     H136806   7.963   9.281   7.688
12188WAT     H236807   7.926   9.131   7.740
12189WAT      O36808   8.897   5.427   1.814
12189WAT     H136809   8.937   5.350   1.864
12189WAT     H236810   8.914   5.416   1.716
12190WAT      O36811   3.766   9.103   9.733
12190WAT     H136812   3.732   9.180   9.680
12190WAT     H236813   3.726   9.018   9.697
12191WAT      O36814   0.304   6.318   8.381
12191WAT     H136815   0.257   6.324   8.469
12191WAT     H236816   0.375   6.248   8.386
12192WAT      O36817   4.509   6.438   6.774
12192WAT     H136818   4.437   6.503   6.749
12192WAT     H236819   4.469   6.347   6.785
12193WAT      O36820   5.026   5.928   3.506
12193WAT     H136821   4.956   6.000   3.500
12193WAT     H236822   5.110   5.966   3.545
12194WAT      O36823   5.687   1.926   7.532
12194WAT     H136824   5.621   1.957   7.601
12194WAT     H236825   5.763   1.990   7.528
12195WAT      O36826   3.536   4.109   3.215
12195WAT     H136827   3.543   4.209   3.209
12195WAT     H236828   3.612   4.074   3.271
12196WAT      O36829   4.205   0.950   2.589
12196WAT     H136830   4.231   0.857   2.563
12196WAT     H236831   4.140   0.946   2.665
12197WAT      O36832   2.959   1.209   8.066
12197WAT     H136833   2.907   1.279   8.115
12197WAT     H236834   2.964   1.126   8.121
12198WAT      O36835   9.372   6.360   4.027
12198WAT     H136836   9.392   6.403   3.939
12198WAT     H236837   9.455   6.317   4.063
12199WAT      O36838   8.528   2.565   1.257
12199WAT     H136839   8.536   2.665   1.253
12199WAT     H236840   8.532   2.535   1.352
12200WAT      O36841   0.363   3.328   8.215
12200WAT     H136842   0.369   3.423   8.246
12200WAT     H236843   0.267   3.303   8.204
12201WAT      O36844   8.380   7.290   9.224
12201WAT     H136845   8.434   7.265   9.143
12201WAT     H236846   8.380   7.389   9.234
12202WAT      O36847   1.613   5.952   0.756
12202WAT     H136848   1.615   6.031   0.818
12202WAT     H236849   1.522   5.910   0.759
12203WAT      O36850   7.565   0.273   0.387
12203WAT     H136851   7.480   0.223   0.403
12203WAT     H236852   7.641   0.223   0.428
12204WAT      O36853   6.555   3.616   4.841
12204WAT     H136854   6.605   3.572   4.916
12204WAT     H236855   6.511   3.546   4.785
12205WAT      O36856   9.763   6.349   8.306
12205WAT     H136857   9.726   6.318   8.219
12205WAT     H236858   9.830   6.282   8.339
12206WAT      O36859   4.218   2.812   7.807
12206WAT     H136860   4.229   2.846   7.713
12206WAT     H236861   4.234   2.713   7.808
12207WAT      O36862   6.745   4.807   9.518
12207WAT     H136863   6.717   4.863   9.596
12207WAT     H236864   6.773   4.717   9.551
12208WAT      O36865   4.978   2.165   1.689
12208WAT     H136866   5.004   2.253   1.730
12208WAT     H236867   5.059   2.121   1.650
12209WAT      O36868   5.211   4.450   9.615
12209WAT     H136869   5.135   4.394   9.648
12209WAT     H236870   5.279   4.391   9.571
12210WAT      O36871  -0.002   6.107   6.739
12210WAT     H136872  -0.031   6.111   6.834
12210WAT     H236873   0.084   6.056   6.732
12211WAT      O36874   0.764   7.969   7.450
12211WAT     H136875   0.758   7.962   7.549
12211WAT     H236876   0.818   8.050   7.426
12212WAT      O36877   3.388   5.009   4.201
12212WAT     H136878   3.428   5.100   4.184
12212WAT     H236879   3.297   5.005   4.159
12213WAT      O36880   4.568   6.366   0.941
12213WAT     H136881   4.658   6.323   0.942
12213WAT     H236882   4.578   6.464   0.957
12214WAT      O36883   9.516   4.347   4.878
12214WAT     H136884   9.502   4.274   4.945
12214WAT     H236885   9.499   4.312   4.786
12215WAT      O36886   6.841   8.246   7.897
12215WAT     H136887   6.801   8.282   7.813
12215WAT     H236888   6.938   8.229   7.884
12216WAT      O36889   8.869   2.149   6.902
12216WAT     H136890   8.791   2.089   6.886
12216WAT     H236891   8.838   2.236   6.940
12217WAT      O36892   1.120   7.434   8.131
12217WAT     H136893   1.189   7.429   8.202
12217WAT     H236894   1.162   7.466   8.046
12218WAT      O36895   4.549   8.356   7.410
12218WAT     H136896   4.612   8.336   7.335
12218WAT     H236897   4.477   8.287   7.412
12219WAT      O36898   4.240   4.066   6.363
12219WAT     H136899   4.145   4.096   6.351
12219WAT     H236900   4.290   4.080   6.277
12220WAT      O36901   6.841   7.530   2.709
12220WAT     H136902   6.799   7.482   2.632
12220WAT     H236903   6.886   7.464   2.770
12221WAT      O36904   4.564   9.321   8.630
12221WAT     H136905   4.555   9.265   8.547
12221WAT     H236906   4.475   9.357   8.656
12222WAT      O36907   1.304   8.926   7.641
12222WAT     H136908   1.310   9.010   7.696
12222WAT     H236909   1.211   8.890   7.644
12223WAT      O36910   8.708   6.225   4.280
12223WAT     H136911   8.654   6.271   4.210
12223WAT     H236912   8.699   6.273   4.367
12224WAT      O36913   5.756   2.304   3.674
12224WAT     H136914   5.750   2.224   3.614
12224WAT     H236915   5.846   2.348   3.662
12225WAT      O36916   8.772   4.069   4.041
12225WAT     H136917   8.834   4.114   4.106
12225WAT     H236918   8.806   4.081   3.948
12226WAT      O36919   4.225   5.087   3.456
12226WAT     H136920   4.149   5.030   3.424
12226WAT     H236921   4.236   5.166   3.397
12227WAT      O36922   2.056   0.412   9.791
12227WAT     H136923   2.020   0.320   9.775
12227WAT     H236924   2.110   0.413   9.876
12228WAT      O36925   4.900   4.286   8.243
12228WAT     H136926   4.853   4.360   8.290
12228WAT     H236927   4.935   4.220   8.309
12229WAT      O36928   4.882   5.392   7.336
12229WAT     H136929   4.929   5.303   7.344
12229WAT     H236930   4.950   5.465   7.328
12230WAT      O36931   0.963   9.660   4.195
12230WAT     H136932   0.959   9.666   4.295
12230WAT     H236933   0.934   9.746   4.155
12231WAT      O36934   5.255   5.015   7.807
12231WAT     H136935   5.270   4.920   7.778
12231WAT     H236936   5.305   5.077   7.747
12232WAT      O36937   7.099   5.830   6.111
12232WAT     H136938   7.074   5.824   6.208
12232WAT     H236939   7.145   5.917   6.094
12233WAT      O36940   0.445   7.646   0.097
12233WAT     H136941   0.494   7.624   0.181
12233WAT     H236942   0.429   7.745   0.093
12234WAT      O36943   1.431   3.245   3.785
12234WAT     H136944   1.380   3.268   3.868
12234WAT     H236945   1.388   3.168   3.740
12235WAT      O36946   5.282   6.518   7.140
12235WAT     H136947   5.216   6.593   7.127
12235WAT     H236948   5.330   6.501   7.054
12236WAT      O36949   5.953   9.261   7.038
12236WAT     H136950   5.991   9.325   6.971
12236WAT     H236951   5.966   9.167   7.006
12237WAT      O36952   8.352   4.853   5.542
12237WAT     H136953   8.317   4.817   5.629
12237WAT     H236954   8.320   4.948   5.531
12238WAT      O36955   8.387   9.792   9.034
12238WAT     H136956   8.367   9.727   9.107
12238WAT     H236957   8.434   9.871   9.071
12239WAT      O36958   9.759   1.381   0.462
12239WAT     H136959   9.664   1.409   0.472
12239WAT     H236960   9.794   1.351   0.551
12240WAT      O36961   4.247   0.748   7.690
12240WAT     H136962   4.171   0.797   7.732
12240WAT     H236963   4.213   0.686   7.619
12241WAT      O36964   7.125   7.682   3.056
12241WAT     H136965   7.155   7.674   2.961
12241WAT     H236966   7.204   7.700   3.114
12242WAT      O36967   2.389   0.208   9.867
12242WAT     H136968   2.306   0.193   9.920
12242WAT     H236969   2.460   0.246   9.926
12243WAT      O36970   7.427   9.704   1.524
12243WAT     H136971   7.520   9.668   1.531
12243WAT     H236972   7.362   9.632   1.545
12244WAT      O36973   6.264   3.583   6.532
12244WAT     H136974   6.284   3.575   6.434
12244WAT     H236975   6.295   3.672   6.565
12245WAT      O36976   9.657   3.732   3.336
12245WAT     H136977   9.557   3.736   3.345
12245WAT     H236978   9.683   3.645   3.294
12246WAT      O36979   8.999   3.723   3.435
12246WAT     H136980   8.989   3.809   3.385
12246WAT     H236981   8.919   3.666   3.420
12247WAT      O36982   1.793   0.713   1.309
12247WAT     H136983   1.838   0.720   1.398
12247WAT     H236984   1.698   0.684   1.322
12248WAT      O36985   4.365   5.128   1.379
12248WAT     H136986   4.313   5.055   1.424
12248WAT     H236987   4.402   5.190   1.448
12249WAT      O36988   4.241   3.564   7.661
12249WAT     H136989   4.157   3.580   7.608
12249WAT     H236990   4.250   3.467   7.681
12250WAT      O36991   4.915   5.559   5.736
12250WAT     H136992   4.861   5.601   5.810
12250WAT     H236993   4.853   5.522   5.667
12251WAT      O36994   3.444   6.167   9.318
12251WAT     H136995   3.504   6.153   9.397
12251WAT     H236996   3.375   6.236   9.341
12252WAT      O36997   4.839   0.674   0.839
12252WAT     H136998   4.890   0.754   0.869
12252WAT     H236999   4.851   0.600   0.904
12253WAT      O37000   4.738   1.097   4.365
12253WAT     H137001   4.665   1.072   4.428
12253WAT     H237002   4.705   1.169   4.303
12254WAT      O37003   6.466   0.381   8.138
12254WAT     H137004   6.433   0.371   8.232
12254WAT     H237005   6.388   0.379   8.076
12255WAT      O37006   1.545   5.777   4.817
12255WAT     H137007   1.604   5.775   4.897
12255WAT     H237008   1.588   5.726   4.742
12256WAT      O37009   0.277   2.567   6.689
12256WAT     H137010   0.268   2.610   6.779
12256WAT     H237011   0.373   2.561   6.664
12257WAT      O37012   7.927   8.354   4.135
12257WAT     H137013   7.899   8.320   4.045
12257WAT     H237014   7.851   8.344   4.200
12258WAT      O37015   3.573   3.348   0.424
12258WAT     H137016   3.643   3.340   0.353
12258WAT     H237017   3.594   3.287   0.500
12259WAT      O37018   0.830   7.739   3.409
12259WAT     H137019   0.894   7.662   3.405
12259WAT     H237020   0.755   7.724   3.344
12260WAT      O37021   1.258   0.652   1.361
12260WAT     H137022   1.179   0.702   1.326
12260WAT     H237023   1.276   0.680   1.456
12261WAT      O37024   0.832   1.273   5.593
12261WAT     H137025   0.822   1.209   5.517
12261WAT     H237026   0.746   1.322   5.606
12262WAT      O37027   4.622   0.738   1.643
12262WAT     H137028   4.671   0.824   1.628
12262WAT     H237029   4.604   0.727   1.741
12263WAT      O37030   4.654   3.222   9.319
12263WAT     H137031   4.710   3.250   9.241
12263WAT     H237032   4.584   3.157   9.288
12264WAT      O37033   4.227   4.718   8.799
12264WAT     H137034   4.174   4.801   8.817
12264WAT     H237035   4.180   4.639   8.838
12265WAT      O37036   3.850   4.858   7.535
12265WAT     H137037   3.927   4.912   7.503
12265WAT     H237038   3.881   4.793   7.604
12266WAT      O37039   6.043   7.264   5.855
12266WAT     H137040   6.110   7.253   5.928
12266WAT     H237041   6.017   7.175   5.819
12267WAT      O37042   8.980   1.024   8.160
12267WAT     H137043   8.990   0.937   8.112
12267WAT     H237044   8.957   1.096   8.094
12268WAT      O37045   4.356   0.048   5.109
12268WAT     H137046   4.386   0.096   5.027
12268WAT     H237047   4.432   0.042   5.174
12269WAT      O37048   3.797   5.386   1.099
12269WAT     H137049   3.750   5.469   1.130
12269WAT     H237050   3.896   5.403   1.099
12270WAT      O37051   0.025   0.479   8.876
12270WAT     H137052  -0.052   0.417   8.868
12270WAT     H237053   0.105   0.440   8.829
12271WAT      O37054   0.294   6.059   5.422
12271WAT     H137055   0.338   6.005   5.493
12271WAT     H237056   0.213   6.011   5.388
12272WAT      O37057   0.466   2.565   3.425
12272WAT     H137058   0.463   2.636   3.354
12272WAT     H237059   0.397   2.586   3.495
12273WAT      O37060   7.407   8.697   1.476
12273WAT     H137061   7.452   8.632   1.538
12273WAT     H237062   7.470   8.722   1.402
12274WAT      O37063   2.114   8.868   8.919
12274WAT     H137064   2.033   8.926   8.922
12274WAT     H237065   2.191   8.917   8.960
12275WAT      O37066   8.131   9.268   0.785
12275WAT     H137067   8.043   9.243   0.825
12275WAT     H237068   8.152   9.207   0.709
12276WAT      O37069   2.992   9.349   7.817
12276WAT     H137070   2.955   9.322   7.906
12276WAT     H237071   2.997   9.269   7.757
12277WAT      O37072   2.676   9.424   9.257
12277WAT     H137073   2.638   9.347   9.205
12277WAT     H237074   2.758   9.394   9.306
12278WAT      O37075   5.873   6.459   1.561
12278WAT     H137076   5.865   6.517   1.643
12278WAT     H237077   5.877   6.363   1.588
12279WAT      O37078   0.797   5.078   2.073
12279WAT     H137079   0.802   4.988   2.116
12279WAT     H237080   0.703   5.112   2.078
12280WAT      O37081   1.609   1.465   4.398
12280WAT     H137082   1.511   1.446   4.405
12280WAT     H237083   1.636   1.526   4.471
12281WAT      O37084   3.768   0.332   0.442
12281WAT     H137085   3.858   0.375   0.446
12281WAT     H237086   3.700   0.394   0.481
12282WAT      O37087   9.061   8.451   9.197
12282WAT     H137088   8.995   8.485   9.131
12282WAT     H237089   9.014   8.405   9.271
12283WAT      O37090   7.979   2.798   9.512
12283WAT     H137091   7.903   2.778   9.573
12283WAT     H237092   8.033   2.716   9.497
12284WAT      O37093   2.696   3.009   2.135
12284WAT     H137094   2.725   3.052   2.049
12284WAT     H237095   2.772   3.010   2.200
12285WAT      O37096   8.749   0.382   1.245
12285WAT     H137097   8.680   0.337   1.302
12285WAT     H237098   8.767   0.325   1.165
12286WAT      O37099   5.124   8.865   5.845
12286WAT     H137100   5.102   8.938   5.910
12286WAT     H237101   5.212   8.884   5.801
12287WAT      O37102   9.089   6.153   9.101
12287WAT     H137103   8.994   6.182   9.091
12287WAT     H237104   9.100   6.109   9.190
12288WAT      O37105   8.147   1.523   5.869
12288WAT     H137106   8.078   1.479   5.811
12288WAT     H237107   8.177   1.608   5.826
12289WAT      O37108   9.007   5.472   7.485
12289WAT     H137109   9.085   5.523   7.449
12289WAT     H237110   8.989   5.500   7.580
12290WAT      O37111   6.983   8.339   3.298
12290WAT     H137112   6.891   8.301   3.310
12290WAT     H237113   7.009   8.336   3.202
12291WAT      O37114   9.284   5.290   5.011
12291WAT     H137115   9.257   5.246   4.925
12291WAT     H237116   9.384   5.295   5.015
12292WAT      O37117   6.530   2.335   6.260
12292WAT     H137118   6.604   2.280   6.299
12292WAT     H237119   6.462   2.352   6.331
12293WAT      O37120   6.467   5.734   6.166
12293WAT     H137121   6.526   5.746   6.086
12293WAT     H237122   6.454   5.637   6.184
12294WAT      O37123   4.350   6.192   8.093
12294WAT     H137124   4.342   6.177   7.995
12294WAT     H237125   4.263   6.226   8.129
12295WAT      O37126   1.728   6.493   7.597
12295WAT     H137127   1.676   6.479   7.682
12295WAT     H237128   1.826   6.484   7.616
12296WAT      O37129   7.589   0.597   3.000
12296WAT     H137130   7.576   0.692   2.972
12296WAT     H237131   7.681   0.567   2.975
12297WAT      O37132   3.488   6.946   0.715
12297WAT     H137133   3.566   6.883   0.711
12297WAT     H237134   3.519   7.035   0.749
12298WAT      O37135   0.466   6.420   7.890
12298WAT     H137136   0.556   6.464   7.892
12298WAT     H237137   0.397   6.488   7.864
12299WAT      O37138   4.527   3.984   2.642
12299WAT     H137139   4.565   4.015   2.729
12299WAT     H237140   4.527   3.884   2.638
12300WAT      O37141   5.897   2.437   4.944
12300WAT     H137142   5.915   2.339   4.958
12300WAT     H237143   5.841   2.471   5.019
12301WAT      O37144   7.425   6.187   6.840
12301WAT     H137145   7.427   6.205   6.742
12301WAT     H237146   7.330   6.181   6.872
12302WAT      O37147   0.893   0.386   6.409
12302WAT     H137148   0.973   0.435   6.443
12302WAT     H237149   0.848   0.440   6.338
12303WAT      O37150   8.991   7.464   2.901
12303WAT     H137151   8.992   7.422   2.810
12303WAT     H237152   9.031   7.555   2.897
12304WAT      O37153   2.348   2.044   3.983
12304WAT     H137154   2.297   1.973   3.935
12304WAT     H237155   2.433   2.007   4.018
12305WAT      O37156   5.387   3.116   5.788
12305WAT     H137157   5.369   3.212   5.765
12305WAT     H237158   5.448   3.113   5.867
12306WAT      O37159   4.000   8.991   3.364
12306WAT     H137160   4.094   8.958   3.362
12306WAT     H237161   3.989   9.058   3.437
12307WAT      O37162   1.434   6.523   1.503
12307WAT     H137163   1.479   6.451   1.556
12307WAT     H237164   1.369   6.482   1.440
12308WAT      O37165   4.090   6.631   8.173
12308WAT     H137166   4.055   6.572   8.246
12308WAT     H237167   4.016   6.651   8.109
12309WAT      O37168   1.524   7.089   3.003
12309WAT     H137169   1.491   7.032   3.078
12309WAT     H237170   1.566   7.031   2.933
12310WAT      O37171   7.116   4.747   4.811
12310WAT     H137172   7.114   4.841   4.778
12310WAT     H237173   7.137   4.746   4.909
12311WAT      O37174   1.491   0.984   6.811
12311WAT     H137175   1.484   1.023   6.903
12311WAT     H237176   1.472   1.055   6.743
12312WAT      O37177   7.073   7.761   0.799
12312WAT     H137178   7.068   7.770   0.898
12312WAT     H237179   7.004   7.821   0.757
12313WAT      O37180   9.658   8.244   9.552
12313WAT     H137181   9.747   8.287   9.538
12313WAT     H237182   9.628   8.258   9.646
12314WAT      O37183   4.278   3.356   1.278
12314WAT     H137184   4.211   3.413   1.230
12314WAT     H237185   4.298   3.397   1.367
12315WAT      O37186   4.618   3.094   3.485
12315WAT     H137187   4.583   3.172   3.537
12315WAT     H237188   4.685   3.127   3.418
12316WAT      O37189   9.120   8.789   3.561
12316WAT     H137190   9.168   8.855   3.503
12316WAT     H237191   9.032   8.767   3.519
12317WAT      O37192   9.176   4.143   2.652
12317WAT     H137193   9.189   4.215   2.720
12317WAT     H237194   9.082   4.146   2.618
12318WAT      O37195   6.193   3.074   5.707
12318WAT     H137196   6.207   2.996   5.768
12318WAT     H237197   6.163   3.153   5.760
12319WAT      O37198   8.855   0.147   2.418
12319WAT     H137199   8.860   0.143   2.518
12319WAT     H237200   8.941   0.181   2.382
12320WAT      O37201   2.967   8.910   8.224
12320WAT     H137202   2.975   8.887   8.127
12320WAT     H237203   2.931   8.831   8.274
12321WAT      O37204   0.475   6.051   3.690
12321WAT     H137205   0.538   5.974   3.700
12321WAT     H237206   0.523   6.128   3.649
12322WAT      O37207   0.736   2.722   8.913
12322WAT     H137208   0.823   2.771   8.910
12322WAT     H237209   0.712   2.702   9.008
12323WAT      O37210   5.130   7.256   6.425
12323WAT     H137211   5.172   7.315   6.495
12323WAT     H237212   5.170   7.165   6.431
12324WAT      O37213   7.366   2.891   1.650
12324WAT     H137214   7.435   2.822   1.630
12324WAT     H237215   7.330   2.877   1.743
12325WAT      O37216   1.497   9.134   2.089
12325WAT     H137217   1.535   9.213   2.041
12325WAT     H237218   1.513   9.051   2.034
12326WAT      O37219   0.154   2.452   1.635
12326WAT     H137220   0.244   2.484   1.667
12326WAT     H237221   0.098   2.531   1.609
12327WAT      O37222   4.199   7.137   8.501
12327WAT     H137223   4.127   7.206   8.506
12327WAT     H237224   4.272   7.168   8.441
12328WAT      O37225   6.001   6.512   4.748
12328WAT     H137226   5.956   6.477   4.666
12328WAT     H237227   5.933   6.532   4.818
12329WAT      O37228   4.989   4.023   6.643
12329WAT     H137229   4.950   4.098   6.589
12329WAT     H237230   5.028   3.955   6.582
12330WAT      O37231   5.440   3.168   2.338
12330WAT     H137232   5.537   3.189   2.345
12330WAT     H237233   5.401   3.156   2.429
12331WAT      O37234   8.874   8.998   1.317
12331WAT     H137235   8.974   8.993   1.322
12331WAT     H237236   8.835   8.907   1.328
12332WAT      O37237   5.040   8.899   5.519
12332WAT     H137238   5.050   8.800   5.528
12332WAT     H237239   4.973   8.920   5.448
12333WAT      O37240   9.451   2.657   7.325
12333WAT     H137241   9.415   2.739   7.369
12333WAT     H237242   9.444   2.580   7.388
12334WAT      O37243   5.893   5.104   0.919
12334WAT     H137244   5.966   5.060   0.971
12334WAT     H237245   5.818   5.039   0.906
12335WAT      O37246   5.091   7.424   0.528
12335WAT     H137247   5.056   7.462   0.613
12335WAT     H237248   5.049   7.470   0.450
12336WAT      O37249   4.018   9.150   2.769
12336WAT     H137250   4.113   9.121   2.782
12336WAT     H237251   3.961   9.070   2.752
12337WAT      O37252   0.113   4.015   8.464
12337WAT     H137253   0.026   3.971   8.487
12337WAT     H237254   0.187   3.948   8.471
12338WAT      O37255   9.715   0.370   8.261
12338WAT     H137256   9.683   0.436   8.194
12338WAT     H237257   9.647   0.296   8.269
12339WAT      O37258   8.621   6.333   5.997
12339WAT     H137259   8.575   6.249   6.023
12339WAT     H237260   8.705   6.311   5.946
12340WAT      O37261   7.866   6.391   9.194
12340WAT     H137262   7.940   6.330   9.221
12340WAT     H237263   7.824   6.431   9.276
12341WAT      O37264   6.670   2.395   2.013
12341WAT     H137265   6.753   2.343   2.029
12341WAT     H237266   6.608   2.385   2.091
12342WAT      O37267   9.300   2.061   6.352
12342WAT     H137268   9.353   1.978   6.367
12342WAT     H237269   9.281   2.105   6.440
12343WAT      O37270   9.822   5.511   1.930
12343WAT     H137271   9.732   5.549   1.906
12343WAT     H237272   9.831   5.509   2.029
12344WAT      O37273   5.383   8.361   6.309
12344WAT     H137274   5.367   8.317   6.397
12344WAT     H237275   5.346   8.303   6.236
12345WAT      O37276   2.341   9.468   4.441
12345WAT     H137277   2.299   9.512   4.520
12345WAT     H237278   2.388   9.385   4.470
12346WAT      O37279   8.043   4.061   9.220
12346WAT     H137280   8.089   4.146   9.196
12346WAT     H237281   7.971   4.080   9.287
12347WAT      O37282   0.947   0.577   1.276
12347WAT     H137283   0.974   0.672   1.297
12347WAT     H237284   0.993   0.548   1.192
12348WAT      O37285   4.954   4.093   0.429
12348WAT     H137286   4.885   4.099   0.357
12348WAT     H237287   5.015   4.017   0.410
12349WAT      O37288   8.653   8.294   7.258
12349WAT     H137289   8.591   8.348   7.201
12349WAT     H237290   8.608   8.208   7.284
12350WAT      O37291   7.721   6.503   9.479
12350WAT     H137292   7.657   6.559   9.426
12350WAT     H237293   7.682   6.412   9.494
12351WAT      O37294   5.932   4.295   2.227
12351WAT     H137295   5.958   4.241   2.307
12351WAT     H237296   5.955   4.244   2.144
12352WAT      O37297   4.300   2.254   5.488
12352WAT     H137298   4.249   2.305   5.420
12352WAT     H237299   4.365   2.193   5.442
12353WAT      O37300   3.312   3.322   2.076
12353WAT     H137301   3.393   3.298   2.022
12353WAT     H237302   3.283   3.242   2.128
12354WAT      O37303   2.689   0.975   0.968
12354WAT     H137304   2.615   0.928   1.015
12354WAT     H237305   2.686   1.073   0.990
12355WAT      O37306   0.798   0.311   7.268
12355WAT     H137307   0.726   0.278   7.206
12355WAT     H237308   0.769   0.298   7.362
12356WAT      O37309   8.576   6.223   5.191
12356WAT     H137310   8.662   6.209   5.238
12356WAT     H237311   8.548   6.319   5.200
12357WAT      O37312   4.191   5.347   9.739
12357WAT     H137313   4.263   5.301   9.686
12357WAT     H237314   4.135   5.403   9.678
12358WAT      O37315   8.200   5.218   0.972
12358WAT     H137316   8.242   5.127   0.977
12358WAT     H237317   8.219   5.259   0.883
12359WAT      O37318   4.816   8.490   2.695
12359WAT     H137319   4.878   8.567   2.706
12359WAT     H237320   4.734   8.519   2.646
12360WAT      O37321   7.006   7.526   1.743
12360WAT     H137322   6.926   7.574   1.779
12360WAT     H237323   7.087   7.583   1.752
12361WAT      O37324   6.049   3.598   7.750
12361WAT     H137325   6.144   3.569   7.740
12361WAT     H237326   5.990   3.536   7.698
12362WAT      O37327   6.732   5.818   2.958
12362WAT     H137328   6.637   5.849   2.961
12362WAT     H237329   6.735   5.719   2.974
12363WAT      O37330   1.635   1.805   4.528
12363WAT     H137331   1.648   1.775   4.622
12363WAT     H237332   1.538   1.804   4.505
12364WAT      O37333   9.331   3.671   2.740
12364WAT     H137334   9.301   3.766   2.747
12364WAT     H237335   9.338   3.645   2.644
12365WAT      O37336   4.862   9.459   8.849
12365WAT     H137337   4.961   9.447   8.844
12365WAT     H237338   4.832   9.525   8.780
12366WAT      O37339   0.645   7.498   2.231
12366WAT     H137340   0.556   7.502   2.185
12366WAT     H237341   0.713   7.458   2.170
12367WAT      O37342   2.259   8.693   0.830
12367WAT     H137343   2.233   8.783   0.795
12367WAT     H237344   2.191   8.625   0.801
12368WAT      O37345   4.244   4.878   7.943
12368WAT     H137346   4.259   4.788   7.903
12368WAT     H237347   4.271   4.877   8.039
12369WAT      O37348   0.988   9.694   8.819
12369WAT     H137349   1.026   9.781   8.852
12369WAT     H237350   1.031   9.618   8.868
12370WAT      O37351   3.259   3.173   8.343
12370WAT     H137352   3.239   3.169   8.441
12370WAT     H237353   3.187   3.126   8.292
12371WAT      O37354   4.287   8.203   8.416
12371WAT     H137355   4.291   8.302   8.417
12371WAT     H237356   4.251   8.172   8.328
12372WAT      O37357   6.824   5.935   4.060
12372WAT     H137358   6.924   5.940   4.051
12372WAT     H237359   6.795   5.840   4.057
12373WAT      O37360   7.942   2.617   3.790
12373WAT     H137361   7.897   2.563   3.719
12373WAT     H237362   8.022   2.663   3.751
12374WAT      O37363   6.282   3.391   2.434
12374WAT     H137364   6.229   3.415   2.353
12374WAT     H237365   6.222   3.383   2.514
12375WAT      O37366   9.585   0.633   0.086
12375WAT     H137367   9.511   0.592   0.139
12375WAT     H237368   9.592   0.586  -0.002
12376WAT      O37369   7.650   7.517   3.413
12376WAT     H137370   7.691   7.427   3.428
12376WAT     H237371   7.613   7.521   3.320
12377WAT      O37372   1.555   7.758   0.006
12377WAT     H137373   1.494   7.799  -0.062
12377WAT     H237374   1.537   7.660   0.013
12378WAT      O37375   5.146   6.713   2.756
12378WAT     H137376   5.047   6.725   2.753
12378WAT     H237377   5.187   6.750   2.673
12379WAT      O37378   6.625   6.743   4.730
12379WAT     H137379   6.641   6.749   4.828
12379WAT     H237380   6.701   6.786   4.681
12380WAT      O37381   9.222   0.619   0.501
12380WAT     H137382   9.150   0.675   0.544
12380WAT     H237383   9.210   0.524   0.528
12381WAT      O37384   6.922   8.017   3.437
12381WAT     H137385   6.838   8.065   3.411
12381WAT     H237386   6.966   7.980   3.354
12382WAT      O37387   1.546   8.822   4.532
12382WAT     H137388   1.556   8.878   4.615
12382WAT     H237389   1.463   8.849   4.483
12383WAT      O37390   0.468   0.818   9.643
12383WAT     H137391   0.405   0.744   9.617
12383WAT     H237392   0.535   0.782   9.708
12384WAT      O37393   1.894   7.576   2.596
12384WAT     H137394   1.805   7.611   2.567
12384WAT     H237395   1.931   7.635   2.668
12385WAT      O37396   8.810   9.591   3.803
12385WAT     H137397   8.844   9.685   3.794
12385WAT     H237398   8.832   9.539   3.720
12386WAT      O37399   2.401   0.794   9.553
12386WAT     H137400   2.354   0.708   9.532
12386WAT     H237401   2.500   0.778   9.556
12387WAT      O37402   0.162   1.553   6.732
12387WAT     H137403   0.199   1.599   6.651
12387WAT     H237404   0.199   1.460   6.737
12388WAT      O37405   2.522   8.120   0.448
12388WAT     H137406   2.548   8.046   0.509
12388WAT     H237407   2.553   8.207   0.486
12389WAT      O37408   4.340   6.306   0.545
12389WAT     H137409   4.347   6.403   0.522
12389WAT     H237410   4.316   6.296   0.641
12390WAT      O37411   0.035   6.259   7.314
12390WAT     H137412  -0.039   6.255   7.381
12390WAT     H237413   0.075   6.351   7.314
12391WAT      O37414   5.484   8.339   7.203
12391WAT     H137415   5.560   8.274   7.204
12391WAT     H237416   5.490   8.398   7.284
12392WAT      O37417   3.985   1.678   2.944
12392WAT     H137418   4.074   1.723   2.948
12392WAT     H237419   3.928   1.708   3.021
12393WAT      O37420   0.567   3.397   1.247
12393WAT     H137421   0.493   3.332   1.264
12393WAT     H237422   0.642   3.379   1.310
12394WAT      O37423   4.005   2.658   9.273
12394WAT     H137424   3.965   2.573   9.307
12394WAT     H237425   3.931   2.722   9.250
12395WAT      O37426   4.677   2.689   3.950
12395WAT     H137427   4.757   2.734   3.991
12395WAT     H237428   4.664   2.600   3.993
12396WAT      O37429   3.088   8.124   9.439
12396WAT     H137430   3.131   8.062   9.373
12396WAT     H237431   3.141   8.209   9.444
12397WAT      O37432   9.120   0.737   2.921
12397WAT     H137433   9.081   0.827   2.943
12397WAT     H237434   9.148   0.735   2.825
12398WAT      O37435   4.796   4.397   2.182
12398WAT     H137436   4.839   4.397   2.091
12398WAT     H237437   4.807   4.307   2.224
12399WAT      O37438   8.994   8.942   9.194
12399WAT     H137439   9.064   8.874   9.174
12399WAT     H237440   8.906   8.897   9.206
12400WAT      O37441   8.133   7.293   9.628
12400WAT     H137442   8.086   7.212   9.594
12400WAT     H237443   8.091   7.323   9.714
12401WAT      O37444   6.875   7.010   5.306
12401WAT     H137445   6.777   6.992   5.306
12401WAT     H237446   6.903   7.042   5.397
12402WAT      O37447   0.491   7.433   2.987
12402WAT     H137448   0.404   7.476   3.010
12402WAT     H237449   0.567   7.492   3.016
12403WAT      O37450   0.510   4.571   6.680
12403WAT     H137451   0.440   4.513   6.639
12403WAT     H237452   0.570   4.607   6.609
12404WAT      O37453   3.182   5.173   6.855
12404WAT     H137454   3.219   5.082   6.870
12404WAT     H237455   3.254   5.234   6.822
12405WAT      O37456   8.661   6.302   3.012
12405WAT     H137457   8.710   6.361   3.076
12405WAT     H237458   8.722   6.230   2.980
12406WAT      O37459   8.345   2.586   4.439
12406WAT     H137460   8.347   2.529   4.522
12406WAT     H237461   8.327   2.528   4.360
12407WAT      O37462   0.822   9.187   9.050
12407WAT     H137463   0.837   9.128   8.971
12407WAT     H237464   0.889   9.166   9.121
12408WAT      O37465   6.794   8.134   5.622
12408WAT     H137466   6.713   8.168   5.574
12408WAT     H237467   6.862   8.105   5.554
12409WAT      O37468   3.202   1.079   7.751
12409WAT     H137469   3.222   1.036   7.663
12409WAT     H237470   3.207   1.179   7.741
12410WAT      O37471   1.567   1.392   5.575
12410WAT     H137472   1.543   1.367   5.669
12410WAT     H237473   1.515   1.473   5.548
12411WAT      O37474   9.718   2.633   5.042
12411WAT     H137475   9.729   2.545   5.088
12411WAT     H237476   9.686   2.618   4.948
12412WAT      O37477   9.035   8.318   3.802
12412WAT     H137478   8.964   8.328   3.732
12412WAT     H237479   8.997   8.271   3.881
12413WAT      O37480   8.714   7.120   3.612
12413WAT     H137481   8.690   7.029   3.646
12413WAT     H237482   8.812   7.136   3.624
12414WAT      O37483   1.978   7.330   3.722
12414WAT     H137484   2.049   7.349   3.655
12414WAT     H237485   1.989   7.390   3.801
12415WAT      O37486   9.058   0.955   2.717
12415WAT     H137487   9.064   1.023   2.643
12415WAT     H237488   9.079   0.864   2.680
12416WAT      O37489   9.027   5.068   7.226
12416WAT     H137490   9.006   5.123   7.307
12416WAT     H237491   9.068   4.982   7.254
12417WAT      O37492   3.368   0.581   7.423
12417WAT     H137493   3.368   0.484   7.448
12417WAT     H237494   3.299   0.597   7.352
12418WAT      O37495   9.525   0.192   2.826
12418WAT     H137496   9.503   0.107   2.777
12418WAT     H237497   9.481   0.269   2.781
12419WAT      O37498   6.379   9.231   0.550
12419WAT     H137499   6.324   9.288   0.488
12419WAT     H237500   6.410   9.286   0.627
12420WAT      O37501   0.421   5.531   6.444
12420WAT     H137502   0.411   5.627   6.416
12420WAT     H237503   0.332   5.493   6.468
12421WAT      O37504   5.762   9.181   7.255
12421WAT     H137505   5.797   9.245   7.186
12421WAT     H237506   5.786   9.088   7.229
12422WAT      O37507   9.862   1.845   7.114
12422WAT     H137508   9.906   1.829   7.203
12422WAT     H237509   9.773   1.799   7.112
12423WAT      O37510   3.992   1.852   3.320
12423WAT     H137511   3.919   1.892   3.375
12423WAT     H237512   4.074   1.908   3.327
12424WAT      O37513   8.235   0.253   2.891
12424WAT     H137514   8.302   0.269   2.964
12424WAT     H237515   8.233   0.156   2.869
12425WAT      O37516   8.443   5.715   5.703
12425WAT     H137517   8.488   5.746   5.787
12425WAT     H237518   8.457   5.783   5.631
12426WAT      O37519   9.583   1.203   4.125
12426WAT     H137520   9.524   1.283   4.131
12426WAT     H237521   9.669   1.221   4.173
12427WAT      O37522   8.276   3.448   5.657
12427WAT     H137523   8.322   3.394   5.586
12427WAT     H237524   8.231   3.386   5.721
12428WAT      O37525   4.168   2.099   3.072
12428WAT     H137526   4.227   2.021   3.054
12428WAT     H237527   4.130   2.092   3.164
12429WAT      O37528   0.181   9.761   0.167
12429WAT     H137529   0.172   9.671   0.209
12429WAT     H237530   0.277   9.790   0.172
12430WAT      O37531   3.753   7.214   0.950
12430WAT     H137532   3.727   7.144   1.017
12430WAT     H237533   3.671   7.250   0.905
12431WAT      O37534   9.758   7.562   0.011
12431WAT     H137535   9.793   7.564   0.104
12431WAT     H237536   9.658   7.568   0.013
12432WAT      O37537   3.365   9.124   1.118
12432WAT     H137538   3.438   9.190   1.135
12432WAT     H237539   3.351   9.069   1.201
12433WAT      O37540   0.138   3.868   9.084
12433WAT     H137541   0.225   3.908   9.053
12433WAT     H237542   0.068   3.883   9.014
12434WAT      O37543   5.743   0.453   6.202
12434WAT     H137544   5.740   0.363   6.157
12434WAT     H237545   5.834   0.467   6.240
12435WAT      O37546   4.246   8.930   2.104
12435WAT     H137547   4.296   8.868   2.164
12435WAT     H237548   4.169   8.969   2.154
12436WAT      O37549   3.163   0.242   5.969
12436WAT     H137550   3.225   0.177   5.925
12436WAT     H237551   3.090   0.192   6.015
12437WAT      O37552   9.374   5.613   2.984
12437WAT     H137553   9.419   5.691   2.941
12437WAT     H237554   9.384   5.620   3.084
12438WAT      O37555   0.107   5.742   7.659
12438WAT     H137556   0.120   5.703   7.568
12438WAT     H237557   0.196   5.761   7.700
12439WAT      O37558   9.151   0.513   5.613
12439WAT     H137559   9.125   0.597   5.564
12439WAT     H237560   9.234   0.531   5.667
12440WAT      O37561   3.441   8.332   1.817
12440WAT     H137562   3.454   8.419   1.865
12440WAT     H237563   3.393   8.348   1.731
12441WAT      O37564   9.103   1.504   5.766
12441WAT     H137565   9.045   1.526   5.845
12441WAT     H237566   9.179   1.446   5.795
12442WAT      O37567   4.999   5.788   2.881
12442WAT     H137568   4.958   5.808   2.792
12442WAT     H237569   4.930   5.746   2.941
12443WAT      O37570   2.569   2.936   5.274
12443WAT     H137571   2.520   2.989   5.205
12443WAT     H237572   2.551   2.973   5.364
12444WAT      O37573   9.748   1.721   1.479
12444WAT     H137574   9.824   1.731   1.415
12444WAT     H237575   9.779   1.744   1.571
12445WAT      O37576   4.921   6.222   3.458
12445WAT     H137577   4.941   6.303   3.513
12445WAT     H237578   5.001   6.199   3.403
12446WAT      O37579   9.684   2.300   3.340
12446WAT     H137580   9.753   2.269   3.274
12446WAT     H237581   9.700   2.396   3.362
12447WAT      O37582   5.434   4.354   0.576
12447WAT     H137583   5.486   4.280   0.534
12447WAT     H237584   5.419   4.334   0.673
12448WAT      O37585   5.846   6.475   7.212
12448WAT     H137586   5.783   6.513   7.280
12448WAT     H237587   5.924   6.432   7.259
12449WAT      O37588   9.350   2.071   5.255
12449WAT     H137589   9.274   2.032   5.306
12449WAT     H237590   9.325   2.080   5.159
12450WAT      O37591   8.073   0.711   5.518
12450WAT     H137592   8.080   0.632   5.579
12450WAT     H237593   8.114   0.790   5.562
12451WAT      O37594   2.454   4.928   3.899
12451WAT     H137595   2.413   5.020   3.903
12451WAT     H237596   2.508   4.913   3.981
12452WAT      O37597   3.965   4.297   7.046
12452WAT     H137598   3.981   4.207   7.087
12452WAT     H237599   4.047   4.326   6.997
12453WAT      O37600   8.246   1.492   9.604
12453WAT     H137601   8.231   1.429   9.527
12453WAT     H237602   8.162   1.544   9.621
12454WAT      O37603   1.864   5.457   0.238
12454WAT     H137604   1.837   5.536   0.293
12454WAT     H237605   1.904   5.388   0.298
12455WAT      O37606   8.712   6.837   1.417
12455WAT     H137607   8.649   6.881   1.482
12455WAT     H237608   8.765   6.768   1.466
12456WAT      O37609   9.343   8.674   8.297
12456WAT     H137610   9.360   8.674   8.396
12456WAT     H237611   9.429   8.661   8.248
12457WAT      O37612   7.238   5.680   7.137
12457WAT     H137613   7.318   5.671   7.078
12457WAT     H237614   7.263   5.663   7.232
12458WAT      O37615   4.212   8.261   3.945
12458WAT     H137616   4.185   8.232   3.853
12458WAT     H237617   4.158   8.211   4.012
12459WAT      O37618   7.199   7.373   4.544
12459WAT     H137619   7.220   7.354   4.448
12459WAT     H237620   7.277   7.349   4.601
12460WAT      O37621   5.062   5.400   5.894
12460WAT     H137622   5.142   5.453   5.922
12460WAT     H237623   5.008   5.453   5.828
12461WAT      O37624   3.959   8.606   5.464
12461WAT     H137625   3.874   8.657   5.448
12461WAT     H237626   3.947   8.511   5.434
12462WAT      O37627   9.099   6.063   6.460
12462WAT     H137628   9.183   6.026   6.498
12462WAT     H237629   9.035   6.084   6.534
12463WAT      O37630   0.696   7.825   0.833
12463WAT     H137631   0.682   7.782   0.922
12463WAT     H237632   0.613   7.876   0.807
12464WAT      O37633   7.043   7.764   1.080
12464WAT     H137634   6.950   7.729   1.071
12464WAT     H237635   7.102   7.692   1.117
12465WAT      O37636   6.402   0.856   7.812
12465WAT     H137637   6.313   0.900   7.814
12465WAT     H237638   6.469   0.918   7.772
12466WAT      O37639   5.231   6.755   9.486
12466WAT     H137640   5.194   6.829   9.543
12466WAT     H237641   5.189   6.668   9.513
12467WAT      O37642   5.292   8.548   2.866
12467WAT     H137643   5.385   8.539   2.902
12467WAT     H237644   5.242   8.463   2.882
12468WAT      O37645   7.827   0.880   0.186
12468WAT     H137646   7.904   0.829   0.146
12468WAT     H237647   7.807   0.843   0.277
12469WAT      O37648   1.115   0.216   5.901
12469WAT     H137649   1.208   0.252   5.913
12469WAT     H237650   1.103   0.188   5.806
12470WAT      O37651   4.304   3.745   0.080
12470WAT     H137652   4.287   3.842   0.098
12470WAT     H237653   4.400   3.724   0.098
12471WAT      O37654   3.443   1.818   5.968
12471WAT     H137655   3.514   1.818   5.897
12471WAT     H237656   3.460   1.743   6.032
12472WAT      O37657   5.316   0.626   7.016
12472WAT     H137658   5.326   0.666   7.108
12472WAT     H237659   5.220   0.608   6.998
12473WAT      O37660   0.192   9.612   4.760
12473WAT     H137661   0.141   9.582   4.840
12473WAT     H237662   0.128   9.631   4.685
12474WAT      O37663   5.401   4.877   0.635
12474WAT     H137664   5.371   4.966   0.603
12474WAT     H237665   5.322   4.818   0.651
12475WAT      O37666   9.051   8.128   5.194
12475WAT     H137667   9.141   8.166   5.174
12475WAT     H237668   8.981   8.178   5.143
12476WAT      O37669   0.074   9.361   4.491
12476WAT     H137670   0.016   9.330   4.416
12476WAT     H237671   0.037   9.446   4.529
12477WAT      O37672   3.047   7.549   1.486
12477WAT     H137673   3.092   7.603   1.557
12477WAT     H237674   3.113   7.488   1.442
12478WAT      O37675   4.421   5.317   9.555
12478WAT     H137676   4.482   5.250   9.512
12478WAT     H237677   4.420   5.401   9.502
12479WAT      O37678   6.697   0.916   5.811
12479WAT     H137679   6.654   1.001   5.782
12479WAT     H237680   6.782   0.936   5.860
12480WAT      O37681   6.570   6.328   6.865
12480WAT     H137682   6.666   6.354   6.879
12480WAT     H237683   6.565   6.254   6.799
12481WAT      O37684   2.956   2.149   8.631
12481WAT     H137685   2.985   2.230   8.580
12481WAT     H237686   2.896   2.094   8.574
12482WAT      O37687   4.176   1.751   1.058
12482WAT     H137688   4.154   1.842   1.024
12482WAT     H237689   4.129   1.736   1.145
12483WAT      O37690   0.956   5.939   0.820
12483WAT     H137691   0.883   5.997   0.855
12483WAT     H237692   0.999   5.890   0.896
12484WAT      O37693   5.184   5.395   6.356
12484WAT     H137694   5.125   5.324   6.318
12484WAT     H237695   5.186   5.386   6.456
12485WAT      O37696   2.491   8.763   3.438
12485WAT     H137697   2.462   8.676   3.480
12485WAT     H237698   2.440   8.778   3.353
12486WAT      O37699   1.563   7.632   2.145
12486WAT     H137700   1.547   7.701   2.216
12486WAT     H237701   1.582   7.678   2.058
12487WAT      O37702   4.706   5.528   5.566
12487WAT     H137703   4.655   5.612   5.547
12487WAT     H237704   4.768   5.510   5.489
12488WAT      O37705   6.596   2.102   3.165
12488WAT     H137706   6.579   2.181   3.223
12488WAT     H237707   6.570   2.123   3.071
12489WAT      O37708   9.770   2.127   5.303
12489WAT     H137709   9.751   2.144   5.400
12489WAT     H237710   9.867   2.144   5.286
12490WAT      O37711   8.588   8.918   3.193
12490WAT     H137712   8.678   8.956   3.213
12490WAT     H237713   8.522   8.954   3.258
12491WAT      O37714   0.232   0.187   7.068
12491WAT     H137715   0.147   0.162   7.113
12491WAT     H237716   0.223   0.175   6.969
12492WAT      O37717   7.636   5.107   7.061
12492WAT     H137718   7.717   5.056   7.090
12492WAT     H237719   7.652   5.144   6.970
12493WAT      O37720   1.675   9.050   6.614
12493WAT     H137721   1.629   9.066   6.702
12493WAT     H237722   1.774   9.049   6.629
12494WAT      O37723   9.486   9.237   8.311
12494WAT     H137724   9.535   9.248   8.224
12494WAT     H237725   9.405   9.180   8.297
12495WAT      O37726   1.959   6.538   4.327
12495WAT     H137727   1.985   6.442   4.341
12495WAT     H237728   2.015   6.578   4.255
12496WAT      O37729   4.272   9.029   1.248
12496WAT     H137730   4.248   9.105   1.187
12496WAT     H237731   4.358   9.049   1.294
12497WAT      O37732   1.260   7.031   2.286
12497WAT     H137733   1.284   6.936   2.304
12497WAT     H237734   1.332   7.091   2.322
12498WAT      O37735   1.287   2.195   7.106
12498WAT     H137736   1.333   2.283   7.094
12498WAT     H237737   1.304   2.160   7.198
12499WAT      O37738   6.203   5.200   1.351
12499WAT     H137739   6.258   5.144   1.412
12499WAT     H237740   6.115   5.221   1.395
12500WAT      O37741   4.642   3.779   2.931
12500WAT     H137742   4.546   3.772   2.908
12500WAT     H237743   4.697   3.785   2.847
12501WAT      O37744   1.190   7.698   5.847
12501WAT     H137745   1.149   7.789   5.846
12501WAT     H237746   1.180   7.658   5.938
12502WAT      O37747   6.085   3.784   4.717
12502WAT     H137748   6.049   3.785   4.623
12502WAT     H237749   6.161   3.847   4.724
12503WAT      O37750   4.679   0.298   1.634
12503WAT     H137751   4.637   0.304   1.544
12503WAT     H237752   4.629   0.232   1.690
12504WAT      O37753   3.595   8.991   4.646
12504WAT     H137754   3.528   8.926   4.683
12504WAT     H237755   3.605   8.976   4.548
12505WAT      O37756   4.079   6.700   1.789
12505WAT     H137757   4.010   6.645   1.742
12505WAT     H237758   4.042   6.734   1.876
12506WAT      O37759   4.786   6.102   7.142
12506WAT     H137760   4.852   6.148   7.082
12506WAT     H237761   4.700   6.153   7.141
12507WAT      O37762   0.317   6.853   1.463
12507WAT     H137763   0.306   6.761   1.501
12507WAT     H237764   0.342   6.846   1.366
12508WAT      O37765   9.021   6.143   8.777
12508WAT     H137766   9.091   6.208   8.750
12508WAT     H237767   8.977   6.104   8.696
12509WAT      O37768   6.254   8.954   3.227
12509WAT     H137769   6.218   8.940   3.135
12509WAT     H237770   6.181   8.937   3.294
12510WAT      O37771   0.690   4.355   6.948
12510WAT     H137772   0.637   4.439   6.954
12510WAT     H237773   0.738   4.352   6.860
12511WAT      O37774   6.246   1.827   4.485
12511WAT     H137775   6.287   1.807   4.396
12511WAT     H237776   6.150   1.852   4.472
12512WAT      O37777   1.082   4.453   5.958
12512WAT     H137778   1.075   4.543   6.001
12512WAT     H237779   0.992   4.410   5.954
12513WAT      O37780   8.482   4.119   6.415
12513WAT     H137781   8.408   4.119   6.347
12513WAT     H237782   8.447   4.088   6.503
12514WAT      O37783   1.678   7.114   3.417
12514WAT     H137784   1.602   7.076   3.469
12514WAT     H237785   1.659   7.108   3.319
12515WAT      O37786   1.638   7.861   4.760
12515WAT     H137787   1.711   7.929   4.770
12515WAT     H237788   1.666   7.775   4.801
12516WAT      O37789   0.810   4.666   1.495
12516WAT     H137790   0.873   4.682   1.419
12516WAT     H237791   0.724   4.629   1.459
12517WAT      O37792   6.552   2.529   1.807
12517WAT     H137793   6.590   2.480   1.885
12517WAT     H237794   6.535   2.465   1.732
12518WAT      O37795   3.813   9.140   8.161
12518WAT     H137796   3.715   9.157   8.169
12518WAT     H237797   3.844   9.164   8.069
12519WAT      O37798   6.154   8.820   2.107
12519WAT     H137799   6.163   8.758   2.184
12519WAT     H237800   6.170   8.914   2.138
12520WAT      O37801   6.404   1.209   4.757
12520WAT     H137802   6.398   1.151   4.676
12520WAT     H237803   6.331   1.278   4.754
12521WAT      O37804   4.605   1.868   3.704
12521WAT     H137805   4.618   1.955   3.658
12521WAT     H237806   4.687   1.811   3.692
12522WAT      O37807   0.667   7.045   7.974
12522WAT     H137808   0.748   7.048   7.915
12522WAT     H237809   0.681   7.106   8.052
12523WAT      O37810   6.704   2.879   1.529
12523WAT     H137811   6.687   2.833   1.442
12523WAT     H237812   6.633   2.853   1.594
12524WAT      O37813   6.320   7.443   9.657
12524WAT     H137814   6.288   7.351   9.679
12524WAT     H237815   6.412   7.456   9.696
12525WAT      O37816   1.262   1.443   5.683
12525WAT     H137817   1.253   1.453   5.584
12525WAT     H237818   1.184   1.393   5.720
12526WAT      O37819   0.362   3.945   0.658
12526WAT     H137820   0.324   3.988   0.741
12526WAT     H237821   0.358   4.010   0.582
12527WAT      O37822   2.416   0.544   2.756
12527WAT     H137823   2.444   0.634   2.723
12527WAT     H237824   2.448   0.531   2.850
12528WAT      O37825   6.517   6.245   1.270
12528WAT     H137826   6.418   6.232   1.278
12528WAT     H237827   6.564   6.192   1.341
12529WAT      O37828   6.506   4.485   7.649
12529WAT     H137829   6.484   4.388   7.640
12529WAT     H237830   6.581   4.509   7.587
12530WAT      O37831   8.359   3.577   2.071
12530WAT     H137832   8.271   3.530   2.075
12530WAT     H237833   8.415   3.538   1.999
12531WAT      O37834   2.084   1.927   9.657
12531WAT     H137835   2.072   1.937   9.559
12531WAT     H237836   2.175   1.961   9.683
12532WAT      O37837   7.221   4.497   5.313
12532WAT     H137838   7.250   4.523   5.221
12532WAT     H237839   7.163   4.569   5.351
12533WAT      O37840   1.348   9.658   8.672
12533WAT     H137841   1.312   9.751   8.672
12533WAT     H237842   1.293   9.601   8.611
12534WAT      O37843   6.562   9.492   7.182
12534WAT     H137844   6.482   9.431   7.189
12534WAT     H237845   6.531   9.586   7.171
12535WAT      O37846   4.590   6.395   5.157
12535WAT     H137847   4.587   6.448   5.242
12535WAT     H237848   4.583   6.298   5.178
12536WAT      O37849   4.015   1.130   4.712
12536WAT     H137850   4.031   1.209   4.772
12536WAT     H237851   4.055   1.148   4.622
12537WAT      O37852   6.444   2.335   1.592
12537WAT     H137853   6.447   2.383   1.505
12537WAT     H237854   6.364   2.365   1.644
12538WAT      O37855   4.459   4.950   3.517
12538WAT     H137856   4.525   5.005   3.466
12538WAT     H237857   4.366   4.974   3.487
12539WAT      O37858   0.011   1.043   2.733
12539WAT     H137859   0.014   0.978   2.656
12539WAT     H237860  -0.038   1.125   2.706
12540WAT      O37861   5.038   3.156   8.264
12540WAT     H137862   5.063   3.245   8.302
12540WAT     H237863   4.967   3.168   8.194
12541WAT      O37864   6.215   5.533   7.934
12541WAT     H137865   6.239   5.448   7.888
12541WAT     H237866   6.258   5.536   8.024
12542WAT      O37867   2.889   6.026   2.374
12542WAT     H137868   2.967   5.980   2.332
12542WAT     H237869   2.905   6.033   2.473
12543WAT      O37870   5.126   9.593   7.018
12543WAT     H137871   5.151   9.688   7.036
12543WAT     H237872   5.094   9.550   7.103
12544WAT      O37873   2.903   7.080   3.302
12544WAT     H137874   2.896   6.988   3.263
12544WAT     H237875   2.948   7.075   3.391
12545WAT      O37876   1.441   0.733   4.012
12545WAT     H137877   1.348   0.714   4.043
12545WAT     H237878   1.500   0.655   4.032
12546WAT      O37879   7.112   5.532   9.884
12546WAT     H137880   7.152   5.440   9.894
12546WAT     H237881   7.185   5.599   9.875
12547WAT      O37882   2.916   3.593   4.195
12547WAT     H137883   2.942   3.524   4.263
12547WAT     H237884   2.853   3.658   4.237
12548WAT      O37885   1.725   2.726   9.205
12548WAT     H137886   1.677   2.660   9.263
12548WAT     H237887   1.787   2.679   9.144
12549WAT      O37888   7.838   7.496   3.968
12549WAT     H137889   7.909   7.514   4.035
12549WAT     H237890   7.756   7.548   3.991
12550WAT      O37891   7.193   1.913   1.291
12550WAT     H137892   7.250   1.854   1.233
12550WAT     H237893   7.127   1.857   1.341
12551WAT      O37894   8.901   7.002   2.117
12551WAT     H137895   8.970   6.961   2.176
12551WAT     H237896   8.938   7.085   2.076
12552WAT      O37897   4.249   5.455   1.691
12552WAT     H137898   4.256   5.436   1.789
12552WAT     H237899   4.243   5.554   1.677
12553WAT      O37900   2.395   9.564   3.620
12553WAT     H137901   2.457   9.609   3.556
12553WAT     H237902   2.364   9.477   3.582
12554WAT      O37903   5.617   1.843   9.272
12554WAT     H137904   5.572   1.840   9.183
12554WAT     H237905   5.598   1.930   9.316
12555WAT      O37906   7.707   1.012   8.353
12555WAT     H137907   7.637   0.999   8.423
12555WAT     H237908   7.666   1.004   8.262
12556WAT      O37909   4.164   3.613   5.245
12556WAT     H137910   4.228   3.558   5.298
12556WAT     H237911   4.201   3.631   5.154
12557WAT      O37912   8.542   0.452   2.018
12557WAT     H137913   8.623   0.464   2.076
12557WAT     H237914   8.529   0.533   1.961
12558WAT      O37915   4.269   3.497   5.886
12558WAT     H137916   4.210   3.574   5.861
12558WAT     H237917   4.351   3.498   5.829
12559WAT      O37918   4.560   7.970   9.372
12559WAT     H137919   4.538   8.008   9.282
12559WAT     H237920   4.659   7.955   9.379
12560WAT      O37921   1.547   3.091   8.550
12560WAT     H137922   1.637   3.134   8.542
12560WAT     H237923   1.477   3.154   8.516
12561WAT      O37924   9.686   9.762   1.352
12561WAT     H137925   9.737   9.716   1.425
12561WAT     H237926   9.719   9.856   1.343
12562WAT      O37927   5.159   3.707   4.559
12562WAT     H137928   5.074   3.664   4.526
12562WAT     H237929   5.231   3.638   4.565
12563WAT      O37930   3.538   6.712   7.286
12563WAT     H137931   3.463   6.779   7.291
12563WAT     H237932   3.528   6.658   7.203
12564WAT      O37933   4.446   4.688   3.443
12564WAT     H137934   4.436   4.779   3.483
12564WAT     H237935   4.389   4.681   3.362
12565WAT      O37936   4.569   7.203   8.625
12565WAT     H137937   4.621   7.136   8.573
12565WAT     H237938   4.553   7.169   8.718
12566WAT      O37939   3.972   8.028   0.198
12566WAT     H137940   3.927   7.939   0.187
12566WAT     H237941   4.017   8.054   0.113
12567WAT      O37942   5.883   3.573   2.996
12567WAT     H137943   5.922   3.663   3.012
12567WAT     H237944   5.840   3.571   2.906
12568WAT      O37945   5.487   7.315   8.434
12568WAT     H137946   5.487   7.266   8.521
12568WAT     H237947   5.444   7.258   8.364
12569WAT      O37948   9.226   5.535   3.860
12569WAT     H137949   9.305   5.567   3.912
12569WAT     H237950   9.143   5.546   3.914
12570WAT      O37951   5.332   6.953   0.853
12570WAT     H137952   5.429   6.977   0.858
12570WAT     H237953   5.312   6.882   0.921
12571WAT      O37954   4.147   9.660   9.659
12571WAT     H137955   4.168   9.616   9.746
12571WAT     H237956   4.050   9.683   9.655
12572WAT      O37957   7.155   7.019   0.594
12572WAT     H137958   7.081   6.953   0.606
12572WAT     H237959   7.241   6.971   0.579
12573WAT      O37960   8.458   0.572   3.520
12573WAT     H137961   8.395   0.591   3.445
12573WAT     H237962   8.518   0.651   3.534
12574WAT      O37963   1.031   1.469   1.784
12574WAT     H137964   0.997   1.534   1.716
12574WAT     H237965   0.969   1.466   1.862
12575WAT      O37966   4.688   1.777   8.041
12575WAT     H137967   4.611   1.804   8.098
12575WAT     H237968   4.672   1.686   8.003
12576WAT      O37969   3.521   4.617   4.663
12576WAT     H137970   3.525   4.691   4.595
12576WAT     H237971   3.605   4.564   4.660
12577WAT      O37972   4.527   2.294   0.969
12577WAT     H137973   4.500   2.215   1.024
12577WAT     H237974   4.447   2.333   0.925
12578WAT      O37975   9.324   4.946   0.667
12578WAT     H137976   9.308   5.023   0.605
12578WAT     H237977   9.372   4.873   0.618
12579WAT      O37978   9.341   4.989   5.177
12579WAT     H137979   9.280   5.065   5.202
12579WAT     H237980   9.323   4.911   5.237
12580WAT      O37981   0.573   6.365   0.248
12580WAT     H137982   0.481   6.401   0.232
12580WAT     H237983   0.609   6.328   0.163
12581WAT      O37984   9.301   2.492   4.901
12581WAT     H137985   9.329   2.416   4.960
12581WAT     H237986   9.356   2.573   4.922
12582WAT      O37987   6.918   3.953   6.111
12582WAT     H137988   6.897   4.049   6.128
12582WAT     H237989   7.014   3.936   6.131
12583WAT      O37990   5.625   9.202   8.237
12583WAT     H137991   5.652   9.151   8.155
12583WAT     H237992   5.532   9.178   8.262
12584WAT      O37993   4.335   6.362   7.681
12584WAT     H137994   4.287   6.429   7.625
12584WAT     H237995   4.425   6.343   7.641
12585WAT      O37996   8.345   2.110   8.936
12585WAT     H137997   8.351   2.209   8.939
12585WAT     H237998   8.250   2.081   8.948
12586WAT      O37999   7.636   4.933   2.107
12586WAT     H138000   7.546   4.890   2.097
12586WAT     H238001   7.705   4.877   2.060
12587WAT      O38002   7.765   9.057   1.356
12587WAT     H138003   7.844   9.063   1.294
12587WAT     H238004   7.769   9.133   1.421
12588WAT      O38005   2.434   0.576   7.634
12588WAT     H138006   2.460   0.483   7.658
12588WAT     H238007   2.341   0.595   7.667
12589WAT      O38008   3.444   0.392   6.713
12589WAT     H138009   3.507   0.456   6.756
12589WAT     H238010   3.356   0.438   6.697
12590WAT      O38011   1.272   9.067   9.805
12590WAT     H138012   1.214   9.071   9.887
12590WAT     H238013   1.365   9.041   9.831
12591WAT      O38014   5.865   1.396   8.771
12591WAT     H138015   5.865   1.475   8.832
12591WAT     H238016   5.957   1.355   8.769
12592WAT      O38017   4.823   0.977   5.045
12592WAT     H138018   4.757   0.904   5.063
12592WAT     H238019   4.802   1.056   5.103
12593WAT      O38020   0.011   6.885   1.093
12593WAT     H138021  -0.001   6.895   0.994
12593WAT     H238022   0.078   6.952   1.125
12594WAT      O38023   8.020   4.808   6.624
12594WAT     H138024   8.049   4.827   6.717
12594WAT     H238025   8.090   4.841   6.560
12595WAT      O38026   6.507   3.031   1.756
12595WAT     H138027   6.464   3.000   1.671
12595WAT     H238028   6.548   2.953   1.803
12596WAT      O38029   3.489   9.744   9.691
12596WAT     H138030   3.398   9.778   9.716
12596WAT     H238031   3.518   9.788   9.606
12597WAT      O38032   6.137   8.857   7.226
12597WAT     H138033   6.169   8.777   7.276
12597WAT     H238034   6.200   8.878   7.152
12598WAT      O38035   6.513   2.419   7.684
12598WAT     H138036   6.584   2.388   7.747
12598WAT     H238037   6.536   2.391   7.591
12599WAT      O38038   7.393   7.742   3.150
12599WAT     H138039   7.447   7.821   3.121
12599WAT     H238040   7.447   7.659   3.143
12600WAT      O38041   2.773   8.259   4.009
12600WAT     H138042   2.731   8.300   4.090
12600WAT     H238043   2.798   8.332   3.945
12601WAT      O38044   6.741   2.861   9.245
12601WAT     H138045   6.728   2.859   9.344
12601WAT     H238046   6.838   2.869   9.224
12602WAT      O38047   0.956   3.053   6.149
12602WAT     H138048   0.878   3.105   6.113
12602WAT     H238049   0.982   3.088   6.238
12603WAT      O38050   9.334   7.248   6.187
12603WAT     H138051   9.269   7.314   6.225
12603WAT     H238052   9.388   7.208   6.261
12604WAT      O38053   0.774   4.499   9.351
12604WAT     H138054   0.757   4.407   9.386
12604WAT     H238055   0.802   4.558   9.427
12605WAT      O38056   5.571   0.220   3.304
12605WAT     H138057   5.492   0.281   3.298
12605WAT     H238058   5.634   0.239   3.229
12606WAT      O38059   7.738   9.564   0.606
12606WAT     H138060   7.665   9.582   0.672
12606WAT     H238061   7.716   9.608   0.519
12607WAT      O38062   0.900   4.091   7.728
12607WAT     H138063   0.922   4.015   7.790
12607WAT     H238064   0.802   4.111   7.734
12608WAT      O38065   3.071   3.557   3.954
12608WAT     H138066   3.048   3.609   4.036
12608WAT     H238067   2.989   3.512   3.919
12609WAT      O38068   7.911   3.703   6.593
12609WAT     H138069   7.974   3.643   6.544
12609WAT     H238070   7.904   3.672   6.688
12610WAT      O38071   3.511   4.973   5.043
12610WAT     H138072   3.607   4.991   5.024
12610WAT     H238073   3.492   4.990   5.140
12611WAT      O38074   7.889   8.883   9.213
12611WAT     H138075   7.829   8.916   9.286
12611WAT     H238076   7.917   8.960   9.156
12612WAT      O38077   7.920   8.196   4.494
12612WAT     H138078   8.016   8.206   4.522
12612WAT     H238079   7.861   8.237   4.563
12613WAT      O38080   2.496   3.694   2.306
12613WAT     H138081   2.589   3.683   2.343
12613WAT     H238082   2.441   3.614   2.330
12614WAT      O38083   3.471   4.096   4.613
12614WAT     H138084   3.436   4.037   4.541
12614WAT     H238085   3.395   4.150   4.651
12615WAT      O38086   7.780   3.825   8.249
12615WAT     H138087   7.689   3.860   8.270
12615WAT     H238088   7.775   3.727   8.231
12616WAT      O38089   5.313   8.619   1.822
12616WAT     H138090   5.351   8.540   1.870
12616WAT     H238091   5.235   8.655   1.873
12617WAT      O38092   5.511   7.321   0.569
12617WAT     H138093   5.531   7.419   0.577
12617WAT     H238094   5.413   7.306   0.581
12618WAT      O38095   7.850   1.047   1.895
12618WAT     H138096   7.772   1.024   1.837
12618WAT     H238097   7.820   1.055   1.990
12619WAT      O38098   8.187   6.548   5.985
12619WAT     H138099   8.133   6.573   6.066
12619WAT     H238100   8.127   6.545   5.905
12620WAT      O38101   5.489   2.417   8.191
12620WAT     H138102   5.568   2.362   8.162
12620WAT     H238103   5.518   2.480   8.263
12621WAT      O38104   0.022   3.780   4.155
12621WAT     H138105  -0.048   3.840   4.117
12621WAT     H238106   0.004   3.686   4.128
12622WAT      O38107   6.364   3.275   9.885
12622WAT     H138108   6.456   3.238   9.875
12622WAT     H238109   6.368   3.364   9.929
12623WAT      O38110   1.095   0.102   7.852
12623WAT     H138111   1.107   0.118   7.754
12623WAT     H238112   1.048   0.180   7.893
12624WAT      O38113   6.808   1.459   1.252
12624WAT     H138114   6.813   1.363   1.278
12624WAT     H238115   6.761   1.467   1.165
12625WAT      O38116   8.698   3.044   7.389
12625WAT     H138117   8.638   3.095   7.328
12625WAT     H238118   8.770   3.000   7.335
12626WAT      O38119   8.466   8.401   6.544
12626WAT     H138120   8.369   8.423   6.542
12626WAT     H238121   8.483   8.320   6.487
12627WAT      O38122   1.051   0.646   8.394
12627WAT     H138123   1.026   0.646   8.297
12627WAT     H238124   1.148   0.670   8.403
12628WAT      O38125   8.738   5.279   5.574
12628WAT     H138126   8.788   5.358   5.609
12628WAT     H238127   8.750   5.202   5.637
12629WAT      O38128   8.778   0.384   3.333
12629WAT     H138129   8.778   0.484   3.341
12629WAT     H238130   8.684   0.351   3.334
12630WAT      O38131   8.173   3.513   1.841
12630WAT     H138132   8.215   3.600   1.813
12630WAT     H238133   8.113   3.529   1.919
12631WAT      O38134   9.625   5.686   0.117
12631WAT     H138135   9.635   5.593   0.153
12631WAT     H238136   9.692   5.701   0.044
12632WAT      O38137   6.313   5.110   5.513
12632WAT     H138138   6.388   5.084   5.574
12632WAT     H238139   6.228   5.119   5.566
12633WAT      O38140   1.455   2.173   6.369
12633WAT     H138141   1.505   2.086   6.375
12633WAT     H238142   1.463   2.221   6.456
12634WAT      O38143   6.125   5.160   1.097
12634WAT     H138144   6.147   5.169   1.194
12634WAT     H238145   6.184   5.091   1.055
12635WAT      O38146   5.510   9.334   8.626
12635WAT     H138147   5.593   9.301   8.670
12635WAT     H238148   5.432   9.278   8.654
12636WAT      O38149   2.704   9.031   8.427
12636WAT     H138150   2.735   8.975   8.504
12636WAT     H238151   2.759   9.008   8.347
12637WAT      O38152   5.416   8.557   0.478
12637WAT     H138153   5.392   8.499   0.556
12637WAT     H238154   5.360   8.532   0.399
12638WAT      O38155   0.423   7.372   9.569
12638WAT     H138156   0.498   7.387   9.505
12638WAT     H238157   0.404   7.274   9.575
12639WAT      O38158   4.047   2.104   6.471
12639WAT     H138159   4.094   2.027   6.514
12639WAT     H238160   4.102   2.139   6.395
12640WAT      O38161   1.571   3.474   9.696
12640WAT     H138162   1.594   3.517   9.783
12640WAT     H238163   1.525   3.387   9.712
12641WAT      O38164   9.006   2.025   6.245
12641WAT     H138165   9.100   2.054   6.264
12641WAT     H238166   8.969   1.979   6.325
12642WAT      O38167   2.944   8.644   4.940
12642WAT     H138168   3.044   8.634   4.943
12642WAT     H238169   2.913   8.688   5.024
12643WAT      O38170   8.039   6.066   1.854
12643WAT     H138171   8.068   6.161   1.840
12643WAT     H238172   7.944   6.056   1.826
12644WAT      O38173   7.940   6.240   9.648
12644WAT     H138174   7.892   6.223   9.734
12644WAT     H238175   7.938   6.337   9.627
12645WAT      O38176   3.217   1.584   7.795
12645WAT     H138177   3.130   1.591   7.746
12645WAT     H238178   3.242   1.674   7.831
12646WAT      O38179   9.246   5.449   7.268
12646WAT     H138180   9.166   5.486   7.220
12646WAT     H238181   9.322   5.438   7.204
12647WAT      O38182   2.041   9.617   3.579
12647WAT     H138183   2.110   9.645   3.513
12647WAT     H238184   1.970   9.687   3.586
12648WAT      O38185   9.428   2.266   8.884
12648WAT     H138186   9.442   2.321   8.802
12648WAT     H238187   9.516   2.229   8.915
12649WAT      O38188   7.098   7.898   7.416
12649WAT     H138189   7.123   7.948   7.333
12649WAT     H238190   7.022   7.837   7.396
12650WAT      O38191   5.754   1.642   1.790
12650WAT     H138192   5.796   1.664   1.878
12650WAT     H238193   5.666   1.688   1.782
12651WAT      O38194   6.027   0.452   7.465
12651WAT     H138195   6.011   0.527   7.400
12651WAT     H238196   5.962   0.459   7.540
12652WAT      O38197   3.521   8.364   2.550
12652WAT     H138198   3.577   8.385   2.471
12652WAT     H238199   3.564   8.400   2.633
12653WAT      O38200   6.882   8.242   6.409
12653WAT     H138201   6.899   8.188   6.492
12653WAT     H238202   6.820   8.192   6.349
12654WAT      O38203   8.332   2.693   6.633
12654WAT     H138204   8.308   2.762   6.564
12654WAT     H238205   8.248   2.657   6.674
12655WAT      O38206   3.833   3.438   3.760
12655WAT     H138207   3.886   3.358   3.733
12655WAT     H238208   3.868   3.474   3.846
12656WAT      O38209   8.902   5.556   5.382
12656WAT     H138210   8.870   5.516   5.467
12656WAT     H238211   8.937   5.484   5.322
12657WAT      O38212   9.154   0.459   2.938
12657WAT     H138213   9.101   0.422   3.014
12657WAT     H238214   9.162   0.558   2.949
12658WAT      O38215   6.122   1.564   3.506
12658WAT     H138216   6.166   1.520   3.428
12658WAT     H238217   6.055   1.502   3.546
12659WAT      O38218   3.805   1.044   0.718
12659WAT     H138219   3.721   1.099   0.708
12659WAT     H238220   3.807   0.973   0.648
12660WAT      O38221   1.610   4.026   7.850
12660WAT     H138222   1.687   3.999   7.908
12660WAT     H238223   1.543   3.953   7.846
12661WAT      O38224   8.321   5.432   7.589
12661WAT     H138225   8.406   5.484   7.595
12661WAT     H238226   8.342   5.335   7.584
12662WAT      O38227   2.677   7.031   7.796
12662WAT     H138228   2.633   7.026   7.706
12662WAT     H238229   2.764   6.981   7.794
12663WAT      O38230   0.844   6.919   7.500
12663WAT     H138231   0.933   6.875   7.503
12663WAT     H238232   0.852   7.014   7.531
12664WAT      O38233   5.569   3.660   8.796
12664WAT     H138234   5.578   3.638   8.699
12664WAT     H238235   5.487   3.717   8.809
12665WAT      O38236   2.265   4.585   2.885
12665WAT     H138237   2.308   4.496   2.871
12665WAT     H238238   2.291   4.647   2.811
12666WAT      O38239   0.690   5.273   3.333
12666WAT     H138240   0.743   5.318   3.405
12666WAT     H238241   0.753   5.238   3.263
12667WAT      O38242   6.854   1.156   6.800
12667WAT     H138243   6.937   1.102   6.785
12667WAT     H238244   6.836   1.162   6.898
12668WAT      O38245   8.308   0.439   9.162
12668WAT     H138246   8.379   0.464   9.096
12668WAT     H238247   8.321   0.490   9.247
12669WAT      O38248   6.534   1.002   1.898
12669WAT     H138249   6.602   1.057   1.850
12669WAT     H238250   6.444   1.020   1.859
12670WAT      O38251   2.607   1.362   4.027
12670WAT     H138252   2.649   1.277   3.996
12670WAT     H238253   2.651   1.391   4.112
12671WAT      O38254   5.907   9.704   5.309
12671WAT     H138255   5.910   9.611   5.275
12671WAT     H238256   5.945   9.767   5.241
12672WAT      O38257   6.604   9.778   8.070
12672WAT     H138258   6.643   9.686   8.062
12672WAT     H238259   6.639   9.822   8.152
12673WAT      O38260   7.639   3.884   9.018
12673WAT     H138261   7.737   3.863   9.013
12673WAT     H238262   7.612   3.895   9.113
12674WAT      O38263   4.480   5.501   3.956
12674WAT     H138264   4.531   5.487   4.042
12674WAT     H238265   4.543   5.494   3.879
12675WAT      O38266   7.336   6.372   1.197
12675WAT     H138267   7.266   6.360   1.126
12675WAT     H238268   7.388   6.455   1.177
12676WAT      O38269   4.062   3.284   2.355
12676WAT     H138270   4.023   3.274   2.446
12676WAT     H238271   4.160   3.306   2.363
12677WAT      O38272   3.718   8.225   5.624
12677WAT     H138273   3.731   8.191   5.717
12677WAT     H238274   3.771   8.169   5.560
12678WAT      O38275   7.559   1.911   3.727
12678WAT     H138276   7.546   2.008   3.746
12678WAT     H238277   7.470   1.869   3.705
12679WAT      O38278   0.563   4.890   9.397
12679WAT     H138279   0.490   4.951   9.429
12679WAT     H238280   0.651   4.937   9.406
12680WAT      O38281   0.550   8.285   3.828
12680WAT     H138282   0.531   8.259   3.733
12680WAT     H238283   0.578   8.381   3.831
12681WAT      O38284   8.726   8.179   9.864
12681WAT     H138285   8.671   8.230   9.928
12681WAT     H238286   8.777   8.242   9.805
12682WAT      O38287   7.607   6.530   7.262
12682WAT     H138288   7.515   6.569   7.253
12682WAT     H238289   7.601   6.435   7.292
12683WAT      O38290   1.021   0.629   4.432
12683WAT     H138291   1.041   0.675   4.519
12683WAT     H238292   0.948   0.677   4.385
12684WAT      O38293   2.132   8.109   7.425
12684WAT     H138294   2.109   8.205   7.441
12684WAT     H238295   2.226   8.102   7.392
12685WAT      O38296   8.126   2.916   1.139
12685WAT     H138297   8.138   2.824   1.102
12685WAT     H238298   8.034   2.926   1.176
12686WAT      O38299   2.406   7.932   2.387
12686WAT     H138300   2.309   7.949   2.369
12686WAT     H238301   2.438   7.859   2.328
12687WAT      O38302   9.294   3.147   3.490
12687WAT     H138303   9.301   3.048   3.480
12687WAT     H238304   9.367   3.180   3.551
12688WAT      O38305   9.234   6.530   3.112
12688WAT     H138306   9.208   6.441   3.148
12688WAT     H238307   9.153   6.577   3.078
12689WAT      O38308   5.745   4.876   0.961
12689WAT     H138309   5.788   4.878   1.051
12689WAT     H238310   5.732   4.781   0.932
12690WAT      O38311   3.409   3.239   0.966
12690WAT     H138312   3.356   3.171   0.916
12690WAT     H238313   3.466   3.291   0.903
12691WAT      O38314   7.325   7.192   9.441
12691WAT     H138315   7.367   7.149   9.520
12691WAT     H238316   7.321   7.291   9.454
12692WAT      O38317   7.641   0.086   6.791
12692WAT     H138318   7.676   0.105   6.883
12692WAT     H238319   7.664   0.162   6.730
12693WAT      O38320   5.993   4.367   6.800
12693WAT     H138321   5.964   4.276   6.829
12693WAT     H238322   5.961   4.435   6.866
12694WAT      O38323   2.234   3.703   4.229
12694WAT     H138324   2.197   3.630   4.287
12694WAT     H238325   2.174   3.715   4.150
12695WAT      O38326   9.020   6.877   5.379
12695WAT     H138327   9.098   6.901   5.321
12695WAT     H238328   9.046   6.884   5.475
12696WAT      O38329   0.224   6.452   1.205
12696WAT     H138330   0.308   6.489   1.246
12696WAT     H238331   0.149   6.516   1.219
12697WAT      O38332   4.540   9.688   8.775
12697WAT     H138333   4.551   9.784   8.749
12697WAT     H238334   4.616   9.635   8.738
12698WAT      O38335   3.452   1.090   6.933
12698WAT     H138336   3.521   1.162   6.921
12698WAT     H238337   3.389   1.090   6.856
12699WAT      O38338   3.497   4.630   6.254
12699WAT     H138339   3.485   4.554   6.318
12699WAT     H238340   3.558   4.601   6.179
12700WAT      O38341   8.455   2.799   0.643
12700WAT     H138342   8.389   2.862   0.602
12700WAT     H238343   8.436   2.790   0.741
12701WAT      O38344   0.684   4.201   8.756
12701WAT     H138345   0.648   4.228   8.845
12701WAT     H238346   0.773   4.244   8.741
12702WAT      O38347   6.092   2.800   7.923
12702WAT     H138348   6.046   2.763   7.843
12702WAT     H238349   6.184   2.764   7.930
12703WAT      O38350   5.221   7.434   8.294
12703WAT     H138351   5.244   7.344   8.258
12703WAT     H238352   5.122   7.443   8.299
12704WAT      O38353   4.333   1.901   8.374
12704WAT     H138354   4.341   1.858   8.464
12704WAT     H238355   4.238   1.926   8.358
12705WAT      O38356   4.664   3.488   9.450
12705WAT     H138357   4.741   3.552   9.451
12705WAT     H238358   4.637   3.467   9.544
12706WAT      O38359   1.295   7.828   0.699
12706WAT     H138360   1.291   7.759   0.626
12706WAT     H238361   1.285   7.919   0.659
12707WAT      O38362   5.169   2.604   5.230
12707WAT     H138363   5.232   2.679   5.252
12707WAT     H238364   5.077   2.626   5.263
12708WAT      O38365   8.076   3.199   1.398
12708WAT     H138366   8.109   3.212   1.491
12708WAT     H238367   8.002   3.132   1.397
12709WAT      O38368   4.898   1.907   9.735
12709WAT     H138369   4.939   1.889   9.824
12709WAT     H238370   4.956   1.971   9.684
12710WAT      O38371   0.451   7.307   6.937
12710WAT     H138372   0.454   7.329   6.840
12710WAT     H238373   0.356   7.291   6.965
12711WAT      O38374   0.602   2.052   8.807
12711WAT     H138375   0.585   1.966   8.758
12711WAT     H238376   0.689   2.045   8.856
12712WAT      O38377   4.295   8.527   5.475
12712WAT     H138378   4.379   8.554   5.430
12712WAT     H238379   4.264   8.601   5.536
12713WAT      O38380   3.120   6.048   9.489
12713WAT     H138381   3.086   6.133   9.528
12713WAT     H238382   3.137   6.061   9.391
12714WAT      O38383   0.981   6.490   8.147
12714WAT     H138384   0.998   6.588   8.134
12714WAT     H238385   0.956   6.473   8.242
12715WAT      O38386   1.925   0.781   4.147
12715WAT     H138387   1.936   0.869   4.192
12715WAT     H238388   1.967   0.709   4.204
12716WAT      O38389   5.530   0.610   6.053
12716WAT     H138390   5.563   0.671   5.981
12716WAT     H238391   5.606   0.582   6.111
12717WAT      O38392   4.148   0.387   7.977
12717WAT     H138393   4.230   0.413   8.027
12717WAT     H238394   4.171   0.364   7.882
12718WAT      O38395   7.772   5.488   3.876
12718WAT     H138396   7.857   5.435   3.863
12718WAT     H238397   7.792   5.569   3.931
12719WAT      O38398   1.408   6.704   6.953
12719WAT     H138399   1.464   6.666   7.027
12719WAT     H238400   1.464   6.763   6.896
12720WAT      O38401   7.093   4.659   0.410
12720WAT     H138402   7.102   4.606   0.494
12720WAT     H238403   7.013   4.627   0.359
12721WAT      O38404   8.339   1.282   0.574
12721WAT     H138405   8.347   1.247   0.481
12721WAT     H238406   8.247   1.264   0.609
12722WAT      O38407   0.243   8.420   4.245
12722WAT     H138408   0.178   8.496   4.248
12722WAT     H238409   0.249   8.385   4.152
12723WAT      O38410   3.276   5.335   7.505
12723WAT     H138411   3.221   5.257   7.476
12723WAT     H238412   3.363   5.303   7.543
12724WAT      O38413   9.704   2.801   2.507
12724WAT     H138414   9.699   2.779   2.409
12724WAT     H238415   9.679   2.720   2.561
12725WAT      O38416   2.845   2.153   6.183
12725WAT     H138417   2.941   2.131   6.169
12725WAT     H238418   2.831   2.179   6.279
12726WAT      O38419   0.980   4.440   2.420
12726WAT     H138420   0.985   4.510   2.491
12726WAT     H238421   1.072   4.407   2.398
12727WAT      O38422   1.627   4.578   7.021
12727WAT     H138423   1.708   4.536   6.980
12727WAT     H238424   1.616   4.546   7.115
12728WAT      O38425   7.404   1.621   1.867
12728WAT     H138426   7.359   1.534   1.888
12728WAT     H238427   7.459   1.611   1.784
12729WAT      O38428   5.743   9.620   8.640
12729WAT     H138429   5.747   9.696   8.705
12729WAT     H238430   5.659   9.568   8.656
12730WAT      O38431   8.177   3.285   2.309
12730WAT     H138432   8.108   3.215   2.291
12730WAT     H238433   8.268   3.246   2.297
12731WAT      O38434   2.491   5.666   0.090
12731WAT     H138435   2.471   5.670  -0.008
12731WAT     H238436   2.531   5.577   0.112
12732WAT      O38437   0.025   0.779   6.751
12732WAT     H138438  -0.007   0.864   6.794
12732WAT     H238439   0.069   0.801   6.664
12733WAT      O38440   4.633   2.196   9.595
12733WAT     H138441   4.583   2.274   9.633
12733WAT     H238442   4.730   2.218   9.587
12734WAT      O38443   0.533   4.347   7.859
12734WAT     H138444   0.442   4.383   7.882
12734WAT     H238445   0.602   4.393   7.915
12735WAT      O38446   0.302   1.749   3.730
12735WAT     H138447   0.202   1.751   3.741
12735WAT     H238448   0.340   1.677   3.788
12736WAT      O38449   4.151   8.657   9.123
12736WAT     H138450   4.217   8.702   9.062
12736WAT     H238451   4.111   8.578   9.076
12737WAT      O38452   8.072   5.518   0.656
12737WAT     H138453   8.120   5.589   0.604
12737WAT     H238454   8.140   5.457   0.698
12738WAT      O38455   4.738   4.438   1.769
12738WAT     H138456   4.749   4.403   1.676
12738WAT     H238457   4.665   4.387   1.816
12739WAT      O38458   3.748   7.072   4.436
12739WAT     H138459   3.680   7.136   4.402
12739WAT     H238460   3.737   7.061   4.535
12740WAT      O38461   8.888   2.927   7.246
12740WAT     H138462   8.878   2.832   7.276
12740WAT     H238463   8.984   2.945   7.225
12741WAT      O38464   0.909   0.311   1.051
12741WAT     H138465   0.969   0.390   1.063
12741WAT     H238466   0.858   0.320   0.966
12742WAT      O38467   0.988   2.294   2.613
12742WAT     H138468   0.890   2.289   2.632
12742WAT     H238469   1.038   2.306   2.699
12743WAT      O38470   9.398   2.117   1.110
12743WAT     H138471   9.298   2.111   1.119
12743WAT     H238472   9.441   2.096   1.198
12744WAT      O38473   2.944   2.403   8.218
12744WAT     H138474   2.884   2.482   8.233
12744WAT     H238475   2.893   2.331   8.170
12745WAT      O38476   0.609   2.331   9.329
12745WAT     H138477   0.636   2.292   9.417
12745WAT     H238478   0.530   2.391   9.342
12746WAT      O38479   7.213   7.977   3.262
12746WAT     H138480   7.235   8.011   3.353
12746WAT     H238481   7.247   7.883   3.252
12747WAT      O38482   7.782   1.590   5.888
12747WAT     H138483   7.853   1.640   5.838
12747WAT     H238484   7.822   1.511   5.933
12748WAT      O38485   7.998   1.886   7.494
12748WAT     H138486   8.031   1.814   7.432
12748WAT     H238487   7.934   1.945   7.445
12749WAT      O38488   7.613   1.993   9.598
12749WAT     H138489   7.702   1.953   9.618
12749WAT     H238490   7.608   2.085   9.636
12750WAT      O38491   0.136   0.752   0.002
12750WAT     H138492   0.100   0.790   0.087
12750WAT     H238493   0.182   0.824  -0.050
12751WAT      O38494   8.381   7.644   1.911
12751WAT     H138495   8.303   7.595   1.951
12751WAT     H238496   8.442   7.578   1.867
12752WAT      O38497   1.390   6.930   0.840
12752WAT     H138498   1.308   6.986   0.831
12752WAT     H238499   1.398   6.869   0.761
12753WAT      O38500   3.851   3.921   2.735
12753WAT     H138501   3.760   3.932   2.696
12753WAT     H238502   3.846   3.861   2.815
12754WAT      O38503   7.250   5.121   4.801
12754WAT     H138504   7.229   5.219   4.791
12754WAT     H238505   7.275   5.102   4.896
12755WAT      O38506   2.983   2.625   7.310
12755WAT     H138507   3.013   2.546   7.257
12755WAT     H238508   2.977   2.705   7.251
12756WAT      O38509   8.459   6.036   0.260
12756WAT     H138510   8.502   5.947   0.277
12756WAT     H238511   8.508   6.083   0.186
12757WAT      O38512   8.935   4.784   5.269
12757WAT     H138513   8.873   4.754   5.341
12757WAT     H238514   9.030   4.773   5.300
12758WAT      O38515   5.823   0.606   5.398
12758WAT     H138516   5.886   0.679   5.371
12758WAT     H238517   5.745   0.605   5.337
12759WAT      O38518   0.966   3.121   2.730
12759WAT     H138519   1.048   3.113   2.673
12759WAT     H238520   0.930   3.215   2.725
12760WAT      O38521   6.886   1.531   2.895
12760WAT     H138522   6.868   1.483   2.981
12760WAT     H238523   6.799   1.561   2.856
12761WAT      O38524   2.223   7.760   2.550
12761WAT     H138525   2.198   7.726   2.460
12761WAT     H238526   2.230   7.860   2.548
12762WAT      O38527   8.740   3.515   5.830
12762WAT     H138528   8.680   3.562   5.765
12762WAT     H238529   8.686   3.451   5.884
12763WAT      O38530   2.171   0.953   8.665
12763WAT     H138531   2.108   0.920   8.595
12763WAT     H238532   2.260   0.974   8.622
12764WAT      O38533   5.475   0.453   8.838
12764WAT     H138534   5.572   0.430   8.832
12764WAT     H238535   5.464   0.552   8.850
12765WAT      O38536   8.087   9.091   5.883
12765WAT     H138537   8.035   9.011   5.854
12765WAT     H238538   8.055   9.172   5.834
12766WAT      O38539   3.150   6.361   6.864
12766WAT     H138540   3.183   6.279   6.817
12766WAT     H238541   3.174   6.442   6.810
12767WAT      O38542   7.682   3.462   0.354
12767WAT     H138543   7.779   3.451   0.372
12767WAT     H238544   7.636   3.498   0.435
12768WAT      O38545   4.778   7.400   0.468
12768WAT     H138546   4.838   7.476   0.445
12768WAT     H238547   4.691   7.435   0.501
12769WAT      O38548   2.261   6.602   2.087
12769WAT     H138549   2.227   6.543   2.160
12769WAT     H238550   2.188   6.663   2.057
12770WAT      O38551   2.909   9.372   5.199
12770WAT     H138552   2.990   9.399   5.251
12770WAT     H238553   2.831   9.428   5.228
12771WAT      O38554   7.704   2.150   7.881
12771WAT     H138555   7.683   2.195   7.968
12771WAT     H238556   7.771   2.078   7.897
12772WAT      O38557   4.425   6.546   8.346
12772WAT     H138558   4.434   6.447   8.353
12772WAT     H238559   4.398   6.571   8.253
12773WAT      O38560   8.574   6.546   7.742
12773WAT     H138561   8.525   6.581   7.662
12773WAT     H238562   8.654   6.495   7.712
12774WAT      O38563   8.791   1.717   0.810
12774WAT     H138564   8.847   1.656   0.754
12774WAT     H238565   8.767   1.672   0.896
12775WAT      O38566   0.119   3.869   5.009
12775WAT     H138567   0.163   3.868   5.099
12775WAT     H238568   0.097   3.775   4.982
12776WAT      O38569   1.241   6.364   7.067
12776WAT     H138570   1.148   6.344   7.097
12776WAT     H238571   1.302   6.365   7.145
12777WAT      O38572   0.841   0.875   7.251
12777WAT     H138573   0.874   0.790   7.290
12777WAT     H238574   0.766   0.911   7.307
12778WAT      O38575   6.264   0.936   0.254
12778WAT     H138576   6.334   0.994   0.213
12778WAT     H238577   6.245   0.858   0.194
12779WAT      O38578   9.361   4.569   3.878
12779WAT     H138579   9.311   4.625   3.812
12779WAT     H238580   9.456   4.558   3.848
12780WAT      O38581   6.722   6.758   4.992
12780WAT     H138582   6.712   6.664   5.023
12780WAT     H238583   6.806   6.798   5.030
12781WAT      O38584   7.693   0.781   9.073
12781WAT     H138585   7.760   0.706   9.070
12781WAT     H238586   7.670   0.801   9.168
12782WAT      O38587   1.968   1.118   1.854
12782WAT     H138588   1.946   1.167   1.770
12782WAT     H238589   1.998   1.025   1.831
12783WAT      O38590   3.982   2.673   2.333
12783WAT     H138591   3.902   2.730   2.318
12783WAT     H238592   4.016   2.639   2.245
12784WAT      O38593   8.437   9.790   5.031
12784WAT     H138594   8.425   9.754   5.124
12784WAT     H238595   8.347   9.810   4.992
12785WAT      O38596   9.531   7.182   9.718
12785WAT     H138597   9.625   7.194   9.751
12785WAT     H238598   9.533   7.148   9.624
12786WAT      O38599   9.158   4.986   9.452
12786WAT     H138600   9.221   4.925   9.405
12786WAT     H238601   9.069   4.983   9.407
12787WAT      O38602   6.336   1.394   6.249
12787WAT     H138603   6.303   1.450   6.173
12787WAT     H238604   6.257   1.355   6.298
12788WAT      O38605   0.102   7.327   0.248
12788WAT     H138606   0.181   7.344   0.189
12788WAT     H238607   0.129   7.269   0.325
12789WAT      O38608   2.622   0.714   4.189
12789WAT     H138609   2.569   0.659   4.253
12789WAT     H238610   2.561   0.766   4.130
12790WAT      O38611   2.653   5.659   3.689
12790WAT     H138612   2.612   5.740   3.730
12790WAT     H238613   2.752   5.665   3.694
12791WAT      O38614   7.534   5.109   1.075
12791WAT     H138615   7.563   5.014   1.087
12791WAT     H238616   7.449   5.124   1.126
12792WAT      O38617   9.641   6.646   2.795
12792WAT     H138618   9.706   6.679   2.863
12792WAT     H238619   9.622   6.549   2.812
12793WAT      O38620   4.401   1.066   7.214
12793WAT     H138621   4.416   0.970   7.189
12793WAT     H238622   4.354   1.113   7.139
12794WAT      O38623   8.031   4.139   7.007
12794WAT     H138624   8.034   4.221   6.949
12794WAT     H238625   7.977   4.068   6.962
12795WAT      O38626   1.568   0.567   5.578
12795WAT     H138627   1.653   0.543   5.530
12795WAT     H238628   1.490   0.537   5.523
12796WAT      O38629   5.320   6.835   0.425
12796WAT     H138630   5.365   6.920   0.396
12796WAT     H238631   5.326   6.826   0.524
12797WAT      O38632   6.287   3.080   2.796
12797WAT     H138633   6.322   3.164   2.754
12797WAT     H238634   6.189   3.073   2.779
12798WAT      O38635   4.372   4.883   3.754
12798WAT     H138636   4.397   4.897   3.658
12798WAT     H238637   4.400   4.791   3.782
12799WAT      O38638   8.127   6.752   2.024
12799WAT     H138639   8.118   6.737   2.122
12799WAT     H238640   8.037   6.741   1.981
12800WAT      O38641   4.648   4.871   8.033
12800WAT     H138642   4.624   4.924   8.114
12800WAT     H238643   4.669   4.933   7.958
12801WAT      O38644   5.413   4.057   5.237
12801WAT     H138645   5.347   4.019   5.302
12801WAT     H238646   5.376   4.140   5.195
12802WAT      O38647   5.594   8.466   7.973
12802WAT     H138648   5.500   8.497   7.988
12802WAT     H238649   5.657   8.528   8.020
12803WAT      O38650   1.584   8.464   4.882
12803WAT     H138651   1.678   8.461   4.848
12803WAT     H238652   1.575   8.404   4.961
12804WAT      O38653   7.200   5.957   7.059
12804WAT     H138654   7.190   5.862   7.090
12804WAT     H238655   7.256   6.008   7.124
12805WAT      O38656   9.877   8.785   0.308
12805WAT     H138657   9.802   8.725   0.336
12805WAT     H238658   9.930   8.812   0.388
12806WAT      O38659   4.495   6.790   0.530
12806WAT     H138660   4.439   6.808   0.611
12806WAT     H238661   4.493   6.869   0.470
12807WAT      O38662   0.408   1.684   7.172
12807WAT     H138663   0.481   1.616   7.169
12807WAT     H238664   0.359   1.685   7.084
12808WAT      O38665   7.376   3.027   6.069
12808WAT     H138666   7.285   3.009   6.107
12808WAT     H238667   7.438   3.053   6.143
12809WAT      O38668   0.996   0.464   0.313
12809WAT     H138669   0.925   0.474   0.382
12809WAT     H238670   0.987   0.536   0.244
12810WAT      O38671   5.610   9.510   7.550
12810WAT     H138672   5.658   9.427   7.524
12810WAT     H238673   5.659   9.555   7.625
12811WAT      O38674   6.436   7.347   0.484
12811WAT     H138675   6.364   7.338   0.415
12811WAT     H238676   6.510   7.404   0.447
12812WAT      O38677   9.765   1.257   2.655
12812WAT     H138678   9.791   1.353   2.640
12812WAT     H238679   9.667   1.247   2.642
12813WAT      O38680   9.787   7.717   0.465
12813WAT     H138681   9.790   7.679   0.373
12813WAT     H238682   9.821   7.650   0.531
12814WAT      O38683   8.357   2.533   3.615
12814WAT     H138684   8.331   2.478   3.536
12814WAT     H238685   8.457   2.537   3.621
12815WAT      O38686   2.122   7.141   5.865
12815WAT     H138687   2.091   7.236   5.870
12815WAT     H238688   2.131   7.104   5.958
12816WAT      O38689   6.482   5.298   0.311
12816WAT     H138690   6.440   5.383   0.280
12816WAT     H238691   6.549   5.318   0.382
12817WAT      O38692   6.234   9.041   0.653
12817WAT     H138693   6.177   8.984   0.594
12817WAT     H238694   6.275   9.115   0.598
12818WAT      O38695   6.978   1.228   9.863
12818WAT     H138696   6.882   1.205   9.876
12818WAT     H238697   7.031   1.143   9.850
12819WAT      O38698   8.256   1.756   5.809
12819WAT     H138699   8.309   1.786   5.729
12819WAT     H238700   8.182   1.821   5.826
12820WAT      O38701   3.865   1.615   8.163
12820WAT     H138702   3.912   1.537   8.204
12820WAT     H238703   3.803   1.583   8.092
12821WAT      O38704   8.783   2.383   7.987
12821WAT     H138705   8.786   2.364   7.889
12821WAT     H238706   8.822   2.473   8.005
12822WAT      O38707   8.179   9.513   6.142
12822WAT     H138708   8.228   9.429   6.164
12822WAT     H238709   8.218   9.589   6.194
12823WAT      O38710   1.219   4.797   2.536
12823WAT     H138711   1.209   4.784   2.437
12823WAT     H238712   1.131   4.782   2.581
12824WAT      O38713   0.056   4.035   5.800
12824WAT     H138714   0.130   3.995   5.853
12824WAT     H238715  -0.010   3.964   5.775
12825WAT      O38716   4.358   3.702   8.547
12825WAT     H138717   4.263   3.724   8.571
12825WAT     H238718   4.375   3.732   8.453
12826WAT      O38719   2.687   2.961   5.779
12826WAT     H138720   2.634   3.027   5.831
12826WAT     H238721   2.696   2.876   5.831
12827WAT      O38722   6.457   1.800   5.355
12827WAT     H138723   6.371   1.830   5.312
12827WAT     H238724   6.476   1.858   5.434
12828WAT      O38725   2.768   3.661   1.474
12828WAT     H138726   2.822   3.689   1.553
12828WAT     H238727   2.813   3.692   1.390
12829WAT      O38728   0.746   1.656   0.747
12829WAT     H138729   0.826   1.627   0.695
12829WAT     H238730   0.774   1.684   0.839
12830WAT      O38731   5.732   0.684   1.387
12830WAT     H138732   5.676   0.602   1.400
12830WAT     H238733   5.795   0.693   1.463
12831WAT      O38734   7.013   2.232   0.341
12831WAT     H138735   7.030   2.232   0.243
12831WAT     H238736   6.966   2.147   0.367
12832WAT      O38737   5.693   6.257   3.162
12832WAT     H138738   5.773   6.230   3.108
12832WAT     H238739   5.721   6.321   3.234
12833WAT      O38740   0.348   5.494   6.758
12833WAT     H138741   0.377   5.588   6.742
12833WAT     H238742   0.428   5.437   6.776
12834WAT      O38743   8.885   9.604   6.320
12834WAT     H138744   8.976   9.595   6.360
12834WAT     H238745   8.827   9.529   6.353
12835WAT      O38746   7.748   5.634   7.534
12835WAT     H138747   7.814   5.708   7.524
12835WAT     H238748   7.756   5.571   7.457
12836WAT      O38749   7.434   3.017   2.945
12836WAT     H138750   7.416   3.111   2.977
12836WAT     H238751   7.359   2.988   2.885
12837WAT      O38752   4.759   5.094   5.362
12837WAT     H138753   4.713   5.081   5.450
12837WAT     H238754   4.728   5.181   5.321
12838WAT      O38755   7.132   4.983   6.165
12838WAT     H138756   7.153   5.043   6.242
12838WAT     H238757   7.186   4.899   6.173
12839WAT      O38758   5.810   6.366   4.616
12839WAT     H138759   5.736   6.313   4.658
12839WAT     H238760   5.781   6.398   4.526
12840WAT      O38761   5.433   9.361   2.413
12840WAT     H138762   5.396   9.382   2.322
12840WAT     H238763   5.390   9.278   2.448
12841WAT      O38764   3.154   7.565   6.911
12841WAT     H138765   3.113   7.579   6.820
12841WAT     H238766   3.253   7.559   6.902
12842WAT      O38767   6.399   0.842   5.823
12842WAT     H138768   6.497   0.857   5.814
12842WAT     H238769   6.363   0.803   5.738
12843WAT      O38770   4.046   8.992   8.589
12843WAT     H138771   4.139   9.026   8.575
12843WAT     H238772   3.981   9.052   8.542
12844WAT      O38773   5.985   9.817   5.059
12844WAT     H138774   6.058   9.755   5.030
12844WAT     H238775   5.991   9.903   5.009
12845WAT      O38776   2.281   0.423   0.803
12845WAT     H138777   2.215   0.494   0.828
12845WAT     H238778   2.351   0.416   0.874
12846WAT      O38779   7.609   9.283   1.065
12846WAT     H138780   7.592   9.380   1.047
12846WAT     H238781   7.559   9.255   1.147
12847WAT      O38782   7.353   4.445   5.572
12847WAT     H138783   7.323   4.482   5.484
12847WAT     H238784   7.274   4.440   5.633
12848WAT      O38785   6.122   1.528   7.735
12848WAT     H138786   6.025   1.531   7.758
12848WAT     H238787   6.166   1.455   7.787
12849WAT      O38788   5.326   4.735   3.173
12849WAT     H138789   5.334   4.815   3.232
12849WAT     H238790   5.400   4.734   3.106
12850WAT      O38791   9.269   0.172   3.229
12850WAT     H138792   9.255   0.218   3.317
12850WAT     H238793   9.336   0.221   3.175
12851WAT      O38794   6.200   1.491   3.774
12851WAT     H138795   6.240   1.400   3.771
12851WAT     H238796   6.207   1.533   3.683
12852WAT      O38797   6.245   1.969   2.705
12852WAT     H138798   6.237   1.919   2.792
12852WAT     H238799   6.159   2.016   2.686
12853WAT      O38800   2.022   5.053   5.950
12853WAT     H138801   2.022   5.048   5.851
12853WAT     H238802   1.932   5.084   5.982
12854WAT      O38803   3.801   5.265   6.880
12854WAT     H138804   3.713   5.290   6.839
12854WAT     H238805   3.864   5.238   6.807
12855WAT      O38806   5.417   3.002   6.333
12855WAT     H138807   5.515   2.993   6.319
12855WAT     H238808   5.373   2.912   6.321
12856WAT      O38809   3.311   5.706   2.089
12856WAT     H138810   3.218   5.712   2.051
12856WAT     H238811   3.348   5.615   2.071
12857WAT      O38812   7.390   7.217   5.681
12857WAT     H138813   7.409   7.272   5.762
12857WAT     H238814   7.371   7.123   5.709
12858WAT      O38815   6.614   0.351   2.054
12858WAT     H138816   6.526   0.399   2.058
12858WAT     H238817   6.597   0.252   2.054
12859WAT      O38818   3.192   4.588   6.812
12859WAT     H138819   3.125   4.638   6.867
12859WAT     H238820   3.277   4.576   6.864
12860WAT      O38821   3.619   8.349   5.343
12860WAT     H138822   3.590   8.383   5.432
12860WAT     H238823   3.612   8.422   5.275
12861WAT      O38824   8.293   2.936   1.339
12861WAT     H138825   8.219   2.965   1.278
12861WAT     H238826   8.377   2.924   1.286
12862WAT      O38827   7.808   8.866   6.805
12862WAT     H138828   7.907   8.850   6.815
12862WAT     H238829   7.763   8.779   6.783
12863WAT      O38830   1.801   2.078   3.992
12863WAT     H138831   1.861   2.116   4.062
12863WAT     H238832   1.799   2.137   3.912
12864WAT      O38833   5.581   9.538   5.271
12864WAT     H138834   5.577   9.582   5.182
12864WAT     H238835   5.672   9.499   5.285
12865WAT      O38836   8.186   3.838   3.736
12865WAT     H138837   8.256   3.905   3.761
12865WAT     H238838   8.207   3.799   3.647
12866WAT      O38839   5.336   6.894   4.291
12866WAT     H138840   5.402   6.942   4.234
12866WAT     H238841   5.274   6.959   4.335
12867WAT      O38842   1.408   7.876   4.896
12867WAT     H138843   1.489   7.861   4.839
12867WAT     H238844   1.428   7.945   4.966
12868WAT      O38845   6.851   6.227   1.750
12868WAT     H138846   6.814   6.152   1.805
12868WAT     H238847   6.829   6.314   1.794
12869WAT      O38848   6.681   0.229   2.812
12869WAT     H138849   6.775   0.197   2.799
12869WAT     H238850   6.645   0.262   2.725
12870WAT      O38851   0.494   9.217   6.309
12870WAT     H138852   0.502   9.209   6.209
12870WAT     H238853   0.448   9.137   6.345
12871WAT      O38854   2.338   9.320   3.456
12871WAT     H138855   2.320   9.230   3.417
12871WAT     H238856   2.327   9.389   3.384
12872WAT      O38857   2.234   6.212   5.303
12872WAT     H138858   2.277   6.137   5.252
12872WAT     H238859   2.265   6.299   5.267
12873WAT      O38860   9.383   7.267   2.804
12873WAT     H138861   9.316   7.316   2.861
12873WAT     H238862   9.431   7.199   2.861
12874WAT      O38863   1.038   8.146   0.279
12874WAT     H138864   1.065   8.051   0.296
12874WAT     H238865   1.034   8.162   0.180
12875WAT      O38866   2.247   1.978   6.409
12875WAT     H138867   2.231   2.046   6.480
12875WAT     H238868   2.316   1.913   6.440
12876WAT      O38869   5.988   9.584   8.200
12876WAT     H138870   6.071   9.639   8.209
12876WAT     H238871   5.908   9.639   8.223
12877WAT      O38872   8.569   6.871   1.044
12877WAT     H138873   8.558   6.796   1.109
12877WAT     H238874   8.479   6.901   1.011
12878WAT      O38875   4.056   2.048   2.532
12878WAT     H138876   4.151   2.027   2.555
12878WAT     H238877   4.048   2.146   2.515
12879WAT      O38878   5.643   4.252   3.328
12879WAT     H138879   5.633   4.348   3.354
12879WAT     H238880   5.631   4.194   3.408
12880WAT      O38881   7.315   7.831   3.849
12880WAT     H138882   7.307   7.806   3.752
12880WAT     H238883   7.284   7.925   3.863
12881WAT      O38884   4.452   7.307   6.803
12881WAT     H138885   4.403   7.354   6.875
12881WAT     H238886   4.432   7.350   6.715
12882WAT      O38887   3.770   5.950   6.131
12882WAT     H138888   3.795   6.042   6.160
12882WAT     H238889   3.829   5.883   6.175
12883WAT      O38890   0.152   7.566   8.146
12883WAT     H138891   0.090   7.635   8.108
12883WAT     H238892   0.146   7.482   8.091
12884WAT      O38893   5.626   1.123   6.646
12884WAT     H138894   5.591   1.113   6.553
12884WAT     H238895   5.719   1.160   6.643
12885WAT      O38896   8.809   3.704   7.560
12885WAT     H138897   8.845   3.797   7.570
12885WAT     H238898   8.830   3.652   7.643
12886WAT      O38899   2.761   9.157   5.144
12886WAT     H138900   2.828   9.230   5.154
12886WAT     H238901   2.750   9.134   5.047
12887WAT      O38902   2.312   5.464   5.956
12887WAT     H138903   2.390   5.527   5.954
12887WAT     H238904   2.345   5.371   5.970
12888WAT      O38905   4.739   3.923   1.934
12888WAT     H138906   4.759   3.949   1.840
12888WAT     H238907   4.797   3.976   1.996
12889WAT      O38908   5.256   6.189   1.426
12889WAT     H138909   5.349   6.211   1.454
12889WAT     H238910   5.199   6.173   1.507
12890WAT      O38911   3.409   4.499   5.530
12890WAT     H138912   3.318   4.485   5.568
12890WAT     H238913   3.469   4.536   5.600
12891WAT      O38914   1.870   0.136   0.483
12891WAT     H138915   1.858   0.231   0.512
12891WAT     H238916   1.828   0.075   0.550
12892WAT      O38917   0.108   8.354   6.161
12892WAT     H138918   0.153   8.321   6.244
12892WAT     H238919   0.067   8.443   6.179
12893WAT      O38920   2.573   7.758   5.076
12893WAT     H138921   2.670   7.784   5.077
12893WAT     H238922   2.533   7.781   4.988
12894WAT      O38923   4.520   3.429   9.170
12894WAT     H138924   4.568   3.425   9.257
12894WAT     H238925   4.520   3.523   9.136
12895WAT      O38926   7.875   7.215   4.113
12895WAT     H138927   7.814   7.152   4.161
12895WAT     H238928   7.895   7.293   4.172
12896WAT      O38929   3.440   8.875   2.236
12896WAT     H138930   3.460   8.950   2.299
12896WAT     H238931   3.352   8.892   2.191
12897WAT      O38932   5.722   3.142   3.996
12897WAT     H138933   5.717   3.124   3.897
12897WAT     H238934   5.787   3.216   4.013
12898WAT      O38935   3.198   8.732   0.894
12898WAT     H138936   3.144   8.664   0.845
12898WAT     H238937   3.209   8.813   0.837
12899WAT      O38938   7.248   4.137   0.553
12899WAT     H138939   7.269   4.040   0.544
12899WAT     H238940   7.305   4.189   0.490
12900WAT      O38941   9.570   7.457   3.787
12900WAT     H138942   9.503   7.390   3.818
12900WAT     H238943   9.531   7.511   3.712
12901WAT      O38944   9.210   7.374   1.680
12901WAT     H138945   9.204   7.438   1.603
12901WAT     H238946   9.118   7.343   1.704
12902WAT      O38947   1.911   7.754   7.082
12902WAT     H138948   1.811   7.754   7.071
12902WAT     H238949   1.952   7.811   7.011
12903WAT      O38950   9.409   4.894   4.021
12903WAT     H138951   9.347   4.950   4.076
12903WAT     H238952   9.356   4.829   3.967
12904WAT      O38953   8.581   8.593   1.218
12904WAT     H138954   8.627   8.513   1.181
12904WAT     H238955   8.487   8.569   1.243
12905WAT      O38956   0.858   5.654   6.306
12905WAT     H138957   0.822   5.704   6.227
12905WAT     H238958   0.958   5.655   6.303
12906WAT      O38959   8.201   7.657   2.788
12906WAT     H138960   8.227   7.752   2.806
12906WAT     H238961   8.283   7.602   2.771
12907WAT      O38962   4.691   0.158   2.957
12907WAT     H138963   4.672   0.229   3.025
12907WAT     H238964   4.614   0.095   2.954
12908WAT      O38965   4.892   9.626   3.427
12908WAT     H138966   4.793   9.631   3.425
12908WAT     H238967   4.928   9.618   3.334
12909WAT      O38968   4.826   9.817   4.219
12909WAT     H138969   4.875   9.862   4.145
12909WAT     H238970   4.757   9.755   4.182
12910WAT      O38971   3.720   7.272   6.306
12910WAT     H138972   3.686   7.179   6.320
12910WAT     H238973   3.668   7.316   6.232
12911WAT      O38974   3.930   6.998   5.872
12911WAT     H138975   3.847   7.054   5.867
12911WAT     H238976   3.984   7.012   5.789
12912WAT      O38977   8.844   0.217   0.795
12912WAT     H138978   8.800   0.259   0.874
12912WAT     H238979   8.913   0.280   0.758
12913WAT      O38980   7.088   4.588   2.713
12913WAT     H138981   7.135   4.620   2.795
12913WAT     H238982   7.112   4.493   2.695
12914WAT      O38983   6.944   8.519   8.589
12914WAT     H138984   7.023   8.482   8.541
12914WAT     H238985   6.967   8.537   8.685
12915WAT      O38986   6.679   7.569   2.926
12915WAT     H138987   6.742   7.567   2.849
12915WAT     H238988   6.615   7.493   2.918
12916WAT      O38989   9.181   7.800   1.187
12916WAT     H138990   9.147   7.842   1.271
12916WAT     H238991   9.110   7.805   1.116
12917WAT      O38992   9.024   6.513   2.624
12917WAT     H138993   9.062   6.530   2.715
12917WAT     H238994   9.092   6.469   2.567
12918WAT      O38995   7.733   6.665   0.237
12918WAT     H138996   7.829   6.691   0.225
12918WAT     H238997   7.685   6.739   0.285
12919WAT      O38998   5.451   5.249   4.629
12919WAT     H138999   5.368   5.215   4.675
12919WAT     H239000   5.481   5.334   4.673
12920WAT      O39001   6.292   0.214   8.716
12920WAT     H139002   6.392   0.225   8.717
12920WAT     H239003   6.269   0.125   8.677
12921WAT      O39004   8.859   9.065   2.469
12921WAT     H139005   8.874   9.087   2.565
12921WAT     H239006   8.946   9.042   2.426
12922WAT      O39007   8.628   9.062   9.410
12922WAT     H139008   8.701   9.112   9.364
12922WAT     H239009   8.543   9.074   9.360
12923WAT      O39010   5.672   1.793   4.126
12923WAT     H139011   5.673   1.887   4.160
12923WAT     H239012   5.673   1.794   4.026
12924WAT      O39013   9.131   5.372   4.720
12924WAT     H139014   9.156   5.275   4.718
12924WAT     H239015   9.207   5.425   4.759
12925WAT      O39016   1.956   1.432   9.649
12925WAT     H139017   1.980   1.352   9.595
12925WAT     H239018   1.904   1.403   9.730
12926WAT      O39019   0.234   2.666   1.046
12926WAT     H139020   0.179   2.666   1.129
12926WAT     H239021   0.174   2.677   0.966
12927WAT      O39022   8.327   0.893   4.310
12927WAT     H139023   8.402   0.925   4.368
12927WAT     H239024   8.363   0.865   4.221
12928WAT      O39025   0.983   8.051   5.256
12928WAT     H139026   0.884   8.060   5.246
12928WAT     H239027   1.019   7.995   5.180
12929WAT      O39028   8.155   5.061   8.286
12929WAT     H139029   8.083   5.091   8.223
12929WAT     H239030   8.163   5.126   8.361
12930WAT      O39031   5.128   0.948   0.749
12930WAT     H139032   5.119   0.872   0.684
12930WAT     H239033   5.163   1.028   0.701
12931WAT      O39034   6.493   1.900   4.587
12931WAT     H139035   6.408   1.872   4.542
12931WAT     H239036   6.552   1.820   4.598
12932WAT      O39037   3.768   5.706   9.031
12932WAT     H139038   3.745   5.680   9.124
12932WAT     H239039   3.750   5.804   9.018
12933WAT      O39040   9.646   4.806   2.149
12933WAT     H139041   9.610   4.807   2.243
12933WAT     H239042   9.580   4.761   2.089
12934WAT      O39043   9.014   6.954   9.407
12934WAT     H139044   8.927   6.934   9.452
12934WAT     H239045   9.087   6.902   9.450
12935WAT      O39046   6.237   2.390   9.522
12935WAT     H139047   6.191   2.404   9.609
12935WAT     H239048   6.336   2.381   9.538
12936WAT      O39049   4.098   7.117   4.176
12936WAT     H139050   4.061   7.135   4.085
12936WAT     H239051   4.186   7.164   4.186
12937WAT      O39052   7.955   2.008   7.114
12937WAT     H139053   7.987   1.920   7.079
12937WAT     H239054   7.878   1.993   7.177
12938WAT      O39055   3.622   3.613   2.980
12938WAT     H139056   3.561   3.647   2.909
12938WAT     H239057   3.676   3.689   3.017
12939WAT      O39058   7.233   7.571   7.511
12939WAT     H139059   7.209   7.577   7.414
12939WAT     H239060   7.178   7.500   7.554
12940WAT      O39061   3.159   9.647   8.401
12940WAT     H139062   3.173   9.548   8.405
12940WAT     H239063   3.107   9.670   8.319
12941WAT      O39064   7.102   9.255   2.761
12941WAT     H139065   7.197   9.225   2.769
12941WAT     H239066   7.099   9.340   2.707
12942WAT      O39067   0.887   5.531   0.653
12942WAT     H139068   0.880   5.437   0.623
12942WAT     H239069   0.847   5.540   0.745
12943WAT      O39070   3.305   4.050   1.186
12943WAT     H139071   3.345   4.035   1.277
12943WAT     H239072   3.215   4.006   1.182
12944WAT      O39073   7.549   3.113   0.320
12944WAT     H139074   7.577   3.038   0.379
12944WAT     H239075   7.513   3.076   0.234
12945WAT      O39076   4.911   2.721   2.674
12945WAT     H139077   4.970   2.650   2.635
12945WAT     H239078   4.832   2.679   2.718
12946WAT      O39079   2.547   1.150   3.630
12946WAT     H139080   2.644   1.131   3.646
12946WAT     H239081   2.537   1.233   3.575
12947WAT      O39082   0.441   0.276   8.885
12947WAT     H139083   0.496   0.314   8.960
12947WAT     H239084   0.375   0.344   8.853
12948WAT      O39085   3.166   8.198   1.683
12948WAT     H139086   3.123   8.232   1.766
12948WAT     H239087   3.217   8.273   1.638
12949WAT      O39088   0.525   1.345   4.395
12949WAT     H139089   0.441   1.296   4.417
12949WAT     H239090   0.513   1.396   4.310
12950WAT      O39091   0.554   6.405   6.015
12950WAT     H139092   0.505   6.443   5.936
12950WAT     H239093   0.525   6.310   6.030
12951WAT      O39094   7.675   9.174   9.110
12951WAT     H139095   7.615   9.252   9.127
12951WAT     H239096   7.686   9.160   9.012
12952WAT      O39097   9.001   9.666   1.946
12952WAT     H139098   9.044   9.646   1.857
12952WAT     H239099   9.058   9.628   2.019
12953WAT      O39100   8.635   4.758   8.646
12953WAT     H139101   8.702   4.831   8.662
12953WAT     H239102   8.554   4.774   8.702
12954WAT      O39103   8.400   7.919   1.939
12954WAT     H139104   8.372   7.823   1.937
12954WAT     H239105   8.468   7.932   2.012
12955WAT      O39106   8.784   4.506   0.530
12955WAT     H139107   8.752   4.586   0.480
12955WAT     H239108   8.707   4.460   0.574
12956WAT      O39109   7.205   1.632   8.858
12956WAT     H139110   7.296   1.659   8.890
12956WAT     H239111   7.136   1.659   8.925
12957WAT      O39112   8.657   8.859   8.520
12957WAT     H139113   8.622   8.819   8.605
12957WAT     H239114   8.612   8.947   8.504
12958WAT      O39115   3.757   8.473   7.921
12958WAT     H139116   3.740   8.377   7.943
12958WAT     H239117   3.843   8.502   7.963
12959WAT      O39118   8.648   1.906   9.489
12959WAT     H139119   8.595   1.842   9.434
12959WAT     H239120   8.588   1.978   9.525
12960WAT      O39121   0.986   7.563   2.357
12960WAT     H139122   0.916   7.498   2.385
12960WAT     H239123   1.048   7.519   2.292
12961WAT      O39124   1.182   3.845   8.502
12961WAT     H139125   1.224   3.918   8.447
12961WAT     H239126   1.086   3.868   8.519
12962WAT      O39127   4.734   4.187   8.532
12962WAT     H139128   4.828   4.153   8.532
12962WAT     H239129   4.732   4.282   8.563
12963WAT      O39130   4.457   4.628   0.570
12963WAT     H139131   4.411   4.636   0.658
12963WAT     H239132   4.455   4.717   0.523
12964WAT      O39133   8.858   2.479   3.746
12964WAT     H139134   8.914   2.420   3.687
12964WAT     H239135   8.844   2.434   3.834
12965WAT      O39136   5.752   1.237   9.005
12965WAT     H139137   5.781   1.262   8.913
12965WAT     H239138   5.829   1.194   9.053
12966WAT      O39139   1.158   6.872   9.499
12966WAT     H139140   1.249   6.850   9.533
12966WAT     H239141   1.124   6.797   9.443
12967WAT      O39142   7.567   8.935   5.316
12967WAT     H139143   7.497   8.892   5.258
12967WAT     H239144   7.627   8.864   5.354
12968WAT      O39145   6.541   5.256   9.754
12968WAT     H139146   6.483   5.230   9.831
12968WAT     H239147   6.542   5.356   9.746
12969WAT      O39148   0.797   4.942   0.738
12969WAT     H139149   0.888   4.952   0.778
12969WAT     H239150   0.804   4.948   0.638
12970WAT      O39151   7.776   2.049   6.695
12970WAT     H139152   7.734   2.029   6.784
12970WAT     H239153   7.873   2.071   6.709
12971WAT      O39154   0.493   7.766   4.937
12971WAT     H139155   0.444   7.785   4.852
12971WAT     H239156   0.482   7.844   4.999
12972WAT      O39157   7.826   3.193   8.518
12972WAT     H139158   7.727   3.181   8.515
12972WAT     H239159   7.862   3.154   8.603
12973WAT      O39160   8.966   0.883   4.985
12973WAT     H139161   8.892   0.951   4.983
12973WAT     H239162   8.988   0.856   4.891
12974WAT      O39163   2.018   7.058   2.254
12974WAT     H139164   1.993   7.147   2.292
12974WAT     H239165   2.115   7.058   2.232
12975WAT      O39166   8.244   1.262   1.635
12975WAT     H139167   8.156   1.247   1.681
12975WAT     H239168   8.313   1.283   1.704
12976WAT      O39169   8.695   4.503   1.403
12976WAT     H139170   8.736   4.591   1.428
12976WAT     H239171   8.739   4.430   1.455
12977WAT      O39172   1.747   3.521   0.586
12977WAT     H139173   1.777   3.567   0.670
12977WAT     H239174   1.666   3.465   0.607
12978WAT      O39175   0.778   9.358   2.176
12978WAT     H139176   0.825   9.270   2.178
12978WAT     H239177   0.838   9.427   2.137
12979WAT      O39178   3.581   0.430   7.642
12979WAT     H139179   3.654   0.390   7.697
12979WAT     H239180   3.620   0.475   7.561
12980WAT      O39181   6.142   4.541   9.796
12980WAT     H139182   6.185   4.586   9.718
12980WAT     H239183   6.056   4.500   9.766
12981WAT      O39184   5.666   1.016   0.996
12981WAT     H139185   5.737   0.955   1.031
12981WAT     H239186   5.595   1.027   1.066
12982WAT      O39187   5.484   7.505   9.076
12982WAT     H139188   5.543   7.499   9.156
12982WAT     H239189   5.438   7.417   9.061
12983WAT      O39190   6.551   7.880   7.803
12983WAT     H139191   6.507   7.932   7.730
12983WAT     H239192   6.483   7.856   7.872
12984WAT      O39193   5.006   7.753   2.821
12984WAT     H139194   5.070   7.810   2.769
12984WAT     H239195   4.912   7.781   2.803
12985WAT      O39196   2.971   8.714   9.432
12985WAT     H139197   2.904   8.640   9.429
12985WAT     H239198   2.971   8.755   9.523
12986WAT      O39199   0.517   0.726   0.311
12986WAT     H139200   0.477   0.818   0.308
12986WAT     H239201   0.602   0.725   0.257
12987WAT      O39202   3.510   5.657   3.989
12987WAT     H139203   3.469   5.640   3.900
12987WAT     H239204   3.437   5.670   4.057
12988WAT      O39205   3.829   3.962   4.055
12988WAT     H139206   3.894   3.986   4.127
12988WAT     H239207   3.768   3.890   4.089
12989WAT      O39208   4.750   2.664   5.764
12989WAT     H139209   4.652   2.670   5.744
12989WAT     H239210   4.799   2.635   5.682
12990WAT      O39211   8.198   3.541   3.402
12990WAT     H139212   8.294   3.540   3.431
12990WAT     H239213   8.191   3.581   3.311
12991WAT      O39214   9.156   6.978   4.112
12991WAT     H139215   9.112   6.924   4.040
12991WAT     H239216   9.208   6.917   4.171
12992WAT      O39217   3.902   0.861   7.120
12992WAT     H139218   3.820   0.875   7.065
12992WAT     H239219   3.966   0.937   7.106
12993WAT      O39220   6.186   6.061   4.511
12993WAT     H139221   6.205   6.061   4.412
12993WAT     H239222   6.197   5.968   4.546
12994WAT      O39223   8.567   3.548   7.618
12994WAT     H139224   8.632   3.614   7.580
12994WAT     H239225   8.588   3.457   7.582
12995WAT      O39226   6.711   2.004   1.552
12995WAT     H139227   6.731   2.063   1.474
12995WAT     H239228   6.702   2.059   1.635
12996WAT      O39229   6.770   7.632   1.805
12996WAT     H139230   6.696   7.608   1.742
12996WAT     H239231   6.735   7.635   1.899
12997WAT      O39232   9.832   2.758   8.727
12997WAT     H139233   9.818   2.705   8.643
12997WAT     H239234   9.891   2.706   8.789
12998WAT      O39235   2.889   5.274   3.097
12998WAT     H139236   2.944   5.332   3.037
12998WAT     H239237   2.813   5.236   3.045
12999WAT      O39238   9.569   6.547   5.161
12999WAT     H139239   9.549   6.643   5.181
12999WAT     H239240   9.631   6.510   5.230
13000WAT      O39241   7.392   0.807   7.171
13000WAT     H139242   7.324   0.736   7.185
13000WAT     H239243   7.409   0.855   7.257
13001WAT      O39244   0.454   3.564   2.244
13001WAT     H139245   0.379   3.625   2.270
13001WAT     H239246   0.419   3.487   2.192
13002WAT      O39247   7.856   8.080   6.117
13002WAT     H139248   7.946   8.070   6.160
13002WAT     H239249   7.788   8.028   6.169
13003WAT      O39250   6.113   1.432   5.462
13003WAT     H139251   6.180   1.456   5.533
13003WAT     H239252   6.144   1.469   5.374
13004WAT      O39253   3.365   0.828   9.824
13004WAT     H139254   3.307   0.791   9.752
13004WAT     H239255   3.408   0.913   9.792
13005WAT      O39256   8.052   0.077   8.166
13005WAT     H139257   8.067   0.144   8.239
13005WAT     H239258   8.076  -0.014   8.199
13006WAT      O39259   1.105   3.968   0.118
13006WAT     H139260   1.188   3.912   0.113
13006WAT     H239261   1.042   3.929   0.185
13007WAT      O39262   9.257   3.191   1.389
13007WAT     H139263   9.173   3.212   1.437
13007WAT     H239264   9.312   3.274   1.378
13008WAT      O39265   5.172   1.340   4.062
13008WAT     H139266   5.105   1.279   4.102
13008WAT     H239267   5.220   1.293   3.987
13009WAT      O39268   9.839   1.100   8.981
13009WAT     H139269   9.805   1.014   8.941
13009WAT     H239270   9.763   1.147   9.026
13010WAT      O39271   5.048   5.125   0.166
13010WAT     H139272   5.102   5.055   0.212
13010WAT     H239273   5.101   5.210   0.162
13011WAT      O39274   4.462   5.557   0.015
13011WAT     H139275   4.433   5.463  -0.001
13011WAT     H239276   4.470   5.572   0.114
13012WAT      O39277   8.909   2.621   0.474
13012WAT     H139278   8.818   2.661   0.470
13012WAT     H239279   8.906   2.526   0.443
13013WAT      O39280   6.957   3.169   1.215
13013WAT     H139281   6.893   3.170   1.291
13013WAT     H239282   7.041   3.216   1.241
13014WAT      O39283   7.158   4.735   1.428
13014WAT     H139284   7.184   4.647   1.466
13014WAT     H239285   7.060   4.736   1.406
13015WAT      O39286   1.173   1.384   0.433
13015WAT     H139287   1.185   1.325   0.353
13015WAT     H239288   1.246   1.452   0.436
13016WAT      O39289   6.557   3.257   8.043
13016WAT     H139290   6.621   3.333   8.031
13016WAT     H239291   6.464   3.289   8.026
13017WAT      O39292   6.790   9.616   2.290
13017WAT     H139293   6.741   9.598   2.375
13017WAT     H239294   6.888   9.615   2.307
13018WAT      O39295   7.276   4.383   4.238
13018WAT     H139296   7.246   4.333   4.320
13018WAT     H239297   7.374   4.404   4.246
13019WAT      O39298   0.360   9.062   1.232
13019WAT     H139299   0.451   9.037   1.265
13019WAT     H239300   0.344   9.159   1.250
13020WAT      O39301   6.574   8.377   3.480
13020WAT     H139302   6.519   8.433   3.419
13020WAT     H239303   6.605   8.432   3.557
13021WAT      O39304   4.942   0.559   4.102
13021WAT     H139305   4.945   0.467   4.064
13021WAT     H239306   4.911   0.556   4.197
13022WAT      O39307   0.630   0.902   8.833
13022WAT     H139308   0.689   0.881   8.755
13022WAT     H239309   0.678   0.964   8.895
13023WAT      O39310   6.229   7.983   4.080
13023WAT     H139311   6.200   7.957   4.172
13023WAT     H239312   6.300   7.921   4.048
13024WAT      O39313   9.259   0.793   0.086
13024WAT     H139314   9.176   0.763   0.041
13024WAT     H239315   9.305   0.715   0.129
13025WAT      O39316   3.407   7.442   0.925
13025WAT     H139317   3.313   7.464   0.950
13025WAT     H239318   3.466   7.454   1.005
13026WAT      O39319   0.551   6.041   8.742
13026WAT     H139320   0.588   6.115   8.799
13026WAT     H239321   0.451   6.045   8.744
13027WAT      O39322   8.894   1.076   4.487
13027WAT     H139323   8.989   1.106   4.488
13027WAT     H239324   8.876   1.023   4.404
13028WAT      O39325   0.808   3.482   4.118
13028WAT     H139326   0.785   3.494   4.021
13028WAT     H239327   0.901   3.514   4.134
13029WAT      O39328   6.856   0.294   2.403
13029WAT     H139329   6.779   0.345   2.442
13029WAT     H239330   6.844   0.196   2.422
13030WAT      O39331   8.533   0.680   7.236
13030WAT     H139332   8.624   0.672   7.195
13030WAT     H239333   8.468   0.713   7.168
13031WAT      O39334   1.703   4.174   5.229
13031WAT     H139335   1.656   4.086   5.233
13031WAT     H239336   1.639   4.244   5.195
13032WAT      O39337   4.915   0.508   3.539
13032WAT     H139338   4.923   0.551   3.449
13032WAT     H239339   4.975   0.428   3.543
13033WAT      O39340   4.143   7.344   5.654
13033WAT     H139341   4.150   7.415   5.724
13033WAT     H239342   4.071   7.368   5.589
13034WAT      O39343   1.000   3.145   9.224
13034WAT     H139344   1.025   3.195   9.141
13034WAT     H239345   0.923   3.085   9.205
13035WAT      O39346   4.073   1.713   6.326
13035WAT     H139347   3.975   1.703   6.340
13035WAT     H239348   4.090   1.778   6.251
13036WAT      O39349   4.520   7.334   2.438
13036WAT     H139350   4.422   7.353   2.450
13036WAT     H239351   4.573   7.414   2.465
13037WAT      O39352   8.386   2.973   3.164
13037WAT     H139353   8.401   2.877   3.186
13037WAT     H239354   8.305   3.006   3.214
13038WAT      O39355   4.948   0.898   7.306
13038WAT     H139356   5.008   0.978   7.310
13038WAT     H239357   4.862   0.923   7.262
13039WAT      O39358   0.866   4.293   8.454
13039WAT     H139359   0.948   4.258   8.499
13039WAT     H239360   0.822   4.361   8.513
13040WAT      O39361   1.753   5.342   6.512
13040WAT     H139362   1.751   5.247   6.480
13040WAT     H239363   1.815   5.396   6.455
13041WAT      O39364   3.883   1.632   5.987
13041WAT     H139365   3.907   1.725   6.016
13041WAT     H239366   3.965   1.576   5.983
13042WAT      O39367   8.926   8.464   5.343
13042WAT     H139368   8.995   8.536   5.346
13042WAT     H239369   8.971   8.375   5.352
13043WAT      O39370   0.978   9.779   0.027
13043WAT     H139371   1.040   9.716  -0.021
13043WAT     H239372   1.028   9.823   0.101
13044WAT      O39373   9.512   2.961   7.467
13044WAT     H139374   9.424   2.918   7.448
13044WAT     H239375   9.525   2.971   7.565
13045WAT      O39376   2.621   0.415   0.543
13045WAT     H139377   2.622   0.331   0.598
13045WAT     H239378   2.710   0.460   0.552
13046WAT      O39379   8.692   3.739   1.925
13046WAT     H139380   8.685   3.685   2.009
13046WAT     H239381   8.613   3.800   1.918
13047WAT      O39382   2.781   6.295   6.182
13047WAT     H139383   2.874   6.332   6.190
13047WAT     H239384   2.780   6.221   6.115
13048WAT      O39385   1.271   6.729   3.470
13048WAT     H139386   1.353   6.684   3.438
13048WAT     H239387   1.226   6.776   3.394
13049WAT      O39388   1.596   5.448   3.230
13049WAT     H139389   1.677   5.503   3.250
13049WAT     H239390   1.514   5.495   3.263
13050WAT      O39391   3.755   5.216   6.088
13050WAT     H139392   3.747   5.220   6.188
13050WAT     H239393   3.672   5.174   6.050
13051WAT      O39394   1.220   9.148   9.425
13051WAT     H139395   1.320   9.156   9.432
13051WAT     H239396   1.177   9.195   9.502
13052WAT      O39397   6.831   7.867   4.767
13052WAT     H139398   6.776   7.921   4.704
13052WAT     H239399   6.777   7.845   4.848
13053WAT      O39400   5.943   7.102   1.885
13053WAT     H139401   5.925   7.038   1.810
13053WAT     H239402   6.029   7.149   1.868
13054WAT      O39403   3.784   6.228   8.435
13054WAT     H139404   3.787   6.128   8.440
13054WAT     H239405   3.716   6.263   8.499
13055WAT      O39406   3.260   7.013   4.130
13055WAT     H139407   3.212   6.925   4.126
13055WAT     H239408   3.359   6.996   4.126
13056WAT      O39409   9.060   6.307   0.290
13056WAT     H139410   9.069   6.282   0.193
13056WAT     H239411   9.102   6.237   0.347
13057WAT      O39412   6.528   7.853   1.866
13057WAT     H139413   6.577   7.868   1.780
13057WAT     H239414   6.475   7.934   1.890
13058WAT      O39415   1.718   7.309   3.593
13058WAT     H139416   1.812   7.311   3.628
13058WAT     H239417   1.709   7.238   3.524
13059WAT      O39418   8.778   7.999   3.224
13059WAT     H139419   8.774   8.095   3.252
13059WAT     H239420   8.871   7.965   3.235
13060WAT      O39421   1.956   3.422   7.004
13060WAT     H139422   1.950   3.501   6.944
13060WAT     H239423   2.004   3.348   6.957
13061WAT      O39424   4.497   3.099   9.869
13061WAT     H139425   4.593   3.092   9.841
13061WAT     H239426   4.456   3.179   9.825
13062WAT      O39427   8.134   6.313   4.657
13062WAT     H139428   8.171   6.324   4.750
13062WAT     H239429   8.037   6.337   4.656
13063WAT      O39430   7.211   1.821   1.956
13063WAT     H139431   7.231   1.730   1.920
13063WAT     H239432   7.166   1.876   1.886
13064WAT      O39433   0.444   3.553   8.319
13064WAT     H139434   0.526   3.545   8.375
13064WAT     H239435   0.468   3.585   8.228
13065WAT      O39436   5.876   5.494   7.722
13065WAT     H139437   5.929   5.437   7.785
13065WAT     H239438   5.811   5.550   7.774
13066WAT      O39439   6.108   3.783   6.018
13066WAT     H139440   6.172   3.856   5.996
13066WAT     H239441   6.088   3.730   5.935
13067WAT      O39442   8.257   2.790   7.944
13067WAT     H139443   8.280   2.855   7.871
13067WAT     H239444   8.261   2.835   8.032
13068WAT      O39445   7.354   1.105   2.698
13068WAT     H139446   7.417   1.051   2.641
13068WAT     H239447   7.283   1.144   2.639
13069WAT      O39448   9.872   0.626   7.687
13069WAT     H139449   9.795   0.591   7.634
13069WAT     H239450   9.903   0.713   7.647
13070WAT      O39451   7.432   0.324   3.889
13070WAT     H139452   7.358   0.377   3.847
13070WAT     H239453   7.519   0.371   3.872
13071WAT      O39454   8.821   4.976   7.519
13071WAT     H139455   8.845   5.064   7.477
13071WAT     H239456   8.766   4.992   7.601
13072WAT      O39457   6.993   4.099   6.520
13072WAT     H139458   6.983   4.178   6.580
13072WAT     H239459   6.904   4.058   6.503
13073WAT      O39460   9.535   5.250   1.834
13073WAT     H139461   9.487   5.172   1.793
13073WAT     H239462   9.468   5.320   1.859
13074WAT      O39463   0.944   4.680   4.941
13074WAT     H139464   0.859   4.627   4.948
13074WAT     H239465   0.998   4.645   4.864
13075WAT      O39466   0.662   0.562   8.853
13075WAT     H139467   0.701   0.645   8.893
13075WAT     H239468   0.677   0.485   8.914
13076WAT      O39469   2.757   2.429   6.550
13076WAT     H139470   2.677   2.461   6.601
13076WAT     H239471   2.830   2.497   6.556
13077WAT      O39472   4.408   7.644   2.395
13077WAT     H139473   4.432   7.636   2.299
13077WAT     H239474   4.474   7.704   2.441
13078WAT      O39475   2.697   4.430   2.821
13078WAT     H139476   2.754   4.482   2.758
13078WAT     H239477   2.683   4.337   2.786
13079WAT      O39478   8.962   3.699   5.620
13079WAT     H139479   8.909   3.618   5.596
13079WAT     H239480   8.956   3.766   5.546
13080WAT      O39481   2.244   1.231   9.553
13080WAT     H139482   2.152   1.226   9.514
13080WAT     H239483   2.307   1.268   9.485
13081WAT      O39484   8.926   0.274   5.202
13081WAT     H139485   8.854   0.255   5.268
13081WAT     H239486   9.008   0.306   5.251
13082WAT      O39487   6.336   3.818   7.923
13082WAT     H139488   6.305   3.907   7.889
13082WAT     H239489   6.363   3.826   8.019
13083WAT      O39490   4.517   7.608   4.404
13083WAT     H139491   4.533   7.699   4.364
13083WAT     H239492   4.430   7.573   4.372
13084WAT      O39493   6.534   1.117   1.596
13084WAT     H139494   6.598   1.192   1.582
13084WAT     H239495   6.441   1.153   1.602
13085WAT      O39496   6.500   4.842   7.081
13085WAT     H139497   6.568   4.909   7.110
13085WAT     H239498   6.546   4.767   7.033
13086WAT      O39499   4.935   9.608   0.495
13086WAT     H139500   4.883   9.667   0.556
13086WAT     H239501   5.029   9.600   0.526
13087WAT      O39502   5.288   2.171   2.322
13087WAT     H139503   5.229   2.103   2.279
13087WAT     H239504   5.247   2.262   2.311
13088WAT      O39505   6.129   1.091   4.572
13088WAT     H139506   6.043   1.096   4.520
13088WAT     H239507   6.172   1.181   4.574
13089WAT      O39508   3.010   7.704   4.647
13089WAT     H139509   2.998   7.633   4.717
13089WAT     H239510   2.931   7.704   4.586
13090WAT      O39511   1.091   0.151   7.584
13090WAT     H139512   0.992   0.156   7.574
13090WAT     H239513   1.135   0.225   7.533
13091WAT      O39514   3.110   7.867   4.187
13091WAT     H139515   3.052   7.932   4.236
13091WAT     H239516   3.065   7.778   4.182
13092WAT      O39517   4.554   4.137   7.320
13092WAT     H139518   4.516   4.187   7.243
13092WAT     H239519   4.642   4.177   7.346
13093WAT      O39520   9.685   4.135   7.231
13093WAT     H139521   9.600   4.136   7.179
13093WAT     H239522   9.762   4.118   7.170
13094WAT      O39523   8.787   9.281   9.307
13094WAT     H139524   8.704   9.334   9.325
13094WAT     H239525   8.820   9.302   9.216
13095WAT      O39526   4.386   4.492   1.484
13095WAT     H139527   4.410   4.398   1.461
13095WAT     H239528   4.320   4.492   1.559
13096WAT      O39529   2.384   2.059   0.565
13096WAT     H139530   2.404   2.019   0.476
13096WAT     H239531   2.465   2.055   0.623
13097WAT      O39532   6.484   6.207   0.125
13097WAT     H139533   6.449   6.193   0.033
13097WAT     H239534   6.579   6.238   0.120
13098WAT      O39535   0.048   5.722   4.649
13098WAT     H139536   0.112   5.655   4.685
13098WAT     H239537   0.073   5.813   4.681
13099WAT      O39538   8.248   9.549   4.651
13099WAT     H139539   8.255   9.528   4.553
13099WAT     H239540   8.241   9.464   4.702
13100WAT      O39541   1.359   8.181   4.323
13100WAT     H139542   1.358   8.257   4.258
13100WAT     H239543   1.393   8.213   4.412
13101WAT      O39544   8.264   6.486   6.690
13101WAT     H139545   8.313   6.564   6.729
13101WAT     H239546   8.311   6.455   6.607
13102WAT      O39547   7.576   6.115   1.597
13102WAT     H139548   7.602   6.027   1.559
13102WAT     H239549   7.500   6.154   1.544
13103WAT      O39550   5.388   1.756   2.707
13103WAT     H139551   5.325   1.746   2.631
13103WAT     H239552   5.336   1.775   2.791
13104WAT      O39553   1.945   9.002   6.692
13104WAT     H139554   1.986   9.006   6.601
13104WAT     H239555   2.018   9.002   6.761
13105WAT      O39556   7.391   8.839   0.124
13105WAT     H139557   7.460   8.766   0.127
13105WAT     H239558   7.333   8.834   0.206
13106WAT      O39559   5.099   2.264   0.778
13106WAT     H139560   5.015   2.210   0.782
13106WAT     H239561   5.158   2.229   0.706
13107WAT      O39562   4.968   6.447   3.591
13107WAT     H139563   5.007   6.465   3.681
13107WAT     H239564   5.013   6.505   3.523
13108WAT      O39565   6.706   6.666   6.862
13108WAT     H139566   6.748   6.585   6.904
13108WAT     H239567   6.613   6.676   6.896
13109WAT      O39568   4.816   5.414   0.341
13109WAT     H139569   4.763   5.467   0.408
13109WAT     H239570   4.894   5.371   0.387
13110WAT      O39571   2.308   6.464   4.228
13110WAT     H139572   2.234   6.512   4.180
13110WAT     H239573   2.304   6.486   4.326
13111WAT      O39574   5.623   8.575   9.241
13111WAT     H139575   5.569   8.623   9.310
13111WAT     H239576   5.589   8.481   9.233
13112WAT      O39577   1.276   1.096   7.571
13112WAT     H139578   1.327   1.013   7.548
13112WAT     H239579   1.317   1.140   7.650
13113WAT      O39580   2.346   6.653   6.341
13113WAT     H139581   2.359   6.670   6.243
13113WAT     H239582   2.249   6.661   6.364
13114WAT      O39583   1.130   3.588   8.229
13114WAT     H139584   1.192   3.667   8.231
13114WAT     H239585   1.108   3.565   8.135
13115WAT      O39586   8.512   4.340   6.865
13115WAT     H139587   8.424   4.317   6.823
13115WAT     H239588   8.523   4.440   6.865
13116WAT      O39589   6.732   1.713   2.747
13116WAT     H139590   6.659   1.656   2.709
13116WAT     H239591   6.709   1.809   2.733
13117WAT      O39592   2.521   2.560   8.763
13117WAT     H139593   2.549   2.624   8.835
13117WAT     H239594   2.427   2.529   8.780
13118WAT      O39595   6.782   6.989   1.480
13118WAT     H139596   6.816   6.965   1.571
13118WAT     H239597   6.805   7.084   1.460
13119WAT      O39598   6.054   0.549   0.141
13119WAT     H139599   6.004   0.611   0.201
13119WAT     H239600   6.139   0.592   0.111
13120WAT      O39601   4.308   9.582   4.671
13120WAT     H139602   4.232   9.520   4.688
13120WAT     H239603   4.337   9.624   4.757
13121WAT      O39604   6.114   3.485   0.571
13121WAT     H139605   6.069   3.437   0.647
13121WAT     H239606   6.171   3.558   0.607
13122WAT      O39607   2.749   9.661   4.481
13122WAT     H139608   2.655   9.632   4.500
13122WAT     H239609   2.749   9.757   4.453
13123WAT      O39610   6.806   3.674   0.486
13123WAT     H139611   6.796   3.766   0.524
13123WAT     H239612   6.743   3.611   0.532
13124WAT      O39613   2.781   3.828   2.775
13124WAT     H139614   2.791   3.846   2.873
13124WAT     H239615   2.825   3.742   2.752
13125WAT      O39616   5.046   5.174   8.734
13125WAT     H139617   5.061   5.209   8.826
13125WAT     H239618   4.965   5.116   8.733
13126WAT      O39619   0.904   5.189   0.947
13126WAT     H139620   0.899   5.113   0.881
13126WAT     H239621   0.870   5.158   1.036
13127WAT      O39622   9.772   3.575   8.605
13127WAT     H139623   9.840   3.648   8.615
13127WAT     H239624   9.702   3.605   8.540
13128WAT      O39625   9.192   3.194   1.957
13128WAT     H139626   9.101   3.218   1.991
13128WAT     H239627   9.257   3.265   1.983
13129WAT      O39628   3.592   7.780   4.766
13129WAT     H139629   3.646   7.715   4.819
13129WAT     H239630   3.580   7.746   4.673
13130WAT      O39631   5.702   6.666   8.327
13130WAT     H139632   5.769   6.731   8.291
13130WAT     H239633   5.742   6.615   8.403
13131WAT      O39634   3.888   8.331   4.008
13131WAT     H139635   3.895   8.295   3.915
13131WAT     H239636   3.813   8.398   4.013
13132WAT      O39637   3.826   1.602   1.647
13132WAT     H139638   3.914   1.568   1.612
13132WAT     H239639   3.794   1.543   1.721
13133WAT      O39640   3.706   2.571   7.017
13133WAT     H139641   3.629   2.576   7.081
13133WAT     H239642   3.786   2.535   7.063
13134WAT      O39643   8.295   8.543   1.580
13134WAT     H139644   8.300   8.584   1.489
13134WAT     H239645   8.281   8.615   1.648
13135WAT      O39646   2.328   4.249   9.791
13135WAT     H139647   2.283   4.197   9.863
13135WAT     H239648   2.294   4.343   9.791
13136WAT      O39649   2.291   7.374   7.470
13136WAT     H139650   2.208   7.325   7.442
13136WAT     H239651   2.311   7.445   7.402
13137WAT      O39652   7.536   4.230   0.146
13137WAT     H139653   7.580   4.315   0.176
13137WAT     H239654   7.525   4.232   0.047
13138WAT      O39655   2.043   5.103   3.784
13138WAT     H139656   2.063   5.161   3.863
13138WAT     H239657   1.976   5.149   3.725
13139WAT      O39658   3.491   4.181   0.791
13139WAT     H139659   3.472   4.109   0.859
13139WAT     H239660   3.584   4.215   0.804
13140WAT      O39661   7.009   4.215   2.757
13140WAT     H139662   7.054   4.129   2.779
13140WAT     H239663   7.063   4.265   2.689
13141WAT      O39664   3.895   2.116   8.911
13141WAT     H139665   3.960   2.040   8.921
13141WAT     H239666   3.858   2.139   9.001
13142WAT      O39667   1.302   8.890   3.355
13142WAT     H139668   1.257   8.923   3.272
13142WAT     H239669   1.394   8.857   3.333
13143WAT      O39670   6.607   1.814   0.404
13143WAT     H139671   6.654   1.757   0.337
13143WAT     H239672   6.621   1.776   0.496
13144WAT      O39673   3.949   6.567   3.601
13144WAT     H139674   3.962   6.664   3.580
13144WAT     H239675   3.991   6.513   3.528
13145WAT      O39676   2.367   0.283   1.981
13145WAT     H139677   2.350   0.250   1.889
13145WAT     H239678   2.302   0.241   2.045
13146WAT      O39679   3.101   6.062   5.679
13146WAT     H139680   3.081   6.041   5.775
13146WAT     H239681   3.049   6.143   5.651
13147WAT      O39682   7.230   5.079   4.125
13147WAT     H139683   7.303   5.024   4.168
13147WAT     H239684   7.228   5.060   4.027
13148WAT      O39685   8.674   4.488   8.530
13148WAT     H139686   8.691   4.565   8.591
13148WAT     H239687   8.667   4.521   8.436
13149WAT      O39688   2.238   6.102   6.985
13149WAT     H139689   2.316   6.069   7.039
13149WAT     H239690   2.270   6.163   6.913
13150WAT      O39691   1.782   4.105   4.240
13150WAT     H139692   1.835   4.025   4.267
13150WAT     H239693   1.815   4.186   4.287
13151WAT      O39694   6.054   6.886   2.963
13151WAT     H139695   6.004   6.877   3.049
13151WAT     H239696   6.146   6.921   2.981
13152WAT      O39697   1.355   5.964   1.253
13152WAT     H139698   1.347   5.876   1.300
13152WAT     H239699   1.447   5.974   1.216
13153WAT      O39700   5.610   5.015   5.762
13153WAT     H139701   5.658   4.936   5.799
13153WAT     H239702   5.645   5.099   5.804
13154WAT      O39703   0.789   3.772   9.171
13154WAT     H139704   0.878   3.810   9.195
13154WAT     H239705   0.781   3.766   9.072
13155WAT      O39706   9.488   5.766   0.337
13155WAT     H139707   9.540   5.757   0.252
13155WAT     H239708   9.432   5.848   0.333
13156WAT      O39709   3.132   5.457   3.777
13156WAT     H139710   3.118   5.410   3.690
13156WAT     H239711   3.090   5.405   3.851
13157WAT      O39712   0.464   2.515   3.838
13157WAT     H139713   0.401   2.555   3.772
13157WAT     H239714   0.509   2.435   3.797
13158WAT      O39715   1.381   0.448   7.900
13158WAT     H139716   1.429   0.370   7.860
13158WAT     H239717   1.344   0.423   7.989
13159WAT      O39718   3.519   3.812   1.212
13159WAT     H139719   3.435   3.798   1.160
13159WAT     H239720   3.502   3.877   1.286
13160WAT      O39721   3.428   7.156   8.233
13160WAT     H139722   3.503   7.215   8.263
13160WAT     H239723   3.342   7.207   8.237
13161WAT      O39724   9.805   0.182   6.515
13161WAT     H139725   9.820   0.231   6.429
13161WAT     H239726   9.773   0.245   6.585
13162WAT      O39727   5.204   2.424   5.038
13162WAT     H139728   5.187   2.498   5.104
13162WAT     H239729   5.211   2.463   4.946
13163WAT      O39730   0.562   5.111   5.920
13163WAT     H139731   0.515   5.024   5.929
13163WAT     H239732   0.576   5.133   5.824
13164WAT      O39733   3.182   2.444   2.494
13164WAT     H139734   3.106   2.422   2.555
13164WAT     H239735   3.147   2.458   2.401
13165WAT      O39736   8.364   1.869   7.255
13165WAT     H139737   8.333   1.778   7.227
13165WAT     H239738   8.296   1.938   7.229
13166WAT      O39739   4.541   6.794   5.906
13166WAT     H139740   4.511   6.796   6.001
13166WAT     H239741   4.592   6.710   5.888
13167WAT      O39742   8.393   9.509   4.365
13167WAT     H139743   8.369   9.419   4.329
13167WAT     H239744   8.477   9.503   4.419
13168WAT      O39745   7.849   8.216   0.784
13168WAT     H139746   7.777   8.185   0.846
13168WAT     H239747   7.882   8.139   0.729
13169WAT      O39748   0.157   6.406   5.645
13169WAT     H139749   0.238   6.388   5.589
13169WAT     H239750   0.164   6.356   5.731
13170WAT      O39751   9.822   7.463   1.040
13170WAT     H139752   9.733   7.426   1.011
13170WAT     H239753   9.807   7.533   1.110
13171WAT      O39754   1.996   7.530   4.696
13171WAT     H139755   1.923   7.599   4.692
13171WAT     H239756   1.955   7.439   4.701
13172WAT      O39757   3.841   9.374   9.338
13172WAT     H139758   3.837   9.474   9.339
13172WAT     H239759   3.905   9.343   9.408
13173WAT      O39760   2.226   7.134   7.033
13173WAT     H139761   2.141   7.142   6.980
13173WAT     H239762   2.255   7.039   7.035
13174WAT      O39763   1.852   7.864   8.085
13174WAT     H139764   1.849   7.904   7.994
13174WAT     H239765   1.879   7.768   8.078
13175WAT      O39766   7.752   8.413   5.335
13175WAT     H139767   7.740   8.327   5.384
13175WAT     H239768   7.664   8.461   5.329
13176WAT      O39769   8.703   5.922   9.843
13176WAT     H139770   8.699   5.826   9.870
13176WAT     H239771   8.637   5.938   9.769
13177WAT      O39772   7.256   7.549   8.438
13177WAT     H139773   7.165   7.522   8.407
13177WAT     H239774   7.258   7.550   8.538
13178WAT      O39775   8.300   6.089   6.302
13178WAT     H139776   8.248   6.006   6.286
13178WAT     H239777   8.243   6.169   6.283
13179WAT      O39778   8.250   2.309   7.047
13179WAT     H139779   8.301   2.240   7.098
13179WAT     H239780   8.242   2.392   7.103
13180WAT      O39781   6.905   6.725   8.376
13180WAT     H139782   6.999   6.722   8.410
13180WAT     H239783   6.870   6.632   8.366
13181WAT      O39784   5.763   3.602   3.930
13181WAT     H139785   5.779   3.668   4.004
13181WAT     H239786   5.664   3.586   3.922
13182WAT      O39787   2.138   4.587   4.476
13182WAT     H139788   2.048   4.631   4.475
13182WAT     H239789   2.133   4.501   4.526
13183WAT      O39790   1.301   4.502   9.530
13183WAT     H139791   1.239   4.435   9.488
13183WAT     H239792   1.280   4.593   9.496
13184WAT      O39793   4.052   4.963   3.825
13184WAT     H139794   4.090   4.878   3.788
13184WAT     H239795   3.991   4.942   3.901
13185WAT      O39796   0.144   7.001   5.837
13185WAT     H139797   0.145   6.940   5.916
13185WAT     H239798   0.228   7.055   5.835
13186WAT      O39799   9.062   5.788   1.683
13186WAT     H139800   9.064   5.783   1.583
13186WAT     H239801   9.001   5.862   1.712
13187WAT      O39802   0.659   2.740   2.135
13187WAT     H139803   0.729   2.788   2.188
13187WAT     H239804   0.570   2.780   2.155
13188WAT      O39805   8.873   1.560   5.945
13188WAT     H139806   8.850   1.636   6.006
13188WAT     H239807   8.885   1.477   5.999
13189WAT      O39808   9.162   0.000   2.977
13189WAT     H139809   9.238   0.043   3.025
13189WAT     H239810   9.084   0.064   2.976
13190WAT      O39811   2.753   8.072   4.610
13190WAT     H139812   2.663   8.065   4.567
13190WAT     H239813   2.756   8.013   4.690
13191WAT      O39814   2.986   4.325   8.425
13191WAT     H139815   2.976   4.413   8.471
13191WAT     H239816   2.917   4.262   8.458
13192WAT      O39817   3.711   0.596   0.914
13192WAT     H139818   3.722   0.646   0.828
13192WAT     H239819   3.776   0.520   0.918
13193WAT      O39820   8.978   7.856   8.883
13193WAT     H139821   9.054   7.837   8.822
13193WAT     H239822   8.967   7.781   8.948
13194WAT      O39823   4.255   6.857   4.537
13194WAT     H139824   4.213   6.783   4.485
13194WAT     H239825   4.272   6.935   4.477
13195WAT      O39826   9.186   1.614   0.227
13195WAT     H139827   9.103   1.665   0.248
13195WAT     H239828   9.221   1.642   0.138
13196WAT      O39829   3.652   5.007   2.018
13196WAT     H139830   3.608   4.971   2.100
13196WAT     H239831   3.604   4.974   1.937
13197WAT      O39832   1.158   0.051   7.201
13197WAT     H139833   1.247   0.025   7.239
13197WAT     H239834   1.130  -0.015   7.131
13198WAT      O39835   5.094   6.048   0.402
13198WAT     H139836   5.053   6.129   0.359
13198WAT     H239837   5.022   5.995   0.447
13199WAT      O39838   6.564   3.591   5.474
13199WAT     H139839   6.625   3.561   5.548
13199WAT     H239840   6.593   3.548   5.389
13200WAT      O39841   7.108   4.665   9.454
13200WAT     H139842   7.071   4.679   9.362
13200WAT     H239843   7.036   4.627   9.513
13201WAT      O39844   3.707   6.537   2.431
13201WAT     H139845   3.669   6.607   2.492
13201WAT     H239846   3.645   6.459   2.427
13202WAT      O39847   1.615   5.931   7.455
13202WAT     H139848   1.589   5.910   7.360
13202WAT     H239849   1.618   5.845   7.507
13203WAT      O39850   5.496   2.741   1.551
13203WAT     H139851   5.461   2.739   1.458
13203WAT     H239852   5.428   2.780   1.612
13204WAT      O39853   6.573   8.975   1.906
13204WAT     H139854   6.612   9.057   1.946
13204WAT     H239855   6.638   8.936   1.841
13205WAT      O39856   3.272   0.592   3.400
13205WAT     H139857   3.324   0.517   3.361
13205WAT     H239858   3.334   0.657   3.444
13206WAT      O39859   5.101   3.516   9.756
13206WAT     H139860   5.194   3.530   9.790
13206WAT     H239861   5.089   3.420   9.732
13207WAT      O39862   9.671   4.920   6.960
13207WAT     H139863   9.650   4.866   7.041
13207WAT     H239864   9.706   4.859   6.888
13208WAT      O39865   2.818   8.419   8.331
13208WAT     H139866   2.844   8.440   8.237
13208WAT     H239867   2.821   8.320   8.345
13209WAT      O39868   7.307   2.613   8.939
13209WAT     H139869   7.390   2.621   8.994
13209WAT     H239870   7.326   2.560   8.856
13210WAT      O39871   1.238   3.156   5.262
13210WAT     H139872   1.317   3.216   5.270
13210WAT     H239873   1.216   3.116   5.351
13211WAT      O39874   0.423   4.825   1.776
13211WAT     H139875   0.472   4.912   1.780
13211WAT     H239876   0.345   4.828   1.839
13212WAT      O39877   8.376   4.162   0.127
13212WAT     H139878   8.462   4.117   0.103
13212WAT     H239879   8.308   4.142   0.057
13213WAT      O39880   7.247   4.083   5.864
13213WAT     H139881   7.240   4.179   5.891
13213WAT     H239882   7.318   4.074   5.794
13214WAT      O39883   7.661   7.473   1.616
13214WAT     H139884   7.574   7.511   1.584
13214WAT     H239885   7.709   7.541   1.670
13215WAT      O39886   1.926   3.967   8.381
13215WAT     H139887   1.874   3.881   8.375
13215WAT     H239888   1.909   4.010   8.469
13216WAT      O39889   0.909   5.618   3.248
13216WAT     H139890   0.973   5.549   3.215
13216WAT     H239891   0.815   5.590   3.225
13217WAT      O39892   7.060   2.173   6.869
13217WAT     H139893   7.045   2.171   6.770
13217WAT     H239894   7.152   2.140   6.889
13218WAT      O39895   3.022   1.662   7.427
13218WAT     H139896   2.979   1.658   7.337
13218WAT     H239897   3.117   1.633   7.420
13219WAT      O39898   8.483   3.833   6.994
13219WAT     H139899   8.461   3.930   6.998
13219WAT     H239900   8.496   3.805   6.899
13220WAT      O39901   8.556   7.951   3.691
13220WAT     H139902   8.628   7.892   3.654
13220WAT     H239903   8.474   7.896   3.708
13221WAT      O39904   2.913   4.240   1.890
13221WAT     H139905   2.919   4.319   1.830
13221WAT     H239906   2.846   4.175   1.853
13222WAT      O39907   2.150   4.289   2.794
13222WAT     H139908   2.056   4.264   2.769
13222WAT     H239909   2.203   4.304   2.710
13223WAT      O39910   8.814   5.017   8.574
13223WAT     H139911   8.910   5.013   8.599
13223WAT     H239912   8.804   5.056   8.482
13224WAT      O39913   2.488   9.641   8.841
13224WAT     H139914   2.552   9.567   8.858
13224WAT     H239915   2.493   9.708   8.915
13225WAT      O39916   9.252   5.930   6.077
13225WAT     H139917   9.234   5.993   6.002
13225WAT     H239918   9.351   5.917   6.088
13226WAT      O39919   5.979   7.319   9.602
13226WAT     H139920   5.961   7.418   9.597
13226WAT     H239921   5.983   7.281   9.510
13227WAT      O39922   6.641   8.393   5.306
13227WAT     H139923   6.581   8.459   5.262
13227WAT     H239924   6.706   8.356   5.239
13228WAT      O39925   0.719   3.996   8.579
13228WAT     H139926   0.817   3.982   8.565
13228WAT     H239927   0.705   4.065   8.651
13229WAT      O39928   3.971   0.379   1.618
13229WAT     H139929   3.882   0.343   1.593
13229WAT     H239930   4.042   0.329   1.569
13230WAT      O39931   6.201   7.918   1.995
13230WAT     H139932   6.184   7.827   1.958
13230WAT     H239933   6.194   7.986   1.921
13231WAT      O39934   3.622   5.880   8.672
13231WAT     H139935   3.598   5.805   8.733
13231WAT     H239936   3.707   5.858   8.624
13232WAT      O39937   8.981   2.900   8.505
13232WAT     H139938   8.973   2.951   8.591
13232WAT     H239939   8.891   2.888   8.464
13233WAT      O39940   2.773   4.999   7.989
13233WAT     H139941   2.735   5.086   8.019
13233WAT     H239942   2.711   4.925   8.015
13234WAT      O39943   8.844   6.429   5.113
13234WAT     H139944   8.943   6.443   5.110
13234WAT     H239945   8.824   6.352   5.174
13235WAT      O39946   9.844   8.682   7.329
13235WAT     H139947   9.940   8.706   7.344
13235WAT     H239948   9.820   8.604   7.387
13236WAT      O39949   8.882   0.899   1.685
13236WAT     H139950   8.874   0.900   1.785
13236WAT     H239951   8.804   0.947   1.645
13237WAT      O39952   1.738   6.551   0.365
13237WAT     H139953   1.814   6.615   0.358
13237WAT     H239954   1.760   6.467   0.314
13238WAT      O39955   5.995   2.838   5.054
13238WAT     H139956   5.994   2.774   5.131
13238WAT     H239957   6.063   2.909   5.071
13239WAT      O39958   4.410   1.662   7.875
13239WAT     H139959   4.454   1.639   7.961
13239WAT     H239960   4.440   1.753   7.846
13240WAT      O39961   5.323   1.915   0.126
13240WAT     H139962   5.306   1.918   0.028
13240WAT     H239963   5.294   1.827   0.163
13241WAT      O39964   6.555   7.252   4.195
13241WAT     H139965   6.499   7.184   4.243
13241WAT     H239966   6.649   7.246   4.228
13242WAT      O39967   0.531   0.110   0.331
13242WAT     H139968   0.541   0.199   0.285
13242WAT     H239969   0.621   0.077   0.360
13243WAT      O39970   0.507   1.450   6.645
13243WAT     H139971   0.596   1.478   6.609
13243WAT     H239972   0.436   1.478   6.581
13244WAT      O39973   9.418   5.958   2.413
13244WAT     H139974   9.466   5.878   2.449
13244WAT     H239975   9.349   5.929   2.347
13245WAT      O39976   3.701   7.749   7.083
13245WAT     H139977   3.684   7.818   7.154
13245WAT     H239978   3.732   7.794   6.999
13246WAT      O39979   8.303   9.698   5.274
13246WAT     H139980   8.263   9.787   5.294
13246WAT     H239981   8.368   9.674   5.346
13247WAT      O39982   3.118   2.635   0.805
13247WAT     H139983   3.094   2.545   0.843
13247WAT     H239984   3.087   2.640   0.710
13248WAT      O39985   5.793   0.162   7.749
13248WAT     H139986   5.703   0.149   7.790
13248WAT     H239987   5.859   0.182   7.820
13249WAT      O39988   0.739   6.517   2.505
13249WAT     H139989   0.684   6.494   2.425
13249WAT     H239990   0.764   6.614   2.502
13250WAT      O39991   6.670   8.085   7.237
13250WAT     H139992   6.710   8.173   7.264
13250WAT     H239993   6.630   8.094   7.146
13251WAT      O39994   7.550   0.587   2.177
13251WAT     H139995   7.596   0.601   2.090
13251WAT     H239996   7.506   0.672   2.206
13252WAT      O39997   8.486   2.034   9.165
13252WAT     H139998   8.429   2.086   9.102
13252WAT     H239999   8.440   1.949   9.191
13253WAT      O40000   1.648   3.088   1.936
13253WAT     H140001   1.726   3.038   1.900
13253WAT     H240002   1.579   3.099   1.864
13254WAT      O40003   1.014   3.132   8.093
13254WAT     H140004   0.987   3.038   8.076
13254WAT     H240005   0.940   3.181   8.139
13255WAT      O40006   4.022   2.975   8.127
13255WAT     H140007   3.965   2.989   8.209
13255WAT     H240008   3.977   3.016   8.048
13256WAT      O40009   8.370   4.167   8.335
13256WAT     H140010   8.439   4.185   8.405
13256WAT     H240011   8.304   4.243   8.333
13257WAT      O40012   5.822   6.243   6.731
13257WAT     H140013   5.788   6.259   6.824
13257WAT     H240014   5.888   6.314   6.706
13258WAT      O40015   2.871   6.704   0.032
13258WAT     H140016   2.877   6.743   0.124
13258WAT     H240017   2.935   6.628   0.024
13259WAT      O40018   6.027   0.941   8.686
13259WAT     H140019   5.935   0.973   8.661
13259WAT     H240020   6.036   0.844   8.663
13260WAT      O40021   7.754   1.444   7.368
13260WAT     H140022   7.831   1.407   7.316
13260WAT     H240023   7.773   1.439   7.466
13261WAT      O40024   9.538   6.460   7.366
13261WAT     H140025   9.473   6.385   7.355
13261WAT     H240026   9.495   6.534   7.417
13262WAT      O40027   4.419   3.112   5.793
13262WAT     H140028   4.446   3.023   5.757
13262WAT     H240029   4.323   3.130   5.770
13263WAT      O40030   3.528   5.804   8.110
13263WAT     H140031   3.549   5.899   8.087
13263WAT     H240032   3.614   5.755   8.128
13264WAT      O40033   9.663   0.460   5.128
13264WAT     H140034   9.595   0.403   5.083
13264WAT     H240035   9.617   0.526   5.188
13265WAT      O40036   4.967   3.980   4.664
13265WAT     H140037   4.957   4.018   4.572
13265WAT     H240038   4.877   3.958   4.701
13266WAT      O40039   4.002   0.252   4.312
13266WAT     H140040   4.022   0.318   4.240
13266WAT     H240041   4.001   0.298   4.401
13267WAT      O40042   8.719   1.615   4.684
13267WAT     H140043   8.638   1.634   4.628
13267WAT     H240044   8.691   1.567   4.767
13268WAT      O40045   1.054   7.412   7.298
13268WAT     H140046   1.016   7.432   7.208
13268WAT     H240047   1.153   7.399   7.290
13269WAT      O40048   0.202   7.930   2.817
13269WAT     H140049   0.124   7.952   2.876
13269WAT     H240050   0.265   8.007   2.815
13270WAT      O40051   2.496   1.307   7.591
13270WAT     H140052   2.492   1.209   7.611
13270WAT     H240053   2.426   1.355   7.645
13271WAT      O40054   1.913   0.681   1.561
13271WAT     H140055   1.989   0.616   1.558
13271WAT     H240056   1.843   0.648   1.624
13272WAT      O40057   9.355   7.309   1.123
13272WAT     H140058   9.260   7.333   1.101
13272WAT     H240059   9.380   7.349   1.211
13273WAT      O40060   7.014   2.462   8.753
13273WAT     H140061   7.013   2.494   8.848
13273WAT     H240062   6.924   2.425   8.730
13274WAT      O40063   3.053   7.778   2.420
13274WAT     H140064   3.062   7.688   2.379
13274WAT     H240065   3.129   7.836   2.389
13275WAT      O40066   3.108   9.276   8.948
13275WAT     H140067   3.116   9.278   9.048
13275WAT     H240068   3.194   9.308   8.908
13276WAT      O40069   0.180   1.551   2.787
13276WAT     H140070   0.264   1.498   2.803
13276WAT     H240071   0.196   1.647   2.811
13277WAT      O40072   6.131   0.988   7.877
13277WAT     H140073   6.056   1.010   7.939
13277WAT     H240074   6.159   1.071   7.828
13278WAT      O40075   4.860   1.927   2.179
13278WAT     H140076   4.768   1.916   2.216
13278WAT     H240077   4.870   2.019   2.141
13279WAT      O40078   9.266   3.478   4.530
13279WAT     H140079   9.172   3.499   4.558
13279WAT     H240080   9.325   3.476   4.610
13280WAT      O40081   6.691   7.365   7.553
13280WAT     H140082   6.624   7.439   7.556
13280WAT     H240083   6.706   7.329   7.645
13281WAT      O40084   2.285   1.230   6.970
13281WAT     H140085   2.337   1.293   6.912
13281WAT     H240086   2.190   1.258   6.973
13282WAT      O40087   4.970   3.247   5.327
13282WAT     H140088   4.920   3.249   5.413
13282WAT     H240089   4.907   3.225   5.252
13283WAT      O40090   1.964   6.147   1.954
13283WAT     H140091   2.058   6.111   1.958
13283WAT     H240092   1.914   6.098   1.883
13284WAT      O40093   3.479   6.097   8.649
13284WAT     H140094   3.543   6.022   8.659
13284WAT     H240095   3.525   6.174   8.604
13285WAT      O40096   8.964   3.795   1.981
13285WAT     H140097   8.874   3.762   1.952
13285WAT     H240098   8.963   3.895   1.982
13286WAT      O40099   2.644   0.796   1.260
13286WAT     H140100   2.576   0.726   1.237
13286WAT     H240101   2.624   0.880   1.209
13287WAT      O40102   4.619   7.632   8.380
13287WAT     H140103   4.602   7.647   8.478
13287WAT     H240104   4.672   7.549   8.368
13288WAT      O40105   3.092   8.393   6.903
13288WAT     H140106   3.046   8.396   6.814
13288WAT     H240107   3.067   8.309   6.950
13289WAT      O40108   1.048   7.557   3.387
13289WAT     H140109   1.085   7.468   3.361
13289WAT     H240110   1.123   7.618   3.413
13290WAT      O40111   4.499   1.689   8.837
13290WAT     H140112   4.577   1.751   8.825
13290WAT     H240113   4.509   1.611   8.775
13291WAT      O40114   5.612   5.854   2.947
13291WAT     H140115   5.568   5.777   2.993
13291WAT     H240116   5.543   5.919   2.915
13292WAT      O40117   3.312   7.418   9.784
13292WAT     H140118   3.300   7.319   9.774
13292WAT     H240119   3.388   7.448   9.727
13293WAT      O40120   7.704   7.199   3.539
13293WAT     H140121   7.732   7.130   3.606
13293WAT     H240122   7.783   7.225   3.484
13294WAT      O40123   7.207   6.958   3.739
13294WAT     H140124   7.169   6.880   3.688
13294WAT     H240125   7.306   6.950   3.743
13295WAT      O40126   7.824   4.599   7.683
13295WAT     H140127   7.783   4.643   7.603
13295WAT     H240128   7.918   4.630   7.694
13296WAT      O40129   4.384   6.673   9.477
13296WAT     H140130   4.314   6.741   9.457
13296WAT     H240131   4.474   6.711   9.457
13297WAT      O40132   4.999   7.723   7.492
13297WAT     H140133   5.047   7.751   7.575
13297WAT     H240134   5.043   7.641   7.454
13298WAT      O40135   2.293   9.452   7.682
13298WAT     H140136   2.302   9.546   7.715
13298WAT     H240137   2.224   9.449   7.610
13299WAT      O40138   3.827   4.411   2.056
13299WAT     H140139   3.863   4.363   2.136
13299WAT     H240140   3.838   4.509   2.069
13300WAT      O40141   9.535   1.145   2.144
13300WAT     H140142   9.514   1.071   2.079
13300WAT     H240143   9.505   1.232   2.105
13301WAT      O40144   9.719   0.608   2.376
13301WAT     H140145   9.620   0.618   2.387
13301WAT     H240146   9.738   0.564   2.288
13302WAT      O40147   2.152   6.758   6.918
13302WAT     H140148   2.116   6.668   6.894
13302WAT     H240149   2.103   6.794   6.997
13303WAT      O40150   9.007   3.532   2.861
13303WAT     H140151   9.012   3.439   2.824
13303WAT     H240152   9.093   3.555   2.906
13304WAT      O40153   8.613   8.162   5.484
13304WAT     H140154   8.626   8.247   5.433
13304WAT     H240155   8.536   8.173   5.547
13305WAT      O40156   1.327   0.510   8.825
13305WAT     H140157   1.368   0.596   8.856
13305WAT     H240158   1.228   0.519   8.824
13306WAT      O40159   3.762   1.476   1.886
13306WAT     H140160   3.789   1.382   1.906
13306WAT     H240161   3.662   1.481   1.882
13307WAT      O40162   1.084   8.901   0.889
13307WAT     H140163   1.123   8.944   0.807
13307WAT     H240164   1.003   8.848   0.864
13308WAT      O40165   9.727   8.809   9.494
13308WAT     H140166   9.657   8.796   9.564
13308WAT     H240167   9.695   8.772   9.407
13309WAT      O40168   6.894   1.176   5.294
13309WAT     H140169   6.824   1.105   5.303
13309WAT     H240170   6.855   1.265   5.316
13310WAT      O40171   7.991   8.134   3.129
13310WAT     H140172   8.057   8.209   3.138
13310WAT     H240173   7.994   8.077   3.211
13311WAT      O40174   2.353   6.875   9.048
13311WAT     H140175   2.314   6.830   8.967
13311WAT     H240176   2.281   6.889   9.116
13312WAT      O40177   1.990   3.601   3.592
13312WAT     H140178   1.965   3.687   3.637
13312WAT     H240179   2.057   3.619   3.520
13313WAT      O40180   2.638   1.565   7.724
13313WAT     H140181   2.548   1.606   7.731
13313WAT     H240182   2.647   1.520   7.635
13314WAT      O40183   1.488   6.547   7.812
13314WAT     H140184   1.525   6.589   7.895
13314WAT     H240185   1.474   6.618   7.743
13315WAT      O40186   9.744   7.939   8.703
13315WAT     H140187   9.713   8.034   8.701
13315WAT     H240188   9.818   7.927   8.638
13316WAT      O40189   8.088   5.945   8.221
13316WAT     H140190   8.167   5.906   8.269
13316WAT     H240191   8.044   6.013   8.279
13317WAT      O40192   9.560   0.312   5.417
13317WAT     H140193   9.569   0.410   5.404
13317WAT     H240194   9.518   0.294   5.506
13318WAT      O40195   2.912   4.835   2.608
13318WAT     H140196   2.936   4.879   2.522
13318WAT     H240197   2.854   4.896   2.662
13319WAT      O40198   7.222   1.109   6.251
13319WAT     H140199   7.202   1.122   6.348
13319WAT     H240200   7.214   1.012   6.229
13320WAT      O40201   0.547   9.159   8.526
13320WAT     H140202   0.507   9.214   8.453
13320WAT     H240203   0.586   9.219   8.596
13321WAT      O40204   3.838   2.297   6.449
13321WAT     H140205   3.749   2.299   6.496
13321WAT     H240206   3.902   2.241   6.502
13322WAT      O40207   6.932   7.886   5.185
13322WAT     H140208   6.880   7.824   5.245
13322WAT     H240209   6.910   7.865   5.090
13323WAT      O40210   1.681   5.275   1.844
13323WAT     H140211   1.773   5.305   1.820
13323WAT     H240212   1.619   5.353   1.845
13324WAT      O40213   2.450   8.376   5.595
13324WAT     H140214   2.391   8.420   5.527
13324WAT     H240215   2.523   8.326   5.548
13325WAT      O40216   8.061   8.327   5.814
13325WAT     H140217   8.098   8.404   5.762
13325WAT     H240218   7.992   8.361   5.879
13326WAT      O40219   1.912   1.513   0.604
13326WAT     H140220   1.934   1.417   0.619
13326WAT     H240221   1.977   1.552   0.539
13327WAT      O40222   6.253   9.627   0.876
13327WAT     H140223   6.321   9.570   0.922
13327WAT     H240224   6.165   9.581   0.878
13328WAT      O40225   4.608   6.187   9.487
13328WAT     H140226   4.566   6.244   9.416
13328WAT     H240227   4.630   6.243   9.566
13329WAT      O40228   9.187   1.239   6.299
13329WAT     H140229   9.135   1.257   6.382
13329WAT     H240230   9.133   1.265   6.219
13330WAT      O40231   9.799   7.773   4.234
13330WAT     H140232   9.858   7.766   4.154
13330WAT     H240233   9.747   7.688   4.245
13331WAT      O40234   1.823   1.760   3.439
13331WAT     H140235   1.747   1.703   3.409
13331WAT     H240236   1.816   1.776   3.538
13332WAT      O40237   0.281   4.605   9.676
13332WAT     H140238   0.224   4.664   9.734
13332WAT     H240239   0.232   4.520   9.656
13333WAT      O40240   4.784   3.103   2.469
13333WAT     H140241   4.880   3.103   2.440
13333WAT     H240242   4.766   3.181   2.529
13334WAT      O40243   9.419   0.894   2.345
13334WAT     H140244   9.368   0.980   2.346
13334WAT     H240245   9.510   0.908   2.383
13335WAT      O40246   4.591   7.153   5.455
13335WAT     H140247   4.674   7.113   5.494
13335WAT     H240248   4.541   7.083   5.404
13336WAT      O40249   8.248   6.271   6.864
13336WAT     H140250   8.241   6.338   6.790
13336WAT     H240251   8.205   6.307   6.946
13337WAT      O40252   3.602   0.137   5.729
13337WAT     H140253   3.518   0.190   5.735
13337WAT     H240254   3.587   0.056   5.672
13338WAT      O40255   4.422   6.073   0.300
13338WAT     H140256   4.506   6.102   0.254
13338WAT     H240257   4.441   6.057   0.397
13339WAT      O40258   8.339   5.049   9.108
13339WAT     H140259   8.398   5.036   9.029
13339WAT     H240260   8.343   4.969   9.167
13340WAT      O40261   9.631   2.464   9.619
13340WAT     H140262   9.566   2.530   9.582
13340WAT     H240263   9.612   2.449   9.716
13341WAT      O40264   4.566   3.669   0.090
13341WAT     H140265   4.656   3.705   0.113
13341WAT     H240266   4.562   3.649  -0.008
13342WAT      O40267   0.506   4.630   1.122
13342WAT     H140268   0.446   4.599   1.048
13342WAT     H240269   0.465   4.710   1.167
13343WAT      O40270   1.359   5.666   6.987
13343WAT     H140271   1.323   5.617   7.067
13343WAT     H240272   1.285   5.719   6.945
13344WAT      O40273   1.986   1.794   2.071
13344WAT     H140274   1.954   1.889   2.078
13344WAT     H240275   1.929   1.736   2.129
13345WAT      O40276   5.162   8.707   8.417
13345WAT     H140277   5.137   8.792   8.370
13345WAT     H240278   5.139   8.715   8.514
13346WAT      O40279   6.246   1.404   0.138
13346WAT     H140280   6.311   1.407   0.213
13346WAT     H240281   6.294   1.380   0.053
13347WAT      O40282   3.550   6.598   7.962
13347WAT     H140283   3.528   6.506   7.994
13347WAT     H240284   3.521   6.665   8.030
13348WAT      O40285   9.171   5.654   3.632
13348WAT     H140286   9.220   5.739   3.611
13348WAT     H240287   9.192   5.627   3.726
13349WAT      O40288   9.453   8.971   4.192
13349WAT     H140289   9.494   8.892   4.146
13349WAT     H240290   9.437   8.948   4.288
13350WAT      O40291   1.353   0.555   3.258
13350WAT     H140292   1.331   0.652   3.259
13350WAT     H240293   1.420   0.536   3.186
13351WAT      O40294   3.323   5.390   2.768
13351WAT     H140295   3.384   5.318   2.802
13351WAT     H240296   3.378   5.469   2.741
13352WAT      O40297   1.038   3.147   3.961
13352WAT     H140298   1.010   3.071   3.902
13352WAT     H240299   1.030   3.233   3.910
13353WAT      O40300   0.403   3.491   7.823
13353WAT     H140301   0.449   3.445   7.747
13353WAT     H240302   0.338   3.558   7.786
13354WAT      O40303   0.747   3.689   7.941
13354WAT     H140304   0.769   3.648   8.030
13354WAT     H240305   0.766   3.623   7.868
13355WAT      O40306   9.628   8.493   3.100
13355WAT     H140307   9.533   8.484   3.072
13355WAT     H240308   9.634   8.548   3.183
13356WAT      O40309   5.188   5.778   3.882
13356WAT     H140310   5.202   5.684   3.912
13356WAT     H240311   5.110   5.818   3.930
13357WAT      O40312   4.515   9.702   4.870
13357WAT     H140313   4.504   9.673   4.965
13357WAT     H240314   4.506   9.802   4.865
13358WAT      O40315   5.914   0.873   6.688
13358WAT     H140316   5.979   0.817   6.738
13358WAT     H240317   5.959   0.957   6.656
13359WAT      O40318   6.220   1.708   2.588
13359WAT     H140319   6.284   1.784   2.594
13359WAT     H240320   6.143   1.724   2.648
13360WAT      O40321   1.884   7.091   2.008
13360WAT     H140322   1.941   7.063   2.086
13360WAT     H240323   1.794   7.048   2.017
13361WAT      O40324   2.921   4.466   9.124
13361WAT     H140325   2.998   4.402   9.115
13361WAT     H240326   2.844   4.434   9.069
13362WAT      O40327   8.263   6.204   8.759
13362WAT     H140328   8.224   6.250   8.679
13362WAT     H240329   8.287   6.272   8.828
13363WAT      O40330   6.713   9.701   4.121
13363WAT     H140331   6.707   9.617   4.068
13363WAT     H240332   6.803   9.743   4.106
13364WAT      O40333   8.640   0.614   6.199
13364WAT     H140334   8.614   0.602   6.294
13364WAT     H240335   8.561   0.643   6.145
13365WAT      O40336   6.465   5.468   3.417
13365WAT     H140337   6.382   5.517   3.442
13365WAT     H240338   6.537   5.488   3.484
13366WAT      O40339   8.038   9.781   0.157
13366WAT     H140340   8.129   9.741   0.172
13366WAT     H240341   7.995   9.801   0.245
13367WAT      O40342   4.441   0.443   9.597
13367WAT     H140343   4.509   0.404   9.534
13367WAT     H240344   4.454   0.403   9.688
13368WAT      O40345   8.802   7.429   0.374
13368WAT     H140346   8.722   7.487   0.386
13368WAT     H240347   8.812   7.368   0.453
13369WAT      O40348   4.971   4.950   7.501
13369WAT     H140349   4.928   4.878   7.446
13369WAT     H240350   4.977   5.034   7.447
13370WAT      O40351   6.058   4.530   0.383
13370WAT     H140352   6.124   4.564   0.449
13370WAT     H240353   5.981   4.487   0.430
13371WAT      O40354   2.242   1.912   5.723
13371WAT     H140355   2.194   1.881   5.805
13371WAT     H240356   2.262   1.833   5.664
13372WAT      O40357   8.794   4.740   9.533
13372WAT     H140358   8.788   4.732   9.434
13372WAT     H240359   8.840   4.826   9.557
13373WAT      O40360   5.586   9.017   6.417
13373WAT     H140361   5.493   9.052   6.426
13373WAT     H240362   5.624   9.046   6.329
13374WAT      O40363   4.168   5.733   0.278
13374WAT     H140364   4.071   5.720   0.295
13374WAT     H240365   4.218   5.727   0.365
13375WAT      O40366   7.253   0.552   4.044
13375WAT     H140367   7.190   0.608   3.990
13375WAT     H240368   7.201   0.503   4.114
13376WAT      O40369   5.371   3.847   8.155
13376WAT     H140370   5.433   3.914   8.114
13376WAT     H240371   5.342   3.781   8.086
13377WAT      O40372   6.831   2.032   6.908
13377WAT     H140373   6.783   2.026   6.821
13377WAT     H240374   6.928   2.054   6.891
13378WAT      O40375   0.048   3.563   6.479
13378WAT     H140376   0.106   3.544   6.558
13378WAT     H240377   0.086   3.638   6.426
13379WAT      O40378   4.298   4.502   4.367
13379WAT     H140379   4.218   4.515   4.308
13379WAT     H240380   4.372   4.562   4.337
13380WAT      O40381   5.905   1.563   6.478
13380WAT     H140382   5.931   1.650   6.521
13380WAT     H240383   5.811   1.540   6.503
13381WAT      O40384   1.748   1.943   7.896
13381WAT     H140385   1.811   1.961   7.972
13381WAT     H240386   1.733   1.845   7.887
13382WAT      O40387   0.160   6.390   8.599
13382WAT     H140388   0.160   6.357   8.693
13382WAT     H240389   0.118   6.480   8.595
13383WAT      O40390   1.590   5.579   4.128
13383WAT     H140391   1.524   5.606   4.058
13383WAT     H240392   1.665   5.644   4.131
13384WAT      O40393   1.668   2.777   4.561
13384WAT     H140394   1.618   2.707   4.510
13384WAT     H240395   1.608   2.819   4.629
13385WAT      O40396   7.677   4.265   1.721
13385WAT     H140397   7.601   4.216   1.765
13385WAT     H240398   7.746   4.288   1.789
13386WAT      O40399   1.512   2.110   9.626
13386WAT     H140400   1.608   2.125   9.601
13386WAT     H240401   1.489   2.014   9.612
13387WAT      O40402   5.817   1.428   5.691
13387WAT     H140403   5.861   1.411   5.603
13387WAT     H240404   5.860   1.372   5.761
13388WAT      O40405   8.798   1.462   4.423
13388WAT     H140406   8.750   1.377   4.401
13388WAT     H240407   8.744   1.540   4.394
13389WAT      O40408   4.207   2.570   5.814
13389WAT     H140409   4.130   2.509   5.830
13389WAT     H240410   4.181   2.664   5.836
13390WAT      O40411   9.206   5.108   4.766
13390WAT     H140412   9.251   5.042   4.706
13390WAT     H240413   9.141   5.060   4.826
13391WAT      O40414   4.786   7.246   5.874
13391WAT     H140415   4.817   7.223   5.967
13391WAT     H240416   4.762   7.342   5.870
13392WAT      O40417   5.065   3.652   9.281
13392WAT     H140418   5.033   3.562   9.251
13392WAT     H240419   4.993   3.720   9.265
13393WAT      O40420   7.596   9.557   7.065
13393WAT     H140421   7.516   9.577   7.008
13393WAT     H240422   7.680   9.579   7.014
13394WAT      O40423   2.796   7.935   0.337
13394WAT     H140424   2.817   7.900   0.428
13394WAT     H240425   2.713   7.892   0.302
13395WAT      O40426   7.250   7.623   1.584
13395WAT     H140427   7.287   7.595   1.673
13395WAT     H240428   7.206   7.713   1.592
13396WAT      O40429   1.347   7.524   8.777
13396WAT     H140430   1.261   7.475   8.763
13396WAT     H240431   1.342   7.614   8.734
13397WAT      O40432   5.264   5.387   0.898
13397WAT     H140433   5.348   5.336   0.915
13397WAT     H240434   5.265   5.471   0.953
13398WAT      O40435   2.681   5.251   8.349
13398WAT     H140436   2.755   5.283   8.290
13398WAT     H240437   2.673   5.152   8.341
13399WAT      O40438   7.008   6.355   4.080
13399WAT     H140439   7.046   6.276   4.129
13399WAT     H240440   6.971   6.421   4.145
13400WAT      O40441   8.252   8.390   6.050
13400WAT     H140442   8.344   8.356   6.028
13400WAT     H240443   8.192   8.375   5.971
13401WAT      O40444   1.137   1.771   9.521
13401WAT     H140445   1.146   1.674   9.541
13401WAT     H240446   1.046   1.802   9.549
13402WAT      O40447   6.519   9.463   9.846
13402WAT     H140448   6.523   9.491   9.750
13402WAT     H240449   6.570   9.528   9.902
13403WAT      O40450   7.595   4.588   3.162
13403WAT     H140451   7.563   4.515   3.103
13403WAT     H240452   7.670   4.555   3.220
13404WAT      O40453   5.308   9.480   7.527
13404WAT     H140454   5.402   9.516   7.531
13404WAT     H240455   5.287   9.431   7.611
13405WAT      O40456   9.144   9.071   2.916
13405WAT     H140457   9.094   8.996   2.960
13405WAT     H240458   9.122   9.157   2.962
13406WAT      O40459   0.822   5.457   4.392
13406WAT     H140460   0.778   5.523   4.332
13406WAT     H240461   0.920   5.456   4.375
13407WAT      O40462   6.630   4.831   4.662
13407WAT     H140463   6.599   4.777   4.741
13407WAT     H240464   6.574   4.913   4.654
13408WAT      O40465   0.846   8.140   3.382
13408WAT     H140466   0.895   8.070   3.433
13408WAT     H240467   0.904   8.174   3.308
13409WAT      O40468   5.744   0.863   7.568
13409WAT     H140469   5.685   0.854   7.648
13409WAT     H240470   5.839   0.847   7.594
13410WAT      O40471   2.902   5.546   8.216
13410WAT     H140472   2.958   5.489   8.277
13410WAT     H240473   2.856   5.616   8.270
13411WAT      O40474   2.793   8.893   8.649
13411WAT     H140475   2.802   8.933   8.741
13411WAT     H240476   2.850   8.812   8.643
13412WAT      O40477   5.911   5.966   6.253
13412WAT     H140478   5.989   5.913   6.221
13412WAT     H240479   5.871   5.921   6.333
13413WAT      O40480   8.114   2.436   8.322
13413WAT     H140481   8.117   2.533   8.297
13413WAT     H240482   8.075   2.384   8.246
13414WAT      O40483   3.772   0.108   6.696
13414WAT     H140484   3.673   0.105   6.713
13414WAT     H240485   3.790   0.083   6.601
13415WAT      O40486   8.507   8.222   8.397
13415WAT     H140487   8.500   8.289   8.324
13415WAT     H240488   8.594   8.174   8.391
13416WAT      O40489   3.398   7.934   4.503
13416WAT     H140490   3.321   7.936   4.567
13416WAT     H240491   3.440   8.025   4.499
13417WAT      O40492   1.566   9.785   8.212
13417WAT     H140493   1.480   9.808   8.257
13417WAT     H240494   1.595   9.863   8.156
13418WAT      O40495   3.480   9.732   0.527
13418WAT     H140496   3.496   9.689   0.616
13418WAT     H240497   3.523   9.678   0.455
13419WAT      O40498   3.539   5.314   8.617
13419WAT     H140499   3.548   5.250   8.541
13419WAT     H240500   3.511   5.265   8.700
13420WAT      O40501   6.172   8.154   3.083
13420WAT     H140502   6.125   8.159   3.171
13420WAT     H240503   6.222   8.068   3.078
13421WAT      O40504   1.928   2.723   4.455
13421WAT     H140505   1.976   2.654   4.510
13421WAT     H240506   1.838   2.740   4.494
13422WAT      O40507   3.588   0.242   9.309
13422WAT     H140508   3.515   0.298   9.269
13422WAT     H240509   3.675   0.266   9.267
13423WAT      O40510   2.607   6.240   6.400
13423WAT     H140511   2.557   6.160   6.366
13423WAT     H240512   2.663   6.277   6.326
13424WAT      O40513   5.440   6.461   4.258
13424WAT     H140514   5.463   6.430   4.350
13424WAT     H240515   5.348   6.429   4.234
13425WAT      O40516   8.604   4.484   8.902
13425WAT     H140517   8.605   4.461   8.804
13425WAT     H240518   8.648   4.411   8.954
13426WAT      O40519   7.676   2.785   9.859
13426WAT     H140520   7.727   2.854   9.909
13426WAT     H240521   7.733   2.750   9.784
13427WAT      O40522   1.951   8.985   1.931
13427WAT     H140523   1.889   9.060   1.955
13427WAT     H240524   1.897   8.901   1.917
13428WAT      O40525   2.486   4.487   3.405
13428WAT     H140526   2.508   4.393   3.380
13428WAT     H240527   2.394   4.491   3.446
13429WAT      O40528   0.258   2.218   5.098
13429WAT     H140529   0.285   2.256   5.010
13429WAT     H240530   0.259   2.290   5.167
13430WAT      O40531   7.824   7.429   7.683
13430WAT     H140532   7.896   7.417   7.751
13430WAT     H240533   7.854   7.493   7.613
13431WAT      O40534   6.484   0.340   5.627
13431WAT     H140535   6.448   0.298   5.710
13431WAT     H240536   6.410   0.389   5.581
13432WAT      O40537   2.555   1.243   1.069
13432WAT     H140538   2.499   1.208   0.994
13432WAT     H240539   2.520   1.209   1.156
13433WAT      O40540   6.986   7.391   1.019
13433WAT     H140541   6.937   7.415   0.935
13433WAT     H240542   7.084   7.385   1.000
13434WAT      O40543   7.294   8.677   9.283
13434WAT     H140544   7.321   8.733   9.361
13434WAT     H240545   7.224   8.725   9.230
13435WAT      O40546   9.016   1.023   3.690
13435WAT     H140547   9.005   1.066   3.601
13435WAT     H240548   9.110   1.040   3.723
13436WAT      O40549   3.088   7.002   9.191
13436WAT     H140550   3.130   6.912   9.182
13436WAT     H240551   3.158   7.071   9.209
13437WAT      O40552   8.988   6.923   0.273
13437WAT     H140553   8.972   7.019   0.248
13437WAT     H240554   8.901   6.874   0.272
13438WAT      O40555   3.245   9.461   0.693
13438WAT     H140556   3.241   9.560   0.703
13438WAT     H240557   3.159   9.421   0.725
13439WAT      O40558   9.542   6.164   5.029
13439WAT     H140559   9.495   6.198   4.948
13439WAT     H240560   9.532   6.229   5.104
13440WAT      O40561   0.641   9.778   5.443
13440WAT     H140562   0.551   9.803   5.479
13440WAT     H240563   0.666   9.841   5.370
13441WAT      O40564   6.729   9.733   6.402
13441WAT     H140565   6.718   9.751   6.500
13441WAT     H240566   6.796   9.660   6.389
13442WAT      O40567   3.138   0.214   1.184
13442WAT     H140568   3.086   0.138   1.224
13442WAT     H240569   3.236   0.193   1.189
13443WAT      O40570   6.471   1.801   2.483
13443WAT     H140571   6.547   1.792   2.419
13443WAT     H240572   6.419   1.884   2.462
13444WAT      O40573   0.020   5.111   0.163
13444WAT     H140574  -0.079   5.122   0.179
13444WAT     H240575   0.037   5.099   0.066
13445WAT      O40576   8.191   3.697   7.022
13445WAT     H140577   8.189   3.647   6.936
13445WAT     H240578   8.271   3.758   7.023
13446WAT      O40579   6.492   4.896   6.230
13446WAT     H140580   6.440   4.911   6.314
13446WAT     H240581   6.509   4.984   6.185
13447WAT      O40582   5.726   8.469   2.779
13447WAT     H140583   5.757   8.509   2.693
13447WAT     H240584   5.790   8.398   2.808
13448WAT      O40585   1.843   7.144   2.559
13448WAT     H140586   1.846   7.152   2.460
13448WAT     H240587   1.896   7.218   2.601
13449WAT      O40588   3.300   8.473   6.328
13449WAT     H140589   3.333   8.383   6.358
13449WAT     H240590   3.258   8.520   6.405
13450WAT      O40591   0.356   2.514   2.048
13450WAT     H140592   0.306   2.438   2.007
13450WAT     H240593   0.296   2.594   2.056
13451WAT      O40594   7.339   2.594   1.362
13451WAT     H140595   7.439   2.592   1.350
13451WAT     H240596   7.295   2.616   1.275
13452WAT      O40597   7.490   4.226   2.455
13452WAT     H140598   7.442   4.159   2.512
13452WAT     H240599   7.425   4.268   2.392
13453WAT      O40600   7.480   4.710   7.185
13453WAT     H140601   7.485   4.774   7.109
13453WAT     H240602   7.518   4.622   7.156
13454WAT      O40603   5.478   1.273   1.933
13454WAT     H140604   5.514   1.290   1.842
13454WAT     H240605   5.514   1.341   1.997
13455WAT      O40606   8.359   0.416   4.940
13455WAT     H140607   8.375   0.363   4.857
13455WAT     H240608   8.361   0.514   4.919
13456WAT      O40609   0.000   6.104   0.400
13456WAT     H140610   0.034   6.015   0.431
13456WAT     H240611   0.076   6.169   0.397
13457WAT      O40612   3.094   3.952   1.611
13457WAT     H140613   3.079   3.964   1.709
13457WAT     H240614   3.182   3.908   1.596
13458WAT      O40615   1.450   0.876   3.783
13458WAT     H140616   1.434   0.830   3.870
13458WAT     H240617   1.371   0.933   3.760
13459WAT      O40618   4.916   2.859   4.210
13459WAT     H140619   4.875   2.801   4.280
13459WAT     H240620   4.861   2.941   4.197
13460WAT      O40621   7.205   5.887   2.191
13460WAT     H140622   7.200   5.968   2.249
13460WAT     H240623   7.277   5.899   2.122
13461WAT      O40624   6.598   0.032   3.472
13461WAT     H140625   6.566   0.125   3.491
13461WAT     H240626   6.561  -0.031   3.541
13462WAT      O40627   2.672   3.859   1.119
13462WAT     H140628   2.646   3.908   1.203
13462WAT     H240629   2.592   3.851   1.060
13463WAT      O40630   5.220   4.815   7.474
13463WAT     H140631   5.126   4.848   7.469
13463WAT     H240632   5.241   4.786   7.568
13464WAT      O40633   5.112   2.163   3.476
13464WAT     H140634   5.196   2.199   3.437
13464WAT     H240635   5.080   2.224   3.549
13465WAT      O40636   3.936   2.025   6.919
13465WAT     H140637   3.842   2.003   6.894
13465WAT     H240638   3.976   2.084   6.849
13466WAT      O40639   2.370   9.730   1.341
13466WAT     H140640   2.356   9.796   1.414
13466WAT     H240641   2.437   9.765   1.276
13467WAT      O40642   7.341   7.757   7.311
13467WAT     H140643   7.261   7.780   7.365
13467WAT     H240644   7.411   7.827   7.324
13468WAT      O40645   5.014   6.348   9.721
13468WAT     H140646   4.923   6.390   9.724
13468WAT     H240647   5.032   6.315   9.628
13469WAT      O40648   4.478   5.649   6.075
13469WAT     H140649   4.480   5.648   6.174
13469WAT     H240650   4.421   5.725   6.043
13470WAT      O40651   6.714   7.860   9.677
13470WAT     H140652   6.814   7.871   9.678
13470WAT     H240653   6.674   7.925   9.613
13471WAT      O40654   3.591   9.422   6.369
13471WAT     H140655   3.631   9.379   6.288
13471WAT     H240656   3.664   9.458   6.427
13472WAT      O40657   7.945   1.712   5.685
13472WAT     H140658   8.021   1.707   5.620
13472WAT     H240659   7.859   1.702   5.635
13473WAT      O40660   7.895   4.389   9.068
13473WAT     H140661   7.994   4.401   9.082
13473WAT     H240662   7.879   4.354   8.976
13474WAT      O40663   4.280   0.773   8.594
13474WAT     H140664   4.259   0.728   8.681
13474WAT     H240665   4.206   0.755   8.529
13475WAT      O40666   1.050   4.667   0.382
13475WAT     H140667   0.960   4.689   0.343
13475WAT     H240668   1.057   4.569   0.398
13476WAT      O40669   2.375   2.490   2.374
13476WAT     H140670   2.374   2.400   2.417
13476WAT     H240671   2.399   2.481   2.278
13477WAT      O40672   8.799   7.720   8.025
13477WAT     H140673   8.703   7.694   8.040
13477WAT     H240674   8.858   7.643   8.051
13478WAT      O40675   4.352   6.600   0.392
13478WAT     H140676   4.404   6.672   0.438
13478WAT     H240677   4.405   6.563   0.316
13479WAT      O40678   3.461   1.019   4.002
13479WAT     H140679   3.456   1.107   4.049
13479WAT     H240680   3.544   1.016   3.946
13480WAT      O40681   8.570   8.772   8.763
13480WAT     H140682   8.476   8.786   8.732
13480WAT     H240683   8.574   8.691   8.822
13481WAT      O40684   6.701   8.451   8.615
13481WAT     H140685   6.645   8.519   8.663
13481WAT     H240686   6.795   8.486   8.606
13482WAT      O40687   2.177   1.869   4.153
13482WAT     H140688   2.209   1.953   4.197
13482WAT     H240689   2.243   1.795   4.171
13483WAT      O40690   8.509   6.014   8.155
13483WAT     H140691   8.565   6.050   8.080
13483WAT     H240692   8.451   6.086   8.191
13484WAT      O40693   9.341   2.274   4.228
13484WAT     H140694   9.369   2.179   4.241
13484WAT     H240695   9.269   2.278   4.159
13485WAT      O40696   1.886   7.055   0.006
13485WAT     H140697   1.964   7.013  -0.039
13485WAT     H240698   1.907   7.070   0.103
13486WAT      O40699   9.183   2.102   3.230
13486WAT     H140700   9.147   2.020   3.274
13486WAT     H240701   9.273   2.123   3.267
13487WAT      O40702   5.132   1.094   6.070
13487WAT     H140703   5.056   1.112   6.134
13487WAT     H240704   5.109   1.015   6.013
13488WAT      O40705   1.896   6.525   3.545
13488WAT     H140706   1.967   6.466   3.584
13488WAT     H240707   1.896   6.514   3.445
13489WAT      O40708   7.457   9.594   7.700
13489WAT     H140709   7.429   9.522   7.637
13489WAT     H240710   7.542   9.568   7.745
13490WAT      O40711   9.866   0.753   2.597
13490WAT     H140712   9.864   0.661   2.558
13490WAT     H240713   9.922   0.753   2.679
13491WAT      O40714   8.791   6.752   1.992
13491WAT     H140715   8.838   6.827   2.038
13491WAT     H240716   8.701   6.738   2.033
13492WAT      O40717   3.621   2.962   2.085
13492WAT     H140718   3.536   2.954   2.136
13492WAT     H240719   3.619   2.900   2.006
13493WAT      O40720   4.311   3.462   8.406
13493WAT     H140721   4.269   3.553   8.400
13493WAT     H240722   4.408   3.469   8.381
13494WAT      O40723   7.581   2.841   1.121
13494WAT     H140724   7.561   2.872   1.029
13494WAT     H240725   7.500   2.850   1.178
13495WAT      O40726   8.086   7.181   8.927
13495WAT     H140727   8.016   7.145   8.866
13495WAT     H240728   8.172   7.192   8.877
13496WAT      O40729   6.215   3.457   2.906
13496WAT     H140730   6.312   3.483   2.902
13496WAT     H240731   6.178   3.479   2.996
13497WAT      O40732   1.293   3.334   2.076
13497WAT     H140733   1.228   3.281   2.130
13497WAT     H240734   1.385   3.298   2.090
13498WAT      O40735   7.969   9.109   9.094
13498WAT     H140736   8.017   9.166   9.161
13498WAT     H240737   7.880   9.150   9.073
13499WAT      O40738   9.752   3.119   6.293
13499WAT     H140739   9.811   3.039   6.299
13499WAT     H240740   9.777   3.185   6.364
13500WAT      O40741   1.908   2.946   7.794
13500WAT     H140742   1.979   2.892   7.838
13500WAT     H240743   1.943   3.038   7.776
13501WAT      O40744   1.389   8.258   8.994
13501WAT     H140745   1.438   8.336   9.032
13501WAT     H240746   1.453   8.182   8.980
13502WAT      O40747   2.008   7.491   5.380
13502WAT     H140748   2.000   7.393   5.393
13502WAT     H240749   1.976   7.539   5.462
13503WAT      O40750   1.816   2.393   2.987
13503WAT     H140751   1.792   2.319   2.924
13503WAT     H240752   1.883   2.360   3.053
13504WAT      O40753   2.094   9.823   9.571
13504WAT     H140754   1.996   9.837   9.581
13504WAT     H240755   2.136   9.903   9.529
13505WAT      O40756   7.982   5.132   8.792
13505WAT     H140757   7.973   5.231   8.785
13505WAT     H240758   7.898   5.089   8.759
13506WAT      O40759   7.489   8.155   4.515
13506WAT     H140760   7.404   8.112   4.483
13506WAT     H240761   7.557   8.084   4.533
13507WAT      O40762   0.562   2.939   0.276
13507WAT     H140763   0.638   2.894   0.230
13507WAT     H240764   0.517   3.002   0.212
13508WAT      O40765   2.338   4.340   7.234
13508WAT     H140766   2.399   4.354   7.157
13508WAT     H240767   2.276   4.264   7.215
13509WAT      O40768   8.644   5.543   3.617
13509WAT     H140769   8.725   5.580   3.573
13509WAT     H240770   8.562   5.572   3.567
13510WAT      O40771   2.020   4.127   2.273
13510WAT     H140772   1.964   4.074   2.210
13510WAT     H240773   1.980   4.125   2.365
13511WAT      O40774   8.227   4.099   6.262
13511WAT     H140775   8.174   4.119   6.179
13511WAT     H240776   8.222   4.001   6.282
13512WAT      O40777   0.296   6.848   7.911
13512WAT     H140778   0.301   6.833   8.010
13512WAT     H240779   0.201   6.864   7.884
13513WAT      O40780   0.486   0.040   6.736
13513WAT     H140781   0.530  -0.001   6.656
13513WAT     H240782   0.539   0.120   6.765
13514WAT      O40783   9.751   1.431   7.761
13514WAT     H140784   9.763   1.421   7.860
13514WAT     H240785   9.789   1.518   7.731
13515WAT      O40786   2.880   9.180   2.601
13515WAT     H140787   2.807   9.210   2.540
13515WAT     H240788   2.862   9.086   2.632
13516WAT      O40789   6.932   4.471   1.862
13516WAT     H140790   6.929   4.428   1.952
13516WAT     H240791   7.027   4.496   1.841
13517WAT      O40792   4.588   9.457   6.641
13517WAT     H140793   4.507   9.414   6.680
13517WAT     H240794   4.627   9.398   6.570
13518WAT      O40795   1.298   4.064   5.741
13518WAT     H140796   1.234   4.129   5.781
13518WAT     H240797   1.350   4.019   5.814
13519WAT      O40798   0.549   1.857   0.597
13519WAT     H140799   0.581   1.806   0.517
13519WAT     H240800   0.526   1.794   0.670
13520WAT      O40801   6.826   4.237   8.309
13520WAT     H140802   6.874   4.308   8.258
13520WAT     H240803   6.879   4.152   8.307
13521WAT      O40804   0.145   9.476   3.394
13521WAT     H140805   0.187   9.508   3.310
13521WAT     H240806   0.140   9.377   3.394
13522WAT      O40807   4.749   0.891   3.325
13522WAT     H140808   4.722   0.900   3.229
13522WAT     H240809   4.790   0.977   3.357
13523WAT      O40810   0.032   9.332   8.396
13523WAT     H140811   0.038   9.252   8.455
13523WAT     H240812   0.036   9.305   8.300
13524WAT      O40813   9.250   2.836   7.443
13524WAT     H140814   9.198   2.854   7.359
13524WAT     H240815   9.250   2.918   7.501
13525WAT      O40816   4.496   1.766   6.045
13525WAT     H140817   4.410   1.759   5.994
13525WAT     H240818   4.547   1.681   6.038
13526WAT      O40819   5.569   3.728   9.218
13526WAT     H140820   5.476   3.696   9.198
13526WAT     H240821   5.630   3.699   9.144
13527WAT      O40822   5.009   2.953   2.802
13527WAT     H140823   5.007   3.036   2.746
13527WAT     H240824   4.949   2.884   2.762
13528WAT      O40825   0.562   6.627   1.771
13528WAT     H140826   0.635   6.657   1.709
13528WAT     H240827   0.545   6.529   1.756
13529WAT      O40828   6.533   9.263   5.543
13529WAT     H140829   6.619   9.215   5.561
13529WAT     H240830   6.489   9.223   5.463
13530WAT      O40831   9.205   4.328   7.691
13530WAT     H140832   9.112   4.311   7.658
13530WAT     H240833   9.270   4.303   7.620
13531WAT      O40834   1.166   0.699   3.731
13531WAT     H140835   1.089   0.699   3.667
13531WAT     H240836   1.252   0.691   3.681
13532WAT      O40837   8.385   0.251   4.325
13532WAT     H140838   8.318   0.226   4.254
13532WAT     H240839   8.419   0.168   4.369
13533WAT      O40840   6.055   9.820   0.286
13533WAT     H140841   6.113   9.738   0.284
13533WAT     H240842   5.969   9.800   0.239
13534WAT      O40843   2.464   4.545   0.919
13534WAT     H140844   2.510   4.463   0.954
13534WAT     H240845   2.371   4.520   0.891
13535WAT      O40846   5.171   3.928   0.653
13535WAT     H140847   5.074   3.904   0.652
13535WAT     H240848   5.204   3.938   0.560
13536WAT      O40849   1.145   5.624   9.808
13536WAT     H140850   1.057   5.628   9.856
13536WAT     H240851   1.130   5.592   9.715
13537WAT      O40852   3.698   1.221   8.872
13537WAT     H140853   3.657   1.132   8.852
13537WAT     H240854   3.731   1.222   8.966
13538WAT      O40855   1.734   4.799   8.174
13538WAT     H140856   1.666   4.758   8.113
13538WAT     H240857   1.754   4.735   8.249
13539WAT      O40858   2.285   9.406   2.535
13539WAT     H140859   2.220   9.449   2.597
13539WAT     H240860   2.243   9.395   2.445
13540WAT      O40861   2.813   8.298   3.720
13540WAT     H140862   2.873   8.376   3.740
13540WAT     H240863   2.770   8.311   3.631
13541WAT      O40864   4.720   9.026   6.238
13541WAT     H140865   4.714   8.991   6.145
13541WAT     H240866   4.707   8.952   6.303
13542WAT      O40867   5.861   9.728   2.872
13542WAT     H140868   5.910   9.813   2.854
13542WAT     H240869   5.912   9.651   2.831
13543WAT      O40870   3.669   0.670   6.689
13543WAT     H140871   3.620   0.645   6.772
13543WAT     H240872   3.750   0.612   6.678
13544WAT      O40873   7.584   3.766   7.624
13544WAT     H140874   7.676   3.738   7.653
13544WAT     H240875   7.554   3.844   7.679
13545WAT      O40876   3.469   3.264   4.645
13545WAT     H140877   3.535   3.291   4.716
13545WAT     H240878   3.497   3.177   4.605
13546WAT      O40879   5.511   1.223   7.981
13546WAT     H140880   5.570   1.265   8.049
13546WAT     H240881   5.451   1.292   7.941
13547WAT      O40882   1.090   8.472   3.562
13547WAT     H140883   1.118   8.564   3.534
13547WAT     H240884   1.155   8.436   3.629
13548WAT      O40885   4.375   1.568   6.563
13548WAT     H140886   4.294   1.544   6.617
13548WAT     H240887   4.354   1.559   6.466
13549WAT      O40888   8.896   6.111   7.507
13549WAT     H140889   8.985   6.145   7.475
13549WAT     H240890   8.833   6.106   7.429
13550WAT      O40891   1.941   2.108   6.222
13550WAT     H140892   1.909   2.124   6.128
13550WAT     H240893   1.946   2.195   6.271
13551WAT      O40894   0.539   1.652   5.775
13551WAT     H140895   0.456   1.669   5.829
13551WAT     H240896   0.513   1.631   5.680
13552WAT      O40897   7.926   4.763   8.570
13552WAT     H140898   7.844   4.781   8.515
13552WAT     H240899   8.008   4.780   8.514
13553WAT      O40900   6.633   3.381   6.420
13553WAT     H140901   6.600   3.415   6.332
13553WAT     H240902   6.622   3.282   6.424
13554WAT      O40903   2.372   8.576   6.800
13554WAT     H140904   2.352   8.478   6.802
13554WAT     H240905   2.462   8.591   6.759
13555WAT      O40906   8.221   3.826   6.273
13555WAT     H140907   8.182   3.793   6.187
13555WAT     H240908   8.221   3.752   6.341
13556WAT      O40909   3.939   4.688   4.707
13556WAT     H140910   3.982   4.761   4.655
13556WAT     H240911   3.860   4.724   4.756
13557WAT      O40912   9.771   8.592   6.083
13557WAT     H140913   9.786   8.690   6.075
13557WAT     H240914   9.800   8.561   6.174
13558WAT      O40915   1.966   5.612   1.064
13558WAT     H140916   1.937   5.588   0.972
13558WAT     H240917   2.007   5.532   1.108
13559WAT      O40918   8.611   6.563   2.572
13559WAT     H140919   8.675   6.487   2.572
13559WAT     H240920   8.540   6.548   2.503
13560WAT      O40921   4.834   4.231   7.978
13560WAT     H140922   4.859   4.254   8.072
13560WAT     H240923   4.764   4.295   7.945
13561WAT      O40924   2.126   8.046   2.873
13561WAT     H140925   2.197   8.117   2.866
13561WAT     H240926   2.159   7.972   2.932
13562WAT      O40927   7.045   5.562   8.111
13562WAT     H140928   7.089   5.475   8.088
13562WAT     H240929   7.063   5.583   8.208
13563WAT      O40930   0.901   3.865   0.307
13563WAT     H140931   0.832   3.896   0.242
13563WAT     H240932   0.886   3.768   0.327
13564WAT      O40933   0.631   9.639   4.113
13564WAT     H140934   0.668   9.669   4.025
13564WAT     H240935   0.566   9.565   4.099
13565WAT      O40936   0.173   1.112   0.270
13565WAT     H140937   0.229   1.134   0.191
13565WAT     H240938   0.088   1.165   0.268
13566WAT      O40939   4.191   6.830   4.139
13566WAT     H140940   4.161   6.925   4.131
13566WAT     H240941   4.149   6.776   4.065
13567WAT      O40942   8.726   5.198   9.828
13567WAT     H140943   8.639   5.243   9.807
13567WAT     H240944   8.710   5.101   9.845
13568WAT      O40945   8.288   7.722   9.515
13568WAT     H140946   8.347   7.641   9.521
13568WAT     H240947   8.338   7.802   9.546
13569WAT      O40948   9.444   2.867   1.682
13569WAT     H140949   9.436   2.967   1.678
13569WAT     H240950   9.491   2.835   1.600
13570WAT      O40951   5.987   8.966   8.852
13570WAT     H140952   5.894   9.000   8.869
13570WAT     H240953   6.054   9.029   8.892
13571WAT      O40954   7.870   4.310   5.949
13571WAT     H140955   7.803   4.352   6.009
13571WAT     H240956   7.830   4.296   5.858
13572WAT      O40957   7.761   7.686   5.301
13572WAT     H140958   7.839   7.745   5.280
13572WAT     H240959   7.677   7.728   5.268
13573WAT      O40960   1.833   9.680   3.952
13573WAT     H140961   1.913   9.626   3.927
13573WAT     H240962   1.790   9.716   3.870
13574WAT      O40963   3.077   9.350   9.216
13574WAT     H140964   3.118   9.346   9.307
13574WAT     H240965   3.096   9.439   9.175
13575WAT      O40966   2.013   5.502   8.255
13575WAT     H140967   2.037   5.539   8.165
13575WAT     H240968   2.092   5.453   8.293
13576WAT      O40969   9.043   3.078   3.575
13576WAT     H140970   9.131   3.089   3.528
13576WAT     H240971   9.006   3.169   3.596
13577WAT      O40972   8.269   5.587   4.582
13577WAT     H140973   8.316   5.521   4.641
13577WAT     H240974   8.171   5.568   4.583
13578WAT      O40975   6.754   3.916   1.757
13578WAT     H140976   6.688   3.909   1.682
13578WAT     H240977   6.778   4.012   1.771
13579WAT      O40978   4.249   0.371   1.093
13579WAT     H140979   4.232   0.456   1.142
13579WAT     H240980   4.281   0.391   1.001
13580WAT      O40981   4.796   8.194   3.780
13580WAT     H140982   4.853   8.141   3.717
13580WAT     H240983   4.735   8.133   3.829
13581WAT      O40984   0.278   6.045   8.758
13581WAT     H140985   0.199   5.993   8.727
13581WAT     H240986   0.247   6.126   8.808
13582WAT      O40987   3.873   0.893   2.053
13582WAT     H140988   3.797   0.867   1.993
13582WAT     H240989   3.958   0.893   2.001
13583WAT      O40990   8.179   6.473   2.166
13583WAT     H140991   8.219   6.381   2.171
13583WAT     H240992   8.082   6.469   2.190
13584WAT      O40993   1.229   1.561   9.058
13584WAT     H140994   1.299   1.601   9.117
13584WAT     H240995   1.248   1.584   8.963
13585WAT      O40996   5.667   6.964   0.792
13585WAT     H140997   5.708   6.913   0.716
13585WAT     H240998   5.663   7.061   0.768
13586WAT      O40999   9.834   6.598   0.933
13586WAT     H141000   9.796   6.605   1.025
13586WAT     H241001   9.828   6.687   0.888
13587WAT      O41002   5.886   2.045   9.370
13587WAT     H141003   5.867   1.955   9.332
13587WAT     H241004   5.983   2.066   9.357
13588WAT      O41005   7.341   2.209   7.169
13588WAT     H141006   7.276   2.172   7.235
13588WAT     H241007   7.328   2.308   7.161
13589WAT      O41008   1.279   5.748   4.912
13589WAT     H141009   1.369   5.731   4.870
13589WAT     H241010   1.269   5.845   4.931
13590WAT      O41011   6.109   1.253   8.750
13590WAT     H141012   6.091   1.157   8.733
13590WAT     H241013   6.203   1.275   8.724
13591WAT      O41014   9.489   6.042   8.075
13591WAT     H141015   9.508   6.011   8.168
13591WAT     H241016   9.547   5.992   8.011
13592WAT      O41017   0.531   9.173   3.453
13592WAT     H141018   0.616   9.142   3.495
13592WAT     H241019   0.471   9.211   3.524
13593WAT      O41020   6.300   0.082   5.668
13593WAT     H141021   6.253   0.021   5.605
13593WAT     H241022   6.390   0.044   5.691
13594WAT      O41023   7.132   9.149   2.188
13594WAT     H141024   7.205   9.154   2.256
13594WAT     H241025   7.145   9.069   2.130
13595WAT      O41026   0.750   7.911   6.887
13595WAT     H141027   0.683   7.932   6.815
13595WAT     H241028   0.841   7.902   6.847
13596WAT      O41029   3.157   3.587   0.820
13596WAT     H141030   3.093   3.510   0.819
13596WAT     H241031   3.115   3.664   0.868
13597WAT      O41032   3.588   8.173   8.214
13597WAT     H141033   3.666   8.134   8.262
13597WAT     H241034   3.515   8.192   8.280
13598WAT      O41035   2.430   7.088   7.331
13598WAT     H141036   2.330   7.086   7.319
13598WAT     H241037   2.474   7.046   7.252
13599WAT      O41038   7.126   6.387   8.387
13599WAT     H141039   7.183   6.464   8.415
13599WAT     H241040   7.146   6.308   8.445
13600WAT      O41041   6.421   5.734   3.258
13600WAT     H141042   6.394   5.676   3.181
13600WAT     H241043   6.399   5.688   3.344
13601WAT      O41044   3.738   9.319   2.581
13601WAT     H141045   3.638   9.329   2.574
13601WAT     H241046   3.768   9.348   2.672
13602WAT      O41047   2.217   2.136   7.175
13602WAT     H141048   2.265   2.049   7.167
13602WAT     H241049   2.276   2.210   7.144
13603WAT      O41050   6.394   9.502   6.312
13603WAT     H141051   6.321   9.539   6.369
13603WAT     H241052   6.403   9.404   6.327
13604WAT      O41053   8.379   0.309   4.702
13604WAT     H141054   8.358   0.357   4.617
13604WAT     H241055   8.370   0.210   4.687
13605WAT      O41056   2.719   1.437   6.840
13605WAT     H141057   2.721   1.437   6.940
13605WAT     H241058   2.751   1.525   6.806
13606WAT      O41059   2.831   5.283   3.781
13606WAT     H141060   2.923   5.310   3.809
13606WAT     H241061   2.805   5.198   3.829
13607WAT      O41062   9.810   4.832   0.536
13607WAT     H141063   9.795   4.931   0.545
13607WAT     H241064   9.749   4.795   0.467
13608WAT      O41065   4.705   8.016   6.054
13608WAT     H141066   4.636   8.075   6.095
13608WAT     H241067   4.776   8.071   6.010
13609WAT      O41068   1.861   7.091   8.760
13609WAT     H141069   1.792   7.162   8.773
13609WAT     H241070   1.839   7.011   8.816
13610WAT      O41071   6.777   4.727   6.954
13610WAT     H141072   6.736   4.800   6.900
13610WAT     H241073   6.866   4.702   6.915
13611WAT      O41074   6.636   3.905   0.055
13611WAT     H141075   6.616   3.903  -0.043
13611WAT     H241076   6.650   3.811   0.088
13612WAT      O41077   9.214   4.743   3.754
13612WAT     H141078   9.203   4.770   3.659
13612WAT     H241079   9.213   4.824   3.812
13613WAT      O41080   0.464   9.447   7.453
13613WAT     H141081   0.481   9.531   7.503
13613WAT     H241082   0.528   9.440   7.376
13614WAT      O41083   3.284   4.991   1.348
13614WAT     H141084   3.228   4.968   1.427
13614WAT     H241085   3.364   5.043   1.378
13615WAT      O41086   9.252   9.347   1.382
13615WAT     H141087   9.165   9.357   1.430
13615WAT     H241088   9.244   9.386   1.290
13616WAT      O41089   5.483   1.965   8.657
13616WAT     H141090   5.568   1.941   8.609
13616WAT     H241091   5.422   2.014   8.595
13617WAT      O41092   5.011   7.638   1.114
13617WAT     H141093   5.023   7.547   1.152
13617WAT     H241094   5.094   7.692   1.130
13618WAT      O41095   0.517   9.731   6.143
13618WAT     H141096   0.549   9.644   6.180
13618WAT     H241097   0.565   9.806   6.187
13619WAT      O41098   5.679   2.954   6.316
13619WAT     H141099   5.751   3.015   6.282
13619WAT     H241100   5.695   2.935   6.412
13620WAT      O41101   7.148   8.750   2.461
13620WAT     H141102   7.055   8.785   2.452
13620WAT     H241103   7.150   8.675   2.527
13621WAT      O41104   4.227   0.900   3.290
13621WAT     H141105   4.225   0.847   3.205
13621WAT     H241106   4.322   0.924   3.311
13622WAT      O41107   0.955   4.087   0.845
13622WAT     H141108   1.051   4.085   0.819
13622WAT     H241109   0.899   4.055   0.768
13623WAT      O41110   1.056   3.131   1.481
13623WAT     H141111   1.077   3.118   1.578
13623WAT     H241112   0.960   3.107   1.465
13624WAT      O41113   9.180   4.659   4.125
13624WAT     H141114   9.227   4.622   4.044
13624WAT     H241115   9.105   4.718   4.095
13625WAT      O41116   7.883   3.938   7.629
13625WAT     H141117   7.850   3.943   7.724
13625WAT     H241118   7.910   3.844   7.609
13626WAT      O41119   8.527   5.794   0.348
13626WAT     H141120   8.537   5.695   0.335
13626WAT     H241121   8.612   5.831   0.387
13627WAT      O41122   4.637   5.927   7.299
13627WAT     H141123   4.696   5.974   7.233
13627WAT     H241124   4.692   5.865   7.355
13628WAT      O41125   4.986   2.427   2.947
13628WAT     H141126   4.984   2.367   3.026
13628WAT     H241127   4.953   2.518   2.973
13629WAT      O41128   7.959   7.555   7.496
13629WAT     H141129   7.949   7.553   7.397
13629WAT     H241130   7.991   7.645   7.525
13630WAT      O41131   1.380   5.295   1.126
13630WAT     H141132   1.393   5.216   1.187
13630WAT     H241133   1.284   5.301   1.100
13631WAT      O41134   2.116   0.797   4.482
13631WAT     H141135   2.148   0.704   4.462
13631WAT     H241136   2.158   0.829   4.567
13632WAT      O41137   4.988   5.044   7.754
13632WAT     H141138   5.079   5.031   7.792
13632WAT     H241139   4.983   5.002   7.663
13633WAT      O41140   2.615   1.931   2.714
13633WAT     H141141   2.666   2.007   2.674
13633WAT     H241142   2.673   1.849   2.717
13634WAT      O41143   8.213   6.834   2.696
13634WAT     H141144   8.160   6.758   2.733
13634WAT     H241145   8.169   6.920   2.720
13635WAT      O41146   8.470   9.783   2.326
13635WAT     H141147   8.448   9.759   2.232
13635WAT     H241148   8.552   9.735   2.355
13636WAT      O41149   6.644   3.248   5.677
13636WAT     H141150   6.565   3.301   5.648
13636WAT     H241151   6.613   3.168   5.729
13637WAT      O41152   2.889   5.183   2.498
13637WAT     H141153   2.919   5.119   2.427
13637WAT     H241154   2.969   5.231   2.535
13638WAT      O41155   5.523   2.006   7.727
13638WAT     H141156   5.578   2.055   7.795
13638WAT     H241157   5.428   2.001   7.759
13639WAT      O41158   0.886   2.184   3.474
13639WAT     H141159   0.830   2.102   3.463
13639WAT     H241160   0.867   2.226   3.563
13640WAT      O41161   5.711   6.775   3.383
13640WAT     H141162   5.678   6.780   3.289
13640WAT     H241163   5.794   6.830   3.392
13641WAT      O41164   8.636   1.717   2.269
13641WAT     H141165   8.566   1.730   2.199
13641WAT     H241166   8.606   1.759   2.354
13642WAT      O41167   0.355   8.846   1.065
13642WAT     H141168   0.346   8.911   1.141
13642WAT     H241169   0.347   8.894   0.978
13643WAT      O41170   2.981   6.640   3.045
13643WAT     H141171   3.064   6.687   3.074
13643WAT     H241172   2.970   6.555   3.096
13644WAT      O41173   5.719   5.022   0.468
13644WAT     H141174   5.800   4.969   0.445
13644WAT     H241175   5.679   4.988   0.552
13645WAT      O41176   8.343   5.953   2.341
13645WAT     H141177   8.375   5.905   2.259
13645WAT     H241178   8.414   5.951   2.411
13646WAT      O41179   5.198   9.400   6.615
13646WAT     H141180   5.126   9.405   6.685
13646WAT     H241181   5.264   9.330   6.641
13647WAT      O41182   3.990   2.815   8.528
13647WAT     H141183   3.988   2.901   8.478
13647WAT     H241184   3.962   2.830   8.623
13648WAT      O41185   6.322   7.094   1.643
13648WAT     H141186   6.413   7.069   1.676
13648WAT     H241187   6.312   7.066   1.548
13649WAT      O41188   8.902   4.606   8.899
13649WAT     H141189   8.803   4.606   8.888
13649WAT     H241190   8.931   4.523   8.947
13650WAT      O41191   1.999   4.151   7.616
13650WAT     H141192   2.052   4.145   7.700
13650WAT     H241193   2.052   4.200   7.547
13651WAT      O41194   8.661   1.307   3.226
13651WAT     H141195   8.656   1.374   3.301
13651WAT     H241196   8.654   1.215   3.264
13652WAT      O41197   9.573   0.791   0.671
13652WAT     H141198   9.583   0.736   0.754
13652WAT     H241199   9.509   0.866   0.688
13653WAT      O41200   0.756   9.398   0.234
13653WAT     H141201   0.721   9.305   0.228
13653WAT     H241202   0.683   9.458   0.268
13654WAT      O41203   9.713   3.782   2.648
13654WAT     H141204   9.659   3.867   2.652
13654WAT     H241205   9.694   3.727   2.729
13655WAT      O41206   2.452   5.900   0.558
13655WAT     H141207   2.549   5.896   0.584
13655WAT     H241208   2.435   5.984   0.507
13656WAT      O41209   0.343   6.606   1.943
13656WAT     H141210   0.428   6.617   1.892
13656WAT     H241211   0.267   6.642   1.888
13657WAT      O41212   7.959   5.101   4.556
13657WAT     H141213   7.886   5.102   4.488
13657WAT     H241214   7.959   5.014   4.604
13658WAT      O41215   8.782   8.713   1.352
13658WAT     H141216   8.759   8.675   1.442
13658WAT     H241217   8.721   8.674   1.283
13659WAT      O41218   3.829   6.554   8.999
13659WAT     H141219   3.771   6.486   9.042
13659WAT     H241220   3.805   6.646   9.032
13660WAT      O41221   4.857   7.453   7.693
13660WAT     H141222   4.843   7.419   7.600
13660WAT     H241223   4.807   7.539   7.705
13661WAT      O41224   0.504   8.163   4.578
13661WAT     H141225   0.460   8.213   4.652
13661WAT     H241226   0.453   8.175   4.493
13662WAT      O41227   8.751   9.496   1.101
13662WAT     H141228   8.786   9.583   1.138
13662WAT     H241229   8.784   9.421   1.157
13663WAT      O41230   4.582   1.435   2.271
13663WAT     H141231   4.547   1.473   2.356
13663WAT     H241232   4.675   1.469   2.255
13664WAT      O41233   1.820   6.228   2.618
13664WAT     H141234   1.768   6.199   2.698
13664WAT     H241235   1.756   6.258   2.547
13665WAT      O41236   0.086   5.335   4.007
13665WAT     H141237   0.082   5.245   4.051
13665WAT     H241238   0.180   5.352   3.977
13666WAT      O41239   6.301   7.077   2.992
13666WAT     H141240   6.282   7.151   3.055
13666WAT     H241241   6.387   7.033   3.018
13667WAT      O41242   6.093   3.925   6.501
13667WAT     H141243   6.174   3.883   6.541
13667WAT     H241244   6.064   3.873   6.422
13668WAT      O41245   0.894   3.200   1.995
13668WAT     H141246   0.905   3.118   1.938
13668WAT     H241247   0.797   3.222   2.002
13669WAT      O41248   7.258   3.396   6.529
13669WAT     H141249   7.263   3.475   6.590
13669WAT     H241250   7.258   3.312   6.584
13670WAT      O41251   3.915   6.928   5.490
13670WAT     H141252   3.958   7.006   5.535
13670WAT     H241253   3.911   6.851   5.554
13671WAT      O41254   4.490   3.110   8.095
13671WAT     H141255   4.460   3.193   8.048
13671WAT     H241256   4.413   3.047   8.104
13672WAT      O41257   2.971   9.170   7.580
13672WAT     H141258   3.020   9.092   7.542
13672WAT     H241259   2.880   9.176   7.538
13673WAT      O41260   9.121   8.781   4.623
13673WAT     H141261   9.025   8.763   4.643
13673WAT     H241262   9.139   8.879   4.635
13674WAT      O41263   8.779   2.032   7.609
13674WAT     H141264   8.838   1.970   7.662
13674WAT     H241265   8.731   1.980   7.538
13675WAT      O41266   7.057   6.275   8.062
13675WAT     H141267   7.025   6.291   7.969
13675WAT     H241268   6.998   6.324   8.126
13676WAT      O41269   1.669   7.807   6.400
13676WAT     H141270   1.625   7.888   6.361
13676WAT     H241271   1.763   7.829   6.424
13677WAT      O41272   6.937   6.888   0.661
13677WAT     H141273   6.879   6.831   0.719
13677WAT     H241274   6.909   6.984   0.669
13678WAT      O41275   9.731   1.536   8.723
13678WAT     H141276   9.791   1.591   8.665
13678WAT     H241277   9.760   1.546   8.819
13679WAT      O41278   8.016   2.347   7.487
13679WAT     H141279   8.058   2.273   7.540
13679WAT     H241280   8.086   2.412   7.459
13680WAT      O41281   2.248   3.961   0.615
13680WAT     H141282   2.338   3.920   0.627
13680WAT     H241283   2.256   4.043   0.559
13681WAT      O41284   8.454   3.070   7.592
13681WAT     H141285   8.411   3.156   7.563
13681WAT     H241286   8.398   2.993   7.561
13682WAT      O41287   2.091   1.421   8.155
13682WAT     H141288   2.084   1.322   8.161
13682WAT     H241289   2.105   1.459   8.247
13683WAT      O41290   9.263   8.195   5.529
13683WAT     H141291   9.167   8.206   5.505
13683WAT     H241292   9.274   8.193   5.628
13684WAT      O41293   4.290   3.156   1.034
13684WAT     H141294   4.279   3.197   1.124
13684WAT     H241295   4.349   3.075   1.041
13685WAT      O41296   1.640   6.039   5.408
13685WAT     H141297   1.674   6.004   5.495
13685WAT     H241298   1.579   5.971   5.366
13686WAT      O41299   9.029   1.795   3.622
13686WAT     H141300   9.028   1.848   3.707
13686WAT     H241301   8.940   1.800   3.578
13687WAT      O41302   2.219   3.294   9.055
13687WAT     H141303   2.283   3.221   9.029
13687WAT     H241304   2.127   3.269   9.027
13688WAT      O41305   7.128   1.923   5.226
13688WAT     H141306   7.103   1.972   5.142
13688WAT     H241307   7.061   1.851   5.244
13689WAT      O41308   9.614   5.381   3.197
13689WAT     H141309   9.521   5.343   3.195
13689WAT     H241310   9.625   5.439   3.277
13690WAT      O41311   6.592   4.909   8.580
13690WAT     H141312   6.601   4.993   8.526
13690WAT     H241313   6.623   4.831   8.525
13691WAT      O41314   5.409   3.786   5.178
13691WAT     H141315   5.418   3.884   5.199
13691WAT     H241316   5.356   3.775   5.094
13692WAT      O41317   6.312   3.934   5.019
13692WAT     H141318   6.273   3.847   5.049
13692WAT     H241319   6.401   3.919   4.978
13693WAT      O41320   8.399   0.303   2.203
13693WAT     H141321   8.468   0.295   2.275
13693WAT     H241322   8.434   0.363   2.131
13694WAT      O41323   8.343   0.911   1.314
13694WAT     H141324   8.298   0.862   1.239
13694WAT     H241325   8.393   0.989   1.277
13695WAT      O41326   4.797   0.009   0.226
13695WAT     H141327   4.847  -0.064   0.181
13695WAT     H241328   4.857   0.057   0.289
13696WAT      O41329   8.589   0.223   2.647
13696WAT     H141330   8.602   0.227   2.548
13696WAT     H241331   8.550   0.134   2.672
13697WAT      O41332   5.993   7.661   4.956
13697WAT     H141333   6.004   7.562   4.946
13697WAT     H241334   5.912   7.691   4.907
13698WAT      O41335   4.940   8.209   6.555
13698WAT     H141336   4.989   8.154   6.488
13698WAT     H241337   4.863   8.255   6.510
13699WAT      O41338   4.342   0.759   4.075
13699WAT     H141339   4.289   0.696   4.018
13699WAT     H241340   4.367   0.712   4.160
13700WAT      O41341   0.740   8.962   2.023
13700WAT     H141342   0.813   8.915   1.974
13700WAT     H241343   0.692   8.897   2.082
13701WAT      O41344   1.569   8.919   0.933
13701WAT     H141345   1.549   8.867   1.016
13701WAT     H241346   1.630   8.995   0.955
13702WAT      O41347   8.496   7.298   1.264
13702WAT     H141348   8.591   7.276   1.243
13702WAT     H241349   8.454   7.223   1.316
13703WAT      O41350   5.131   2.956   5.393
13703WAT     H141351   5.056   2.903   5.356
13703WAT     H241352   5.126   2.957   5.493
13704WAT      O41353   4.144   7.189   1.004
13704WAT     H141354   4.071   7.132   0.965
13704WAT     H241355   4.169   7.152   1.094
13705WAT      O41356   0.499   4.440   5.533
13705WAT     H141357   0.443   4.456   5.614
13705WAT     H241358   0.476   4.508   5.463
13706WAT      O41359   1.286   7.197   5.507
13706WAT     H141360   1.227   7.219   5.584
13706WAT     H241361   1.378   7.231   5.525
13707WAT      O41362   6.339   6.705   9.680
13707WAT     H141363   6.347   6.730   9.583
13707WAT     H241364   6.352   6.606   9.689
13708WAT      O41365   8.921   3.364   8.625
13708WAT     H141366   8.880   3.346   8.536
13708WAT     H241367   9.012   3.324   8.629
13709WAT      O41368   6.019   3.300   8.021
13709WAT     H141369   6.036   3.342   7.932
13709WAT     H241370   5.990   3.205   8.009
13710WAT      O41371   3.149   3.292   3.084
13710WAT     H141372   3.222   3.359   3.071
13710WAT     H241373   3.151   3.227   3.008
13711WAT      O41374   6.906   8.937   3.374
13711WAT     H141375   6.882   8.840   3.382
13711WAT     H241376   6.910   8.962   3.277
13712WAT      O41377   3.914   5.641   5.802
13712WAT     H141378   3.871   5.552   5.820
13712WAT     H241379   3.943   5.645   5.706
13713WAT      O41380   7.290   9.354   8.601
13713WAT     H141381   7.310   9.317   8.510
13713WAT     H241382   7.291   9.280   8.668
13714WAT      O41383   9.251   7.090   8.818
13714WAT     H141384   9.305   7.020   8.865
13714WAT     H241385   9.307   7.173   8.807
13715WAT      O41386   0.436   9.004   4.143
13715WAT     H141387   0.356   9.061   4.125
13715WAT     H241388   0.428   8.963   4.233
13716WAT      O41389   7.560   5.779   7.685
13716WAT     H141390   7.620   5.851   7.719
13716WAT     H241391   7.614   5.711   7.636
13717WAT      O41392   0.892   8.716   9.045
13717WAT     H141393   0.874   8.763   9.132
13717WAT     H241394   0.969   8.654   9.056
13718WAT      O41395   3.900   2.145   8.420
13718WAT     H141396   3.971   2.193   8.471
13718WAT     H241397   3.872   2.201   8.341
13719WAT      O41398   6.783   8.913   5.501
13719WAT     H141399   6.713   8.879   5.563
13719WAT     H241400   6.776   8.866   5.413
13720WAT      O41401   7.882   2.996   4.089
13720WAT     H141402   7.840   2.929   4.028
13720WAT     H241403   7.973   3.020   4.054
13721WAT      O41404   1.614   4.073   1.305
13721WAT     H141405   1.602   4.049   1.209
13721WAT     H241406   1.531   4.050   1.356
13722WAT      O41407   6.851   3.091   6.229
13722WAT     H141408   6.815   3.125   6.142
13722WAT     H241409   6.782   3.104   6.301
13723WAT      O41410   7.287   5.496   7.547
13723WAT     H141411   7.189   5.504   7.561
13723WAT     H241412   7.317   5.562   7.478
13724WAT      O41413   4.051   8.133   9.010
13724WAT     H141414   4.073   8.055   9.069
13724WAT     H241415   3.953   8.138   8.995
13725WAT      O41416   9.657   3.342   8.052
13725WAT     H141417   9.692   3.355   7.959
13725WAT     H241418   9.712   3.394   8.117
13726WAT      O41419   6.235   7.225   5.264
13726WAT     H141420   6.294   7.239   5.184
13726WAT     H241421   6.149   7.274   5.251
13727WAT      O41422   2.832   5.899   1.214
13727WAT     H141423   2.795   5.945   1.296
13727WAT     H241424   2.810   5.802   1.218
13728WAT      O41425   0.971   2.024   6.899
13728WAT     H141426   0.978   1.929   6.928
13728WAT     H241427   0.992   2.031   6.802
13729WAT      O41428   0.995   5.319   5.991
13729WAT     H141429   1.052   5.344   6.069
13729WAT     H241430   1.034   5.239   5.945
13730WAT      O41431   9.036   4.469   6.835
13730WAT     H141432   9.058   4.401   6.905
13730WAT     H241433   8.980   4.541   6.874
13731WAT      O41434   4.585   5.028   8.257
13731WAT     H141435   4.541   4.968   8.323
13731WAT     H241436   4.533   5.113   8.249
13732WAT      O41437   4.497   3.674   8.285
13732WAT     H141438   4.563   3.601   8.303
13732WAT     H241439   4.546   3.757   8.258
13733WAT      O41440   5.099   3.258   7.829
13733WAT     H141441   5.012   3.244   7.781
13733WAT     H241442   5.172   3.272   7.763
13734WAT      O41443   4.871   7.214   8.747
13734WAT     H141444   4.938   7.177   8.681
13734WAT     H241445   4.779   7.194   8.715
13735WAT      O41446   1.252   9.636   1.102
13735WAT     H141447   1.326   9.611   1.039
13735WAT     H241448   1.267   9.592   1.190
13736WAT      O41449   8.835   8.569   3.724
13736WAT     H141450   8.873   8.624   3.799
13736WAT     H241451   8.794   8.486   3.761
13737WAT      O41452   7.318   8.442   4.773
13737WAT     H141453   7.253   8.377   4.811
13737WAT     H241454   7.270   8.528   4.752
13738WAT      O41455   9.059   3.455   6.602
13738WAT     H141456   8.970   3.482   6.565
13738WAT     H241457   9.046   3.407   6.689
13739WAT      O41458   8.168   6.427   5.160
13739WAT     H141459   8.152   6.401   5.255
13739WAT     H241460   8.254   6.477   5.153
13740WAT      O41461   4.647   7.354   9.050
13740WAT     H141462   4.552   7.323   9.041
13740WAT     H241463   4.688   7.313   9.131
13741WAT      O41464   8.844   1.303   5.093
13741WAT     H141465   8.803   1.216   5.063
13741WAT     H241466   8.940   1.288   5.115
13742WAT      O41467   3.720   7.551   6.731
13742WAT     H141468   3.790   7.616   6.760
13742WAT     H241469   3.761   7.478   6.677
13743WAT      O41470   7.709   9.120   5.455
13743WAT     H141471   7.642   9.057   5.416
13743WAT     H241472   7.801   9.095   5.426
13744WAT      O41473   6.653   4.974   9.257
13744WAT     H141474   6.702   4.904   9.310
13744WAT     H241475   6.646   5.058   9.312
13745WAT      O41476   4.866   4.761   1.010
13745WAT     H141477   4.773   4.753   0.972
13745WAT     H241478   4.916   4.830   0.959
13746WAT      O41479   4.119   1.646   9.854
13746WAT     H141480   4.094   1.661   9.758
13746WAT     H241481   4.124   1.733   9.902
13747WAT      O41482   1.791   8.075   0.185
13747WAT     H141483   1.703   8.121   0.176
13747WAT     H241484   1.793   7.993   0.128
13748WAT      O41485   1.371   5.823   6.096
13748WAT     H141486   1.335   5.843   6.005
13748WAT     H241487   1.426   5.900   6.128
13749WAT      O41488   4.059   3.024   9.341
13749WAT     H141489   4.100   2.935   9.358
13749WAT     H241490   4.097   3.091   9.405
13750WAT      O41491   5.264   0.696   0.121
13750WAT     H141492   5.173   0.655   0.111
13750WAT     H241493   5.285   0.708   0.219
13751WAT      O41494   0.619   7.833   0.536
13751WAT     H141495   0.522   7.809   0.540
13751WAT     H241496   0.628   7.930   0.512
13752WAT      O41497   3.003   3.214   3.623
13752WAT     H141498   2.917   3.181   3.583
13752WAT     H241499   3.055   3.265   3.554
13753WAT      O41500   1.879   3.496   4.519
13753WAT     H141501   1.798   3.439   4.535
13753WAT     H241502   1.860   3.561   4.446
13754WAT      O41503   2.033   3.786   7.255
13754WAT     H141504   2.006   3.866   7.308
13754WAT     H241505   2.085   3.815   7.175
13755WAT      O41506   3.624   9.791   8.922
13755WAT     H141507   3.637   9.732   9.002
13755WAT     H241508   3.528   9.789   8.894
13756WAT      O41509   1.203   1.747   6.033
13756WAT     H141510   1.187   1.654   6.067
13756WAT     H241511   1.260   1.743   5.951
13757WAT      O41512   5.886   8.990   7.770
13757WAT     H141513   5.953   8.921   7.742
13757WAT     H241514   5.920   9.038   7.851
13758WAT      O41515   8.175   6.038   4.362
13758WAT     H141516   8.076   6.024   4.367
13758WAT     H241517   8.221   5.956   4.397
13759WAT      O41518   7.867   7.610   5.697
13759WAT     H141519   7.917   7.697   5.694
13759WAT     H241520   7.773   7.625   5.666
13760WAT      O41521   9.621   5.088   3.366
13760WAT     H141522   9.713   5.115   3.337
13760WAT     H241523   9.605   5.120   3.459
13761WAT      O41524   7.745   4.321   5.723
13761WAT     H141525   7.661   4.294   5.675
13761WAT     H241526   7.779   4.407   5.685
13762WAT      O41527   8.659   1.440   1.289
13762WAT     H141528   8.612   1.434   1.201
13762WAT     H241529   8.756   1.424   1.277
13763WAT      O41530   9.532   4.298   2.538
13763WAT     H141531   9.620   4.250   2.526
13763WAT     H241532   9.538   4.359   2.617
13764WAT      O41533   2.574   0.805   7.581
13764WAT     H141534   2.513   0.725   7.578
13764WAT     H241535   2.568   0.853   7.493
13765WAT      O41536   1.771   1.622   5.426
13765WAT     H141537   1.838   1.548   5.415
13765WAT     H241538   1.686   1.597   5.379
13766WAT      O41539   5.532   7.732   6.322
13766WAT     H141540   5.627   7.750   6.298
13766WAT     H241541   5.477   7.813   6.301
13767WAT      O41542   1.671   3.073   5.543
13767WAT     H141543   1.670   3.124   5.457
13767WAT     H241544   1.652   2.976   5.525
13768WAT      O41545   2.470   2.233   0.179
13768WAT     H141546   2.480   2.135   0.196
13768WAT     H241547   2.405   2.272   0.244
13769WAT      O41548   1.985   6.606   9.496
13769WAT     H141549   2.052   6.680   9.503
13769WAT     H241550   2.004   6.552   9.414
13770WAT      O41551   8.827   0.103   1.940
13770WAT     H141552   8.862   0.009   1.944
13770WAT     H241553   8.885   0.162   1.996
13771WAT      O41554   4.056   0.854   2.263
13771WAT     H141555   3.989   0.845   2.190
13771WAT     H241556   4.048   0.944   2.305
13772WAT      O41557   7.315   1.153   9.367
13772WAT     H141558   7.236   1.158   9.428
13772WAT     H241559   7.340   1.245   9.337
13773WAT      O41560   4.845   2.022   3.286
13773WAT     H141561   4.779   2.092   3.262
13773WAT     H241562   4.883   2.041   3.377
13774WAT      O41563   3.737   8.949   9.263
13774WAT     H141564   3.822   8.952   9.316
13774WAT     H241565   3.752   8.992   9.174
13775WAT      O41566   0.122   7.442   6.313
13775WAT     H141567   0.170   7.392   6.385
13775WAT     H241568   0.147   7.538   6.316
13776WAT      O41569   8.307   7.008   4.434
13776WAT     H141570   8.294   6.911   4.457
13776WAT     H241571   8.238   7.063   4.482
13777WAT      O41572   9.786   5.399   7.917
13777WAT     H141573   9.767   5.439   7.827
13777WAT     H241574   9.796   5.473   7.984
13778WAT      O41575   0.260   0.553   4.986
13778WAT     H141576   0.318   0.504   4.922
13778WAT     H241577   0.293   0.647   4.996
13779WAT      O41578   5.735   7.955   1.631
13779WAT     H141579   5.797   7.961   1.553
13779WAT     H241580   5.772   7.891   1.699
13780WAT      O41581   0.794   1.084   9.413
13780WAT     H141582   0.892   1.103   9.403
13780WAT     H241583   0.771   1.081   9.511
13781WAT      O41584   0.525   7.198   0.298
13781WAT     H141585   0.580   7.142   0.360
13781WAT     H241586   0.577   7.218   0.215
13782WAT      O41587   4.777   2.616   6.035
13782WAT     H141588   4.747   2.688   6.097
13782WAT     H241589   4.776   2.650   5.941
13783WAT      O41590   1.472   2.926   3.425
13783WAT     H141591   1.419   2.844   3.445
13783WAT     H241592   1.413   2.994   3.381
13784WAT      O41593   0.911   4.595   5.621
13784WAT     H141594   0.981   4.644   5.570
13784WAT     H241595   0.893   4.644   5.707
13785WAT      O41596   8.752   2.079   1.732
13785WAT     H141597   8.823   2.095   1.799
13785WAT     H241598   8.790   2.086   1.640
13786WAT      O41599   2.824   7.076   0.123
13786WAT     H141600   2.733   7.100   0.156
13786WAT     H241601   2.819   7.048   0.027
13787WAT      O41602   6.999   8.860   2.771
13787WAT     H141603   6.980   8.953   2.741
13787WAT     H241604   6.920   8.825   2.822
13788WAT      O41605   4.255   0.672   2.258
13788WAT     H141606   4.182   0.741   2.261
13788WAT     H241607   4.216   0.582   2.279
13789WAT      O41608   1.178   6.899   6.207
13789WAT     H141609   1.210   6.814   6.166
13789WAT     H241610   1.252   6.940   6.261
13790WAT      O41611   1.068   4.787   3.145
13790WAT     H141612   1.113   4.805   3.058
13790WAT     H241613   0.995   4.719   3.132
13791WAT      O41614   0.490   6.505   5.057
13791WAT     H141615   0.519   6.413   5.082
13791WAT     H241616   0.534   6.532   4.971
13792WAT      O41617   6.774   8.988   6.144
13792WAT     H141618   6.820   9.031   6.222
13792WAT     H241619   6.787   9.043   6.062
13793WAT      O41620   9.787   3.251   3.203
13793WAT     H141621   9.784   3.180   3.133
13793WAT     H241622   9.792   3.209   3.294
13794WAT      O41623   5.361   7.498   2.538
13794WAT     H141624   5.304   7.527   2.615
13794WAT     H241625   5.304   7.455   2.468
13795WAT      O41626   5.730   2.726   0.828
13795WAT     H141627   5.741   2.774   0.741
13795WAT     H241628   5.730   2.791   0.903
13796WAT      O41629   6.201   4.134   0.125
13796WAT     H141630   6.254   4.085   0.195
13796WAT     H241631   6.223   4.232   0.131
13797WAT      O41632   6.153   6.947   2.453
13797WAT     H141633   6.214   6.953   2.374
13797WAT     H241634   6.104   7.034   2.464
13798WAT      O41635   2.050   5.167   0.618
13798WAT     H141636   2.072   5.071   0.637
13798WAT     H241637   2.020   5.211   0.702
13799WAT      O41638   5.528   5.312   2.766
13799WAT     H141639   5.495   5.348   2.678
13799WAT     H241640   5.462   5.335   2.838
13800WAT      O41641   0.008   8.647   0.628
13800WAT     H141642  -0.029   8.739   0.641
13800WAT     H241643  -0.054   8.580   0.668
13801WAT      O41644   5.238   6.883   8.136
13801WAT     H141645   5.294   6.880   8.218
13801WAT     H241646   5.278   6.947   8.070
13802WAT      O41647   3.992   6.748   6.884
13802WAT     H141648   3.989   6.698   6.970
13802WAT     H241649   4.086   6.750   6.850
13803WAT      O41650   8.095   2.321   0.822
13803WAT     H141651   8.055   2.239   0.863
13803WAT     H241652   8.039   2.401   0.845
13804WAT      O41653   4.245   0.474   4.776
13804WAT     H141654   4.275   0.420   4.697
13804WAT     H241655   4.235   0.570   4.749
13805WAT      O41656   2.953   4.909   2.331
13805WAT     H141657   2.963   4.920   2.232
13805WAT     H241658   3.001   4.827   2.361
13806WAT      O41659   0.920   9.783   4.462
13806WAT     H141660   1.011   9.820   4.442
13806WAT     H241661   0.921   9.739   4.552
13807WAT      O41662   3.984   2.167   5.009
13807WAT     H141663   3.889   2.199   5.006
13807WAT     H241664   4.028   2.187   4.922
13808WAT      O41665   2.862   4.830   5.971
13808WAT     H141666   2.872   4.868   5.879
13808WAT     H241667   2.872   4.731   5.968
13809WAT      O41668   7.708   8.369   2.333
13809WAT     H141669   7.627   8.415   2.369
13809WAT     H241670   7.690   8.271   2.326
13810WAT      O41671   5.605   2.989   6.810
13810WAT     H141672   5.615   3.088   6.815
13810WAT     H241673   5.641   2.956   6.723
13811WAT      O41674   2.876   1.775   8.639
13811WAT     H141675   2.830   1.815   8.560
13811WAT     H241676   2.916   1.849   8.695
13812WAT      O41677   6.994   3.745   3.288
13812WAT     H141678   7.065   3.745   3.218
13812WAT     H241679   6.928   3.817   3.269
13813WAT      O41680   5.607   5.103   4.356
13813WAT     H141681   5.529   5.109   4.293
13813WAT     H241682   5.581   5.047   4.435
13814WAT      O41683   7.456   8.113   3.985
13814WAT     H141684   7.360   8.115   3.958
13814WAT     H241685   7.471   8.174   4.062
13815WAT      O41686   4.776   6.382   9.204
13815WAT     H141687   4.788   6.403   9.107
13815WAT     H241688   4.683   6.348   9.220
13816WAT      O41689   4.186   4.689   4.018
13816WAT     H141690   4.212   4.623   3.947
13816WAT     H241691   4.260   4.755   4.030
13817WAT      O41692   9.335   9.186   3.735
13817WAT     H141693   9.345   9.090   3.759
13817WAT     H241694   9.261   9.226   3.790
13818WAT      O41695   4.973   6.281   7.736
13818WAT     H141696   5.065   6.242   7.736
13818WAT     H241697   4.941   6.292   7.830
13819WAT      O41698   5.639   0.268   5.352
13819WAT     H141699   5.699   0.218   5.290
13819WAT     H241700   5.562   0.306   5.300
13820WAT      O41701   0.014   3.613   7.558
13820WAT     H141702   0.105   3.650   7.538
13820WAT     H241703  -0.051   3.688   7.570
13821WAT      O41704   6.466   7.950   7.356
13821WAT     H141705   6.500   7.872   7.409
13821WAT     H241706   6.544   7.999   7.315
13822WAT      O41707   2.858   8.570   8.817
13822WAT     H141708   2.938   8.539   8.765
13822WAT     H241709   2.868   8.667   8.839
13823WAT      O41710   3.036   4.959   2.058
13823WAT     H141711   3.024   4.864   2.031
13823WAT     H241712   3.026   5.018   1.978
13824WAT      O41713   5.521   3.840   7.387
13824WAT     H141714   5.519   3.892   7.302
13824WAT     H241715   5.549   3.901   7.462
13825WAT      O41716   5.419   5.194   5.662
13825WAT     H141717   5.472   5.123   5.708
13825WAT     H241718   5.473   5.277   5.654
13826WAT      O41719   7.188   9.030   8.220
13826WAT     H141720   7.188   9.126   8.194
13826WAT     H241721   7.171   9.021   8.318
13827WAT      O41722   4.892   8.975   7.690
13827WAT     H141723   4.989   8.977   7.713
13827WAT     H241724   4.859   8.881   7.692
13828WAT      O41725   8.968   5.345   4.918
13828WAT     H141726   9.034   5.359   4.844
13828WAT     H241727   8.876   5.339   4.879
13829WAT      O41728   8.714   0.755   2.561
13829WAT     H141729   8.801   0.744   2.513
13829WAT     H241730   8.653   0.811   2.505
13830WAT      O41731   9.762   3.184   6.021
13830WAT     H141732   9.724   3.204   6.111
13830WAT     H241733   9.847   3.132   6.030
13831WAT      O41734   4.684   8.429   1.055
13831WAT     H141735   4.647   8.337   1.041
13831WAT     H241736   4.614   8.497   1.034
13832WAT      O41737   8.006   5.578   0.230
13832WAT     H141738   8.104   5.556   0.225
13832WAT     H241739   7.984   5.648   0.162
13833WAT      O41740   9.296   5.655   2.686
13833WAT     H141741   9.305   5.589   2.761
13833WAT     H241742   9.207   5.699   2.691
13834WAT      O41743   9.875   2.643   8.475
13834WAT     H141744   9.784   2.621   8.442
13834WAT     H241745   9.943   2.610   8.409
13835WAT      O41746   3.989   2.584   0.458
13835WAT     H141747   4.073   2.614   0.503
13835WAT     H241748   3.960   2.652   0.392
13836WAT      O41749   8.719   2.739   2.913
13836WAT     H141750   8.739   2.797   2.834
13836WAT     H241751   8.772   2.770   2.992
13837WAT      O41752   4.998   6.980   6.283
13837WAT     H141753   4.983   6.979   6.382
13837WAT     H241754   5.094   7.002   6.265
13838WAT      O41755   4.757   1.673   4.761
13838WAT     H141756   4.717   1.726   4.836
13838WAT     H241757   4.728   1.711   4.673
13839WAT      O41758   4.454   8.852   7.967
13839WAT     H141759   4.502   8.766   7.985
13839WAT     H241760   4.520   8.924   7.947
13840WAT      O41761   8.896   3.657   8.677
13840WAT     H141762   8.809   3.706   8.668
13840WAT     H241763   8.884   3.562   8.649
13841WAT      O41764   3.729   7.328   4.964
13841WAT     H141765   3.638   7.291   4.943
13841WAT     H241766   3.789   7.314   4.885
13842WAT      O41767   6.892   2.662   9.729
13842WAT     H141768   6.874   2.714   9.812
13842WAT     H241769   6.844   2.575   9.733
13843WAT      O41770   5.521   3.136   0.054
13843WAT     H141771   5.476   3.181  -0.024
13843WAT     H241772   5.452   3.093   0.111
13844WAT      O41773   4.596   2.978   1.719
13844WAT     H141774   4.591   3.056   1.782
13844WAT     H241775   4.671   2.918   1.746
13845WAT      O41776   6.605   2.066   4.749
13845WAT     H141777   6.559   2.088   4.835
13845WAT     H241778   6.552   1.997   4.699
13846WAT      O41779   9.685   9.662   9.146
13846WAT     H141780   9.633   9.744   9.172
13846WAT     H241781   9.770   9.659   9.200
13847WAT      O41782   8.131   5.180   3.164
13847WAT     H141783   8.108   5.156   3.258
13847WAT     H241784   8.067   5.135   3.101
13848WAT      O41785   5.344   3.020   2.091
13848WAT     H141786   5.433   3.006   2.048
13848WAT     H241787   5.358   3.045   2.187
13849WAT      O41788   8.656   7.115   9.404
13849WAT     H141789   8.653   7.019   9.374
13849WAT     H241790   8.705   7.169   9.337
13850WAT      O41791   0.043   6.842   0.790
13850WAT     H141792   0.140   6.846   0.765
13850WAT     H241793  -0.007   6.788   0.722
13851WAT      O41794   1.876   3.909   2.756
13851WAT     H141795   1.941   3.854   2.808
13851WAT     H241796   1.801   3.851   2.724
13852WAT      O41797   1.579   3.129   6.787
13852WAT     H141798   1.565   3.124   6.885
13852WAT     H241799   1.493   3.150   6.741
13853WAT      O41800   1.791   9.652   9.022
13853WAT     H141801   1.726   9.602   9.079
13853WAT     H241802   1.747   9.681   8.937
13854WAT      O41803   9.073   2.249   8.760
13854WAT     H141804   9.067   2.318   8.833
13854WAT     H241805   9.093   2.295   8.673
13855WAT      O41806   1.359   6.697   5.922
13855WAT     H141807   1.334   6.663   6.012
13855WAT     H241808   1.353   6.622   5.855
13856WAT      O41809   5.455   4.662   1.811
13856WAT     H141810   5.359   4.666   1.839
13856WAT     H241811   5.460   4.636   1.715
13857WAT      O41812   2.107   8.968   1.415
13857WAT     H141813   2.058   9.041   1.463
13857WAT     H241814   2.070   8.880   1.443
13858WAT      O41815   6.678   7.788   4.996
13858WAT     H141816   6.685   7.749   5.088
13858WAT     H241817   6.583   7.815   4.979
13859WAT      O41818   0.801   4.456   3.298
13859WAT     H141819   0.842   4.382   3.352
13859WAT     H241820   0.712   4.426   3.262
13860WAT      O41821   5.338   5.968   7.873
13860WAT     H141822   5.310   5.965   7.969
13860WAT     H241823   5.278   6.029   7.822
13861WAT      O41824   1.275   3.650   1.864
13861WAT     H141825   1.264   3.589   1.786
13861WAT     H241826   1.258   3.599   1.948
13862WAT      O41827   5.617   2.041   9.497
13862WAT     H141828   5.544   2.107   9.478
13862WAT     H241829   5.705   2.081   9.472
13863WAT      O41830   5.139   5.440   8.446
13863WAT     H141831   5.116   5.526   8.493
13863WAT     H241832   5.080   5.429   8.366
13864WAT      O41833   3.413   1.684   1.958
13864WAT     H141834   3.402   1.720   1.865
13864WAT     H241835   3.465   1.599   1.954
13865WAT      O41836   5.940   0.567   3.331
13865WAT     H141837   5.940   0.502   3.407
13865WAT     H241838   5.931   0.517   3.245
13866WAT      O41839   2.033   5.042   7.305
13866WAT     H141840   1.995   4.982   7.234
13866WAT     H241841   1.962   5.106   7.335
13867WAT      O41842   8.251   4.629   1.531
13867WAT     H141843   8.297   4.580   1.457
13867WAT     H241844   8.161   4.587   1.548
13868WAT      O41845   3.764   4.058   7.182
13868WAT     H141846   3.674   4.095   7.163
13868WAT     H241847   3.806   4.026   7.097
13869WAT      O41848   5.612   5.747   8.245
13869WAT     H141849   5.678   5.692   8.192
13869WAT     H241850   5.614   5.841   8.212
13870WAT      O41851   2.970   7.455   0.422
13870WAT     H141852   2.961   7.405   0.336
13870WAT     H241853   2.992   7.551   0.403
13871WAT      O41854   7.203   0.749   0.447
13871WAT     H141855   7.155   0.685   0.387
13871WAT     H241856   7.222   0.705   0.535
13872WAT      O41857   9.262   6.887   7.841
13872WAT     H141858   9.293   6.814   7.903
13872WAT     H241859   9.164   6.880   7.827
13873WAT      O41860   0.476   4.657   6.046
13873WAT     H141861   0.388   4.614   6.069
13873WAT     H241862   0.543   4.586   6.025
13874WAT      O41863   9.034   6.434   1.001
13874WAT     H141864   9.103   6.504   1.019
13874WAT     H241865   9.036   6.366   1.074
13875WAT      O41866   3.736   1.456   6.369
13875WAT     H141867   3.761   1.549   6.345
13875WAT     H241868   3.650   1.457   6.421
13876WAT      O41869   6.603   0.184   0.691
13876WAT     H141870   6.508   0.179   0.720
13876WAT     H241871   6.650   0.099   0.715
13877WAT      O41872   2.329   5.325   0.499
13877WAT     H141873   2.317   5.354   0.404
13877WAT     H241874   2.382   5.240   0.501
13878WAT      O41875   9.847   0.068   0.070
13878WAT     H141876   9.924   0.051   0.132
13878WAT     H241877   9.878   0.123  -0.008
13879WAT      O41878   8.286   7.744   0.137
13879WAT     H141879   8.359   7.677   0.145
13879WAT     H241880   8.297   7.795   0.052
13880WAT      O41881   6.645   5.684   0.141
13880WAT     H141882   6.715   5.617   0.116
13880WAT     H241883   6.598   5.654   0.223
13881WAT      O41884   7.833   7.782   1.131
13881WAT     H141885   7.919   7.794   1.180
13881WAT     H241886   7.792   7.872   1.113
13882WAT      O41887   0.086   9.366   7.955
13882WAT     H141888   0.132   9.322   7.878
13882WAT     H241889   0.030   9.442   7.921
13883WAT      O41890   8.359   2.528   3.036
13883WAT     H141891   8.452   2.534   2.998
13883WAT     H241892   8.342   2.606   3.095
13884WAT      O41893   5.382   6.623   7.813
13884WAT     H141894   5.304   6.682   7.831
13884WAT     H241895   5.455   6.643   7.879
13885WAT      O41896   7.249   9.227   4.860
13885WAT     H141897   7.224   9.318   4.827
13885WAT     H241898   7.247   9.162   4.784
13886WAT      O41899   2.575   5.726   1.147
13886WAT     H141900   2.500   5.666   1.175
13886WAT     H241901   2.561   5.817   1.186
13887WAT      O41902   8.652   3.387   0.332
13887WAT     H141903   8.667   3.303   0.279
13887WAT     H241904   8.729   3.448   0.321
13888WAT      O41905   6.416   3.153   2.362
13888WAT     H141906   6.374   3.243   2.375
13888WAT     H241907   6.346   3.082   2.373
13889WAT      O41908   8.762   3.107   2.703
13889WAT     H141909   8.834   3.176   2.693
13889WAT     H241910   8.804   3.017   2.714
13890WAT      O41911   7.242   3.442   8.087
13890WAT     H141912   7.261   3.462   7.991
13890WAT     H241913   7.190   3.357   8.093
13891WAT      O41914   6.747   0.634   9.014
13891WAT     H141915   6.833   0.618   8.966
13891WAT     H241916   6.718   0.729   9.003
13892WAT      O41917   9.157   8.889   0.216
13892WAT     H141918   9.152   8.850   0.124
13892WAT     H241919   9.214   8.830   0.275
13893WAT      O41920   2.423   0.433   8.173
13893WAT     H141921   2.504   0.375   8.165
13893WAT     H241922   2.389   0.430   8.267
13894WAT      O41923   6.258   0.200   3.796
13894WAT     H141924   6.302   0.265   3.858
13894WAT     H241925   6.194   0.249   3.736
13895WAT      O41926   7.176   3.690   1.834
13895WAT     H141927   7.078   3.698   1.820
13895WAT     H241928   7.196   3.604   1.881
13896WAT      O41929   7.887   1.914   4.452
13896WAT     H141930   7.851   1.821   4.466
13896WAT     H241931   7.976   1.922   4.498
13897WAT      O41932   0.376   0.370   4.835
13897WAT     H141933   0.468   0.372   4.796
13897WAT     H241934   0.360   0.282   4.880
13898WAT      O41935   2.209   7.753   8.145
13898WAT     H141936   2.151   7.806   8.207
13898WAT     H241937   2.295   7.731   8.191
13899WAT      O41938   8.121   9.456   4.113
13899WAT     H141939   8.081   9.492   4.029
13899WAT     H241940   8.189   9.386   4.090
13900WAT      O41941   3.403   6.370   8.105
13900WAT     H141942   3.402   6.341   8.200
13900WAT     H241943   3.310   6.368   8.068
13901WAT      O41944   7.010   2.043   8.122
13901WAT     H141945   6.939   1.972   8.114
13901WAT     H241946   7.049   2.062   8.033
13902WAT      O41947   2.860   7.996   1.398
13902WAT     H141948   2.941   8.050   1.423
13902WAT     H241949   2.784   8.020   1.458
13903WAT      O41950   3.246   3.578   6.500
13903WAT     H141951   3.278   3.657   6.553
13903WAT     H241952   3.312   3.558   6.427
13904WAT      O41953   2.752   5.619   0.348
13904WAT     H141954   2.768   5.566   0.265
13904WAT     H241955   2.673   5.581   0.397
13905WAT      O41956   9.214   6.569   0.337
13905WAT     H141957   9.157   6.488   0.331
13905WAT     H241958   9.287   6.554   0.403
13906WAT      O41959   4.418   1.589   4.700
13906WAT     H141960   4.367   1.669   4.731
13906WAT     H241961   4.504   1.618   4.657
13907WAT      O41962   9.075   3.515   7.292
13907WAT     H141963   8.976   3.527   7.283
13907WAT     H241964   9.093   3.439   7.354
13908WAT      O41965   7.582   7.865   6.514
13908WAT     H141966   7.562   7.767   6.512
13908WAT     H241967   7.600   7.894   6.608
13909WAT      O41968   4.632   8.416   9.332
13909WAT     H141969   4.575   8.409   9.414
13909WAT     H241970   4.630   8.510   9.298
13910WAT      O41971   4.795   3.139   4.630
13910WAT     H141972   4.727   3.070   4.607
13910WAT     H241973   4.815   3.194   4.549
13911WAT      O41974   2.082   9.819   4.562
13911WAT     H141975   1.985   9.832   4.540
13911WAT     H241976   2.138   9.851   4.485
13912WAT      O41977   5.171   1.057   7.305
13912WAT     H141978   5.257   1.020   7.340
13912WAT     H241979   5.180   1.076   7.207
13913WAT      O41980   4.320   2.586   2.293
13913WAT     H141981   4.238   2.641   2.278
13913WAT     H241982   4.322   2.555   2.388
13914WAT      O41983   1.781   8.888   1.259
13914WAT     H141984   1.683   8.903   1.245
13914WAT     H241985   1.805   8.911   1.353
13915WAT      O41986   1.833   9.549   2.490
13915WAT     H141987   1.745   9.572   2.449
13915WAT     H241988   1.879   9.481   2.433
13916WAT      O41989   9.622   4.078   4.078
13916WAT     H141990   9.643   4.150   4.011
13916WAT     H241991   9.523   4.061   4.080
13917WAT      O41992   0.508   7.692   1.903
13917WAT     H141993   0.582   7.754   1.927
13917WAT     H241994   0.429   7.746   1.873
13918WAT      O41995   9.606   6.565   3.238
13918WAT     H141996   9.544   6.606   3.171
13918WAT     H241997   9.620   6.628   3.314
13919WAT      O41998   7.865   0.525   4.105
13919WAT     H141999   7.923   0.607   4.111
13919WAT     H242000   7.788   0.533   4.168
13920WAT      O42001   7.081   1.274   7.010
13920WAT     H142002   7.167   1.286   6.959
13920WAT     H242003   7.098   1.217   7.090
13921WAT      O42004   1.689   9.397   7.578
13921WAT     H142005   1.624   9.447   7.635
13921WAT     H242006   1.782   9.428   7.599
13922WAT      O42007   7.821   8.684   4.223
13922WAT     H142008   7.872   8.607   4.185
13922WAT     H242009   7.879   8.734   4.287
13923WAT      O42010   5.840   0.000   1.430
13923WAT     H142011   5.878   0.067   1.494
13923WAT     H242012   5.756   0.038   1.389
13924WAT      O42013   3.793   2.815   9.239
13924WAT     H142014   3.810   2.873   9.160
13924WAT     H242015   3.705   2.839   9.280
13925WAT      O42016   1.820   0.711   1.942
13925WAT     H142017   1.903   0.720   1.887
13925WAT     H242018   1.819   0.621   1.985
13926WAT      O42019   6.590   4.768   7.342
13926WAT     H142020   6.554   4.808   7.258
13926WAT     H242021   6.561   4.672   7.348
13927WAT      O42022   9.425   8.451   5.500
13927WAT     H142023   9.339   8.415   5.536
13927WAT     H242024   9.407   8.501   5.415
13928WAT      O42025   8.424   0.183   3.814
13928WAT     H142026   8.479   0.174   3.898
13928WAT     H242027   8.329   0.160   3.834
13929WAT      O42028   9.751   1.919   3.498
13929WAT     H142029   9.660   1.886   3.474
13929WAT     H242030   9.743   2.010   3.540
13930WAT      O42031   0.219   8.744   7.366
13930WAT     H142032   0.259   8.694   7.443
13930WAT     H242033   0.219   8.842   7.387
13931WAT      O42034   0.088   7.713   8.940
13931WAT     H142035   0.131   7.647   8.879
13931WAT     H242036  -0.011   7.702   8.937
13932WAT      O42037   6.361   4.435   5.108
13932WAT     H142038   6.286   4.413   5.046
13932WAT     H242039   6.404   4.351   5.141
13933WAT      O42040   7.369   4.373   4.715
13933WAT     H142041   7.322   4.288   4.739
13933WAT     H242042   7.328   4.413   4.633
13934WAT      O42043   4.364   1.897   2.676
13934WAT     H142044   4.447   1.934   2.717
13934WAT     H242045   4.305   1.859   2.747
13935WAT      O42046   9.119   6.130   5.649
13935WAT     H142047   9.126   6.050   5.588
13935WAT     H242048   9.138   6.213   5.597
13936WAT      O42049   7.188   6.718   5.825
13936WAT     H142050   7.154   6.710   5.919
13936WAT     H242051   7.234   6.634   5.799
13937WAT      O42052   8.598   7.195   3.364
13937WAT     H142053   8.503   7.226   3.361
13937WAT     H242054   8.621   7.164   3.456
13938WAT      O42055   2.438   1.004   1.489
13938WAT     H142056   2.416   0.914   1.451
13938WAT     H242057   2.353   1.052   1.511
13939WAT      O42058   3.683   9.049   1.304
13939WAT     H142059   3.732   9.009   1.381
13939WAT     H242060   3.679   8.983   1.229
13940WAT      O42061   4.892   6.250   3.132
13940WAT     H142062   4.873   6.347   3.150
13940WAT     H242063   4.964   6.218   3.193
13941WAT      O42064   6.940   8.687   3.956
13941WAT     H142065   6.867   8.620   3.969
13941WAT     H242066   6.900   8.777   3.938
13942WAT      O42067   9.364   7.453   4.979
13942WAT     H142068   9.285   7.406   5.017
13942WAT     H242069   9.375   7.541   5.025
13943WAT      O42070   3.457   9.635   1.943
13943WAT     H142071   3.367   9.599   1.966
13943WAT     H242072   3.449   9.702   1.869
13944WAT      O42073   1.070   6.108   8.957
13944WAT     H142074   1.027   6.030   8.911
13944WAT     H242075   1.130   6.156   8.894
13945WAT      O42076   4.051   0.844   4.121
13945WAT     H142077   3.980   0.898   4.166
13945WAT     H242078   4.140   0.888   4.136
13946WAT      O42079   7.262   1.384   4.776
13946WAT     H142080   7.313   1.406   4.860
13946WAT     H242081   7.272   1.286   4.757
13947WAT      O42082   4.182   4.215   3.303
13947WAT     H142083   4.118   4.139   3.313
13947WAT     H242084   4.275   4.181   3.318
13948WAT      O42085   7.116   3.594   9.348
13948WAT     H142086   7.096   3.531   9.273
13948WAT     H242087   7.215   3.600   9.361
13949WAT      O42088   5.041   7.880   4.056
13949WAT     H142089   5.049   7.909   3.961
13949WAT     H242090   4.959   7.922   4.097
13950WAT      O42091   2.306   6.018   5.637
13950WAT     H142092   2.317   5.972   5.549
13950WAT     H242093   2.390   6.065   5.661
13951WAT      O42094   0.145   5.514   5.309
13951WAT     H142095   0.146   5.596   5.366
13951WAT     H242096   0.197   5.530   5.226
13952WAT      O42097   9.841   8.864   6.019
13952WAT     H142098   9.750   8.875   5.980
13952WAT     H242099   9.908   8.847   5.946
13953WAT      O42100   6.787   1.811   1.090
13953WAT     H142101   6.707   1.869   1.108
13953WAT     H242102   6.826   1.781   1.176
13954WAT      O42103   5.035   8.213   0.304
13954WAT     H142104   5.079   8.188   0.390
13954WAT     H242105   5.027   8.312   0.298
13955WAT      O42106   5.342   7.964   0.451
13955WAT     H142107   5.310   7.880   0.406
13955WAT     H242108   5.374   7.942   0.543
13956WAT      O42109   4.642   9.076   7.975
13956WAT     H142110   4.595   9.134   7.908
13956WAT     H242111   4.734   9.112   7.992
13957WAT      O42112   6.464   5.668   6.452
13957WAT     H142113   6.434   5.592   6.395
13957WAT     H242114   6.556   5.649   6.487
13958WAT      O42115   7.092   0.023   2.231
13958WAT     H142116   7.153  -0.019   2.164
13958WAT     H242117   7.017   0.069   2.183
13959WAT      O42118   3.432   6.085   5.703
13959WAT     H142119   3.429   6.067   5.802
13959WAT     H242120   3.378   6.166   5.683
13960WAT      O42121   2.432   8.262   5.320
13960WAT     H142122   2.514   8.295   5.366
13960WAT     H242123   2.452   8.174   5.276
13961WAT      O42124   0.187   9.385   7.488
13961WAT     H142125   0.280   9.422   7.488
13961WAT     H242126   0.183   9.305   7.429
13962WAT      O42127   4.802   2.994   8.392
13962WAT     H142128   4.881   2.937   8.413
13962WAT     H242129   4.804   3.021   8.296
13963WAT      O42130   8.049   7.773   6.821
13963WAT     H142131   7.967   7.732   6.781
13963WAT     H242132   8.115   7.794   6.749
13964WAT      O42133   6.022   7.117   7.881
13964WAT     H142134   5.959   7.041   7.869
13964WAT     H242135   6.056   7.148   7.792
13965WAT      O42136   7.576   8.654   1.254
13965WAT     H142137   7.594   8.751   1.243
13965WAT     H242138   7.649   8.612   1.309
13966WAT      O42139   7.373   8.480   5.433
13966WAT     H142140   7.331   8.516   5.349
13966WAT     H242141   7.345   8.385   5.446
13967WAT      O42142   5.971   7.410   4.881
13967WAT     H142143   5.911   7.345   4.928
13967WAT     H242144   5.951   7.408   4.783
13968WAT      O42145   6.607   0.374   0.877
13968WAT     H142146   6.605   0.321   0.962
13968WAT     H242147   6.599   0.311   0.799
13969WAT      O42148   0.659   1.809   6.508
13969WAT     H142149   0.689   1.724   6.553
13969WAT     H242150   0.720   1.830   6.432
13970WAT      O42151   0.323   8.779   4.280
13970WAT     H142152   0.290   8.725   4.358
13970WAT     H242153   0.272   8.752   4.198
13971WAT      O42154   8.556   1.175   1.340
13971WAT     H142155   8.587   1.263   1.377
13971WAT     H242156   8.622   1.142   1.273
13972WAT      O42157   6.075   6.747   6.283
13972WAT     H142158   6.155   6.710   6.330
13972WAT     H242159   5.999   6.682   6.292
13973WAT      O42160   9.460   1.255   5.441
13973WAT     H142161   9.511   1.330   5.483
13973WAT     H242162   9.515   1.172   5.443
13974WAT      O42163   8.845   0.454   5.024
13974WAT     H142164   8.853   0.376   5.087
13974WAT     H242165   8.934   0.473   4.982
13975WAT      O42166   3.853   5.128   4.151
13975WAT     H142167   3.782   5.162   4.090
13975WAT     H242168   3.844   5.028   4.160
13976WAT      O42169   9.781   3.041   9.145
13976WAT     H142170   9.874   3.071   9.165
13976WAT     H242171   9.733   3.114   9.095
13977WAT      O42172   1.674   2.572   5.218
13977WAT     H142173   1.652   2.637   5.145
13977WAT     H242174   1.734   2.501   5.182
13978WAT      O42175   7.913   6.497   6.390
13978WAT     H142176   7.855   6.458   6.462
13978WAT     H242177   7.993   6.541   6.432
13979WAT      O42178   2.262   4.980   0.958
13979WAT     H142179   2.213   5.016   1.037
13979WAT     H242180   2.307   5.054   0.908
13980WAT      O42181   5.826   4.354   7.523
13980WAT     H142182   5.740   4.390   7.559
13980WAT     H242183   5.873   4.426   7.472
13981WAT      O42184   5.561   7.412   5.551
13981WAT     H142185   5.525   7.485   5.493
13981WAT     H242186   5.649   7.441   5.589
13982WAT      O42187   9.675   3.617   6.373
13982WAT     H142188   9.768   3.586   6.396
13982WAT     H242189   9.643   3.568   6.292
13983WAT      O42190   1.353   7.200   8.748
13983WAT     H142191   1.439   7.235   8.783
13983WAT     H242192   1.282   7.207   8.818
13984WAT      O42193   8.402   2.036   9.484
13984WAT     H142194   8.351   1.961   9.442
13984WAT     H242195   8.391   2.119   9.429
13985WAT      O42196   3.137   4.009   6.609
13985WAT     H142197   3.168   4.101   6.633
13985WAT     H242198   3.065   3.980   6.673
13986WAT      O42199   9.804   0.211   0.426
13986WAT     H142200   9.778   0.237   0.518
13986WAT     H242201   9.879   0.269   0.394
13987WAT      O42202   0.982   7.318   5.952
13987WAT     H142203   1.039   7.243   5.987
13987WAT     H242204   0.948   7.372   6.029
13988WAT      O42205   1.750   8.629   7.379
13988WAT     H142206   1.809   8.550   7.361
13988WAT     H242207   1.789   8.684   7.452
13989WAT      O42208   0.680   4.690   6.504
13989WAT     H142209   0.740   4.707   6.583
13989WAT     H242210   0.735   4.663   6.426
13990WAT      O42211   7.286   6.200   9.700
13990WAT     H142212   7.207   6.152   9.662
13990WAT     H242213   7.324   6.146   9.776
13991WAT      O42214   7.822   0.239   1.636
13991WAT     H142215   7.765   0.170   1.681
13991WAT     H242216   7.820   0.324   1.689
13992WAT      O42217   7.675   2.650   4.692
13992WAT     H142218   7.735   2.696   4.627
13992WAT     H242219   7.655   2.557   4.660
13993WAT      O42220   0.531   5.368   4.519
13993WAT     H142221   0.595   5.435   4.482
13993WAT     H242222   0.537   5.284   4.465
13994WAT      O42223   0.320   5.910   4.678
13994WAT     H142224   0.301   5.847   4.603
13994WAT     H242225   0.379   5.984   4.646
13995WAT      O42226   8.004   5.986   2.224
13995WAT     H142227   7.945   5.967   2.303
13995WAT     H242228   8.025   5.900   2.178
13996WAT      O42229   5.732   2.238   2.672
13996WAT     H142230   5.681   2.285   2.744
13996WAT     H242231   5.677   2.162   2.636
13997WAT      O42232   7.826   4.004   3.606
13997WAT     H142233   7.795   3.952   3.686
13997WAT     H242234   7.822   3.945   3.525
13998WAT      O42235   4.662   5.863   6.746
13998WAT     H142236   4.563   5.853   6.735
13998WAT     H242237   4.703   5.773   6.760
13999WAT      O42238   0.910   9.700   6.158
13999WAT     H142239   0.931   9.690   6.255
13999WAT     H242240   0.908   9.798   6.135
14000WAT      O42241   6.963   5.552   4.492
14000WAT     H142242   6.950   5.582   4.397
14000WAT     H242243   7.051   5.505   4.499
14001WAT      O42244   4.425   2.144   8.128
14001WAT     H142245   4.442   2.205   8.205
14001WAT     H242246   4.445   2.192   8.042
14002WAT      O42247   1.997   8.100   0.750
14002WAT     H142248   1.907   8.130   0.718
14002WAT     H242249   2.004   8.000   0.742
14003WAT      O42250   8.404   1.267   4.102
14003WAT     H142251   8.340   1.213   4.157
14003WAT     H242252   8.404   1.233   4.008
14004WAT      O42253   8.917   5.349   0.837
14004WAT     H142254   8.834   5.398   0.864
14004WAT     H242255   8.996   5.409   0.848
14005WAT      O42256   7.947   0.212   3.077
14005WAT     H142257   7.870   0.238   3.135
14005WAT     H242258   7.942   0.265   2.991
14006WAT      O42259   0.029   5.854   7.320
14006WAT     H142260   0.071   5.772   7.359
14006WAT     H242261   0.021   5.924   7.390
14007WAT      O42262   4.665   2.617   2.782
14007WAT     H142263   4.626   2.569   2.703
14007WAT     H242264   4.603   2.608   2.860
14008WAT      O42265   7.502   5.734   4.118
14008WAT     H142266   7.443   5.702   4.193
14008WAT     H242267   7.594   5.751   4.154
14009WAT      O42268   3.753   9.387   9.701
14009WAT     H142269   3.681   9.440   9.657
14009WAT     H242270   3.772   9.424   9.792
14010WAT      O42271   5.985   9.194   1.845
14010WAT     H142272   5.893   9.219   1.875
14010WAT     H242273   6.004   9.100   1.873
14011WAT      O42274   8.643   7.043   2.171
14011WAT     H142275   8.626   7.117   2.235
14011WAT     H242276   8.741   7.022   2.169
14012WAT      O42277   5.761   7.277   7.589
14012WAT     H142278   5.827   7.203   7.601
14012WAT     H242279   5.809   7.364   7.587
14013WAT      O42280   9.864   0.825   7.306
14013WAT     H142281   9.932   0.766   7.262
14013WAT     H242282   9.823   0.886   7.238
14014WAT      O42283   3.382   3.496   3.046
14014WAT     H142284   3.338   3.513   2.958
14014WAT     H242285   3.474   3.535   3.046
14015WAT      O42286   7.507   7.297   8.145
14015WAT     H142287   7.482   7.364   8.075
14015WAT     H242288   7.576   7.235   8.108
14016WAT      O42289   0.341   5.955   3.169
14016WAT     H142290   0.338   5.908   3.257
14016WAT     H242291   0.435   5.984   3.150
14017WAT      O42292   4.027   6.358   8.382
14017WAT     H142293   3.945   6.305   8.403
14017WAT     H242294   4.044   6.424   8.456
14018WAT      O42295   0.052   3.569   9.647
14018WAT     H142296   0.142   3.539   9.680
14018WAT     H242297  -0.003   3.600   9.725
14019WAT      O42298   6.181   7.596   4.511
14019WAT     H142299   6.148   7.511   4.470
14019WAT     H242300   6.248   7.639   4.451
14020WAT      O42301   5.114   0.895   5.093
14020WAT     H142302   5.072   0.890   5.184
14020WAT     H242303   5.100   0.986   5.055
14021WAT      O42304   8.572   6.653   4.470
14021WAT     H142305   8.621   6.699   4.396
14021WAT     H242306   8.600   6.691   4.558
14022WAT      O42307   3.113   9.440   4.015
14022WAT     H142308   3.014   9.455   4.011
14022WAT     H242309   3.131   9.352   4.059
14023WAT      O42310   5.625   1.523   8.958
14023WAT     H142311   5.670   1.519   9.047
14023WAT     H242312   5.669   1.458   8.896
14024WAT      O42313   6.458   8.174   9.657
14024WAT     H142314   6.522   8.249   9.673
14024WAT     H242315   6.407   8.155   9.741
14025WAT      O42316   0.076   9.427   1.830
14025WAT     H142317   0.065   9.397   1.735
14025WAT     H242318   0.009   9.382   1.888
14026WAT      O42319   5.822   8.077   0.748
14026WAT     H142320   5.814   8.116   0.840
14026WAT     H242321   5.903   8.114   0.703
14027WAT      O42322   5.210   1.213   9.596
14027WAT     H142323   5.297   1.173   9.625
14027WAT     H242324   5.162   1.252   9.675
14028WAT      O42325   9.265   5.330   1.475
14028WAT     H142326   9.214   5.263   1.528
14028WAT     H242327   9.251   5.421   1.514
14029WAT      O42328   0.648   6.419   6.397
14029WAT     H142329   0.728   6.438   6.340
14029WAT     H242330   0.607   6.332   6.369
14030WAT      O42331   5.536   2.065   1.396
14030WAT     H142332   5.460   2.019   1.350
14030WAT     H242333   5.600   2.100   1.328
14031WAT      O42334   8.879   8.416   2.555
14031WAT     H142335   8.808   8.443   2.489
14031WAT     H242336   8.915   8.497   2.600
14032WAT      O42337   4.766   3.406   7.311
14032WAT     H142338   4.785   3.451   7.398
14032WAT     H242339   4.838   3.429   7.245
14033WAT      O42340   6.029   8.112   5.438
14033WAT     H142341   6.052   8.193   5.384
14033WAT     H242342   5.946   8.129   5.491
14034WAT      O42343   8.619   2.237   4.775
14034WAT     H142344   8.622   2.276   4.683
14034WAT     H242345   8.694   2.172   4.786
14035WAT      O42346   5.707   7.298   6.872
14035WAT     H142347   5.642   7.373   6.882
14035WAT     H242348   5.686   7.226   6.938
14036WAT      O42349   6.820   6.433   6.503
14036WAT     H142350   6.753   6.491   6.456
14036WAT     H242351   6.838   6.351   6.448
14037WAT      O42352   1.641   1.783   9.678
14037WAT     H142353   1.575   1.735   9.737
14037WAT     H242354   1.734   1.763   9.709
14038WAT      O42355   7.810   7.264   9.651
14038WAT     H142356   7.790   7.167   9.637
14038WAT     H242357   7.873   7.275   9.728
14039WAT      O42358   2.901   9.469   7.284
14039WAT     H142359   2.978   9.454   7.346
14039WAT     H242360   2.847   9.547   7.316
14040WAT      O42361   7.018   8.441   7.708
14040WAT     H142362   6.921   8.428   7.686
14040WAT     H242363   7.067   8.469   7.625
14041WAT      O42364   2.197   2.998   9.429
14041WAT     H142365   2.190   2.908   9.387
14041WAT     H242366   2.292   3.014   9.458
14042WAT      O42367   1.210   6.255   8.742
14042WAT     H142368   1.230   6.309   8.660
14042WAT     H242369   1.272   6.282   8.816
14043WAT      O42370   3.067   5.942   5.944
14043WAT     H142371   3.166   5.931   5.955
14043WAT     H242372   3.020   5.860   5.977
14044WAT      O42373   4.278   7.411   6.992
14044WAT     H142374   4.281   7.504   7.030
14044WAT     H242375   4.186   7.391   6.959
14045WAT      O42376   5.488   5.763   5.792
14045WAT     H142377   5.439   5.762   5.705
14045WAT     H242378   5.539   5.677   5.802
14046WAT      O42379   8.929   4.125   2.541
14046WAT     H142380   8.845   4.121   2.594
14046WAT     H242381   8.911   4.099   2.447
14047WAT      O42382   1.874   6.331   2.941
14047WAT     H142383   1.775   6.315   2.948
14047WAT     H242384   1.893   6.380   2.856
14048WAT      O42385   6.432   1.569   5.535
14048WAT     H142386   6.353   1.602   5.587
14048WAT     H242387   6.453   1.634   5.462
14049WAT      O42388   2.098   8.615   4.236
14049WAT     H142389   2.176   8.554   4.247
14049WAT     H242390   2.080   8.661   4.322
14050WAT      O42391   6.596   1.113   8.869
14050WAT     H142392   6.592   1.192   8.808
14050WAT     H242393   6.513   1.110   8.924
14051WAT      O42394   9.080   5.950   2.495
14051WAT     H142395   9.101   6.047   2.502
14051WAT     H242396   9.125   5.912   2.414
14052WAT      O42397   8.513   3.119   7.205
14052WAT     H142398   8.437   3.182   7.218
14052WAT     H242399   8.574   3.154   7.134
14053WAT      O42400   8.807   7.497   4.689
14053WAT     H142401   8.785   7.534   4.599
14053WAT     H242402   8.901   7.522   4.714
14054WAT      O42403   8.916   4.634   3.513
14054WAT     H142404   8.819   4.633   3.489
14054WAT     H242405   8.962   4.558   3.468
14055WAT      O42406   3.538   9.736   3.954
14055WAT     H142407   3.583   9.768   3.871
14055WAT     H242408   3.453   9.689   3.930
14056WAT      O42409   4.670   4.441   3.738
14056WAT     H142410   4.731   4.486   3.672
14056WAT     H242411   4.723   4.375   3.791
14057WAT      O42412   9.391   3.489   4.276
14057WAT     H142413   9.356   3.499   4.369
14057WAT     H242414   9.410   3.392   4.258
14058WAT      O42415   8.175   8.551   3.469
14058WAT     H142416   8.116   8.627   3.442
14058WAT     H242417   8.165   8.533   3.566
14059WAT      O42418   1.080   1.321   7.607
14059WAT     H142419   1.013   1.392   7.632
14059WAT     H242420   1.053   1.279   7.520
14060WAT      O42421   2.544   6.747   3.949
14060WAT     H142422   2.633   6.768   3.911
14060WAT     H242423   2.535   6.792   4.038
14061WAT      O42424   5.333   8.722   6.686
14061WAT     H142425   5.300   8.797   6.743
14061WAT     H242426   5.422   8.692   6.718
14062WAT      O42427   0.260   8.247   9.012
14062WAT     H142428   0.202   8.191   8.953
14062WAT     H242429   0.351   8.256   8.970
14063WAT      O42430   3.638   3.184   2.870
14063WAT     H142431   3.669   3.133   2.790
14063WAT     H242432   3.694   3.266   2.881
14064WAT      O42433   6.897   5.040   3.186
14064WAT     H142434   6.821   5.011   3.127
14064WAT     H242435   6.923   4.964   3.246
14065WAT      O42436   7.927   7.460   6.277
14065WAT     H142437   7.948   7.403   6.356
14065WAT     H242438   7.949   7.409   6.193
14066WAT      O42439   5.493   3.554   3.911
14066WAT     H142440   5.457   3.579   3.821
14066WAT     H242441   5.418   3.547   3.976
14067WAT      O42442   0.641   9.110   1.249
14067WAT     H142443   0.652   9.013   1.226
14067WAT     H242444   0.635   9.120   1.348
14068WAT      O42445   0.366   9.192   4.400
14068WAT     H142446   0.393   9.109   4.450
14068WAT     H242447   0.288   9.172   4.341
14069WAT      O42448   0.343   4.283   1.495
14069WAT     H142449   0.343   4.381   1.514
14069WAT     H242450   0.313   4.267   1.401
14070WAT      O42451   2.227   7.655   6.047
14070WAT     H142452   2.282   7.662   5.964
14070WAT     H242453   2.249   7.731   6.108
14071WAT      O42454   5.827   4.893   1.512
14071WAT     H142455   5.741   4.883   1.563
14071WAT     H242456   5.899   4.923   1.574
14072WAT      O42457   5.291   9.277   8.206
14072WAT     H142458   5.198   9.296   8.239
14072WAT     H242459   5.353   9.348   8.239
14073WAT      O42460   8.866   9.093   4.495
14073WAT     H142461   8.874   9.193   4.491
14073WAT     H242462   8.939   9.055   4.552
14074WAT      O42463   4.099   0.253   9.435
14074WAT     H142464   4.195   0.265   9.461
14074WAT     H242465   4.094   0.195   9.353
14075WAT      O42466   6.888   5.158   6.535
14075WAT     H142467   6.982   5.140   6.563
14075WAT     H242468   6.838   5.072   6.528
14076WAT      O42469   6.161   5.577   5.432
14076WAT     H142470   6.144   5.508   5.502
14076WAT     H242471   6.086   5.643   5.432
14077WAT      O42472   1.942   5.923   5.048
14077WAT     H142473   1.880   5.985   5.096
14077WAT     H242474   1.981   5.858   5.114
14078WAT      O42475   3.454   3.239   1.847
14078WAT     H142476   3.550   3.210   1.854
14078WAT     H242477   3.443   3.302   1.771
14079WAT      O42478   7.711   9.604   5.077
14079WAT     H142479   7.738   9.695   5.106
14079WAT     H242480   7.775   9.572   5.006
14080WAT      O42481   7.647   5.129   5.826
14080WAT     H142482   7.559   5.124   5.874
14080WAT     H242483   7.689   5.038   5.823
14081WAT      O42484   4.898   0.642   7.241
14081WAT     H142485   4.943   0.586   7.311
14081WAT     H242486   4.902   0.738   7.268
14082WAT      O42487   2.401   5.245   3.576
14082WAT     H142488   2.362   5.312   3.513
14082WAT     H242489   2.465   5.186   3.526
14083WAT      O42490   6.559   6.088   0.649
14083WAT     H142491   6.530   6.168   0.596
14083WAT     H242492   6.617   6.117   0.725
14084WAT      O42493   3.201   2.624   9.110
14084WAT     H142494   3.121   2.565   9.095
14084WAT     H242495   3.255   2.628   9.026
14085WAT      O42496   4.709   2.175   0.304
14085WAT     H142497   4.742   2.187   0.210
14085WAT     H242498   4.782   2.202   0.368
14086WAT      O42499   5.914   3.273   5.336
14086WAT     H142500   5.877   3.304   5.423
14086WAT     H242501   5.956   3.350   5.288
14087WAT      O42502   3.024   5.709   2.473
14087WAT     H142503   2.933   5.725   2.511
14087WAT     H242504   3.038   5.767   2.393
14088WAT      O42505   0.592   7.926   2.165
14088WAT     H142506   0.492   7.937   2.160
14088WAT     H242507   0.615   7.864   2.240
14089WAT      O42508   2.807   3.078   5.573
14089WAT     H142509   2.798   3.009   5.502
14089WAT     H242510   2.771   3.042   5.659
14090WAT      O42511   6.200   5.015   4.070
14090WAT     H142512   6.285   5.064   4.049
14090WAT     H242513   6.164   4.973   3.987
14091WAT      O42514   2.778   5.362   6.913
14091WAT     H142515   2.755   5.370   6.816
14091WAT     H242516   2.876   5.379   6.926
14092WAT      O42517   4.589   0.989   9.868
14092WAT     H142518   4.634   0.952   9.787
14092WAT     H242519   4.493   1.009   9.847
14093WAT      O42520   5.641   3.202   2.875
14093WAT     H142521   5.577   3.245   2.938
14093WAT     H242522   5.714   3.157   2.926
14094WAT      O42523   2.006   3.122   6.414
14094WAT     H142524   1.966   3.032   6.425
14094WAT     H242525   2.005   3.170   6.501
14095WAT      O42526   6.725   0.771   3.402
14095WAT     H142527   6.816   0.809   3.383
14095WAT     H242528   6.661   0.846   3.418
14096WAT      O42529   7.632   0.455   5.071
14096WAT     H142530   7.624   0.555   5.069
14096WAT     H242531   7.547   0.415   5.035
14097WAT      O42532   7.680   9.836   8.349
14097WAT     H142533   7.602   9.785   8.385
14097WAT     H242534   7.753   9.837   8.418
14098WAT      O42535   7.895   7.089   5.669
14098WAT     H142536   7.895   6.992   5.690
14098WAT     H242537   7.811   7.113   5.621
14099WAT      O42538   3.032   0.161   4.676
14099WAT     H142539   3.006   0.076   4.630
14099WAT     H242540   2.963   0.183   4.746
14100WAT      O42541   6.386   6.966   9.742
14100WAT     H142542   6.476   6.995   9.774
14100WAT     H242543   6.383   6.866   9.736
14101WAT      O42544   5.354   6.133   3.405
14101WAT     H142545   5.399   6.087   3.482
14101WAT     H242546   5.406   6.114   3.321
14102WAT      O42547   8.867   2.963   5.869
14102WAT     H142548   8.919   2.956   5.954
14102WAT     H242549   8.856   3.059   5.845
14103WAT      O42550   4.467   3.799   7.281
14103WAT     H142551   4.505   3.712   7.247
14103WAT     H242552   4.434   3.787   7.374
14104WAT      O42553   1.069   1.894   7.225
14104WAT     H142554   1.084   1.851   7.135
14104WAT     H242555   1.044   1.823   7.291
14105WAT      O42556   6.592   0.966   8.056
14105WAT     H142557   6.661   0.895   8.070
14105WAT     H242558   6.636   1.056   8.052
14106WAT      O42559   6.045   1.419   8.265
14106WAT     H142560   6.094   1.506   8.255
14106WAT     H242561   6.041   1.373   8.176
14107WAT      O42562   8.382   6.067   8.452
14107WAT     H142563   8.444   5.996   8.421
14107WAT     H242564   8.402   6.153   8.404
14108WAT      O42565   0.675   0.216   5.832
14108WAT     H142566   0.577   0.209   5.853
14108WAT     H242567   0.698   0.149   5.761
14109WAT      O42568   7.754   1.167   1.383
14109WAT     H142569   7.755   1.127   1.475
14109WAT     H242570   7.811   1.111   1.323
14110WAT      O42571   1.654   9.783   3.183
14110WAT     H142572   1.581   9.743   3.238
14110WAT     H242573   1.649   9.747   3.089
14111WAT      O42574   0.752   8.474   1.656
14111WAT     H142575   0.735   8.566   1.621
14111WAT     H242576   0.759   8.477   1.756
14112WAT      O42577   3.216   4.347   9.612
14112WAT     H142578   3.276   4.422   9.584
14112WAT     H242579   3.122   4.367   9.584
14113WAT      O42580   6.649   3.427   1.569
14113WAT     H142581   6.619   3.383   1.654
14113WAT     H242582   6.749   3.432   1.568
14114WAT      O42583   4.877   2.267   6.825
14114WAT     H142584   4.888   2.195   6.756
14114WAT     H242585   4.870   2.224   6.916
14115WAT      O42586   1.497   2.761   0.151
14115WAT     H142587   1.406   2.733   0.123
14115WAT     H242588   1.492   2.851   0.195
14116WAT      O42589   7.239   0.878   4.341
14116WAT     H142590   7.226   0.866   4.439
14116WAT     H242591   7.274   0.969   4.322
14117WAT      O42592   1.117   4.635   6.438
14117WAT     H142593   1.021   4.623   6.410
14117WAT     H242594   1.171   4.663   6.358
14118WAT      O42595   9.506   8.479   0.193
14118WAT     H142596   9.426   8.442   0.146
14118WAT     H242597   9.572   8.406   0.211
14119WAT      O42598   0.247   5.286   2.750
14119WAT     H142599   0.301   5.328   2.824
14119WAT     H242600   0.150   5.300   2.768
14120WAT      O42601   7.456   8.854   6.662
14120WAT     H142602   7.542   8.805   6.656
14120WAT     H242603   7.397   8.827   6.586
14121WAT      O42604   5.372   9.333   6.873
14121WAT     H142605   5.302   9.299   6.937
14121WAT     H242606   5.385   9.267   6.800
14122WAT      O42607   8.558   4.494   3.325
14122WAT     H142608   8.476   4.516   3.272
14122WAT     H242609   8.639   4.528   3.276
14123WAT      O42610   0.166   6.157   3.166
14123WAT     H142611   0.090   6.129   3.225
14123WAT     H242612   0.230   6.082   3.154
14124WAT      O42613   5.586   4.193   4.288
14124WAT     H142614   5.524   4.223   4.361
14124WAT     H242615   5.658   4.135   4.327
14125WAT      O42616   0.287   1.446   2.413
14125WAT     H142617   0.292   1.391   2.495
14125WAT     H242618   0.378   1.485   2.393
14126WAT      O42619   9.164   6.326   0.636
14126WAT     H142620   9.202   6.417   0.650
14126WAT     H242621   9.079   6.317   0.688
14127WAT      O42622   6.856   1.437   0.837
14127WAT     H142623   6.906   1.368   0.890
14127WAT     H242624   6.779   1.471   0.891
14128WAT      O42625   0.758   3.260   7.477
14128WAT     H142626   0.811   3.213   7.547
14128WAT     H242627   0.716   3.342   7.515
14129WAT      O42628   8.676   3.005   8.437
14129WAT     H142629   8.712   2.913   8.451
14129WAT     H242630   8.732   3.052   8.369
14130WAT      O42631   4.468   2.422   8.892
14130WAT     H142632   4.385   2.383   8.932
14130WAT     H242633   4.445   2.474   8.810
14131WAT      O42634   4.883   1.778   9.466
14131WAT     H142635   4.886   1.868   9.510
14131WAT     H242636   4.976   1.742   9.458
14132WAT      O42637   2.439   9.781   9.549
14132WAT     H142638   2.475   9.704   9.497
14132WAT     H242639   2.355   9.754   9.597
14133WAT      O42640   2.149   6.824   7.562
14133WAT     H142641   2.115   6.743   7.516
14133WAT     H242642   2.236   6.803   7.607
14134WAT      O42643   2.874   0.779   4.210
14134WAT     H142644   2.897   0.741   4.300
14134WAT     H242645   2.782   0.752   4.185
14135WAT      O42646   0.592   6.044   1.231
14135WAT     H142647   0.518   6.032   1.165
14135WAT     H242648   0.590   5.970   1.298
14136WAT      O42649   5.596   9.613   6.640
14136WAT     H142650   5.526   9.609   6.712
14136WAT     H242651   5.687   9.618   6.682
14137WAT      O42652   9.160   2.923   1.359
14137WAT     H142653   9.149   2.871   1.443
14137WAT     H242654   9.201   3.012   1.380
14138WAT      O42655   3.521   9.476   8.262
14138WAT     H142656   3.526   9.562   8.312
14138WAT     H242657   3.450   9.482   8.192
14139WAT      O42658   3.688   9.019   5.344
14139WAT     H142659   3.616   8.951   5.329
14139WAT     H242660   3.659   9.083   5.415
14140WAT      O42661   6.359   3.401   7.217
14140WAT     H142662   6.295   3.345   7.166
14140WAT     H242663   6.445   3.408   7.166
14141WAT      O42664   2.464   5.310   3.992
14141WAT     H142665   2.523   5.368   3.936
14141WAT     H242666   2.420   5.241   3.934
14142WAT      O42667   1.601   1.018   0.005
14142WAT     H142668   1.571   1.039  -0.087
14142WAT     H242669   1.664   0.940   0.003
14143WAT      O42670   3.245   4.182   0.117
14143WAT     H142671   3.335   4.214   0.087
14143WAT     H242672   3.226   4.217   0.209
14144WAT      O42673   2.505   6.137   8.116
14144WAT     H142674   2.438   6.138   8.191
14144WAT     H242675   2.598   6.135   8.155
14145WAT      O42676   4.358   6.396   5.592
14145WAT     H142677   4.436   6.341   5.624
14145WAT     H242678   4.273   6.348   5.612
14146WAT      O42679   3.575   5.523   2.738
14146WAT     H142680   3.578   5.471   2.653
14146WAT     H242681   3.648   5.491   2.799
14147WAT      O42682   6.379   6.011   2.699
14147WAT     H142683   6.389   6.049   2.791
14147WAT     H242684   6.308   6.062   2.650
14148WAT      O42685   8.072   4.297   0.853
14148WAT     H142686   8.019   4.285   0.938
14148WAT     H242687   8.162   4.335   0.875
14149WAT      O42688   6.799   4.305   0.358
14149WAT     H142689   6.701   4.296   0.346
14149WAT     H242690   6.836   4.370   0.292
14150WAT      O42691   5.995   5.198   4.180
14150WAT     H142692   6.027   5.115   4.134
14150WAT     H242693   6.052   5.276   4.153
14151WAT      O42694   0.487   2.731   7.536
14151WAT     H142695   0.562   2.699   7.593
14151WAT     H242696   0.509   2.715   7.440
14152WAT      O42697   9.057   5.684   4.779
14152WAT     H142698   9.022   5.685   4.685
14152WAT     H242699   9.155   5.663   4.777
14153WAT      O42700   7.208   9.472   4.728
14153WAT     H142701   7.134   9.530   4.763
14153WAT     H242702   7.255   9.519   4.653
14154WAT      O42703   6.014   2.439   6.091
14154WAT     H142704   5.984   2.356   6.045
14154WAT     H242705   6.005   2.428   6.190
14155WAT      O42706   4.239   2.019   5.814
14155WAT     H142707   4.205   2.050   5.726
14155WAT     H242708   4.234   1.919   5.819
14156WAT      O42709   6.927   3.649   8.039
14156WAT     H142710   7.009   3.672   8.091
14156WAT     H242711   6.930   3.696   7.951
14157WAT      O42712   6.525   3.637   8.306
14157WAT     H142713   6.511   3.701   8.382
14157WAT     H242714   6.566   3.553   8.340
14158WAT      O42715   4.602   8.657   2.600
14158WAT     H142716   4.580   8.739   2.653
14158WAT     H242717   4.640   8.685   2.512
14159WAT      O42718   5.235   8.012   7.939
14159WAT     H142719   5.141   8.034   7.913
14159WAT     H242720   5.299   8.060   7.879
14160WAT      O42721   5.840   3.568   1.842
14160WAT     H142722   5.865   3.569   1.745
14160WAT     H242723   5.741   3.577   1.850
14161WAT      O42724   4.851   7.373   0.995
14161WAT     H142725   4.771   7.384   0.936
14161WAT     H242726   4.931   7.352   0.938
14162WAT      O42727   8.422   7.006   2.437
14162WAT     H142728   8.430   6.989   2.535
14162WAT     H242729   8.481   7.083   2.412
14163WAT      O42730   1.897   9.488   5.489
14163WAT     H142731   1.868   9.584   5.486
14163WAT     H242732   1.816   9.429   5.480
14164WAT      O42733   1.899   9.235   6.922
14164WAT     H142734   1.836   9.300   6.965
14164WAT     H242735   1.851   9.149   6.906
14165WAT      O42736   8.082   3.890   2.217
14165WAT     H142737   8.124   3.844   2.295
14165WAT     H242738   8.081   3.988   2.233
14166WAT      O42739   4.511   2.916   2.163
14166WAT     H142740   4.497   2.905   2.065
14166WAT     H242741   4.607   2.935   2.181
14167WAT      O42742   2.261   0.510   2.261
14167WAT     H142743   2.361   0.502   2.267
14167WAT     H242744   2.233   0.599   2.296
14168WAT      O42745   1.429   5.775   4.430
14168WAT     H142746   1.478   5.687   4.432
14168WAT     H242747   1.476   5.841   4.489
14169WAT      O42748   6.019   6.383   1.897
14169WAT     H142749   5.958   6.458   1.873
14169WAT     H242750   5.969   6.317   1.954
14170WAT      O42751   3.667   0.057   2.861
14170WAT     H142752   3.573   0.062   2.894
14170WAT     H242753   3.730   0.082   2.936
14171WAT      O42754   6.179   8.011   5.988
14171WAT     H142755   6.115   8.018   6.065
14171WAT     H242756   6.170   7.920   5.946
14172WAT      O42757   0.484   9.296   3.215
14172WAT     H142758   0.410   9.237   3.184
14172WAT     H242759   0.520   9.261   3.302
14173WAT      O42760   3.389   3.542   0.678
14173WAT     H142761   3.313   3.561   0.741
14173WAT     H242762   3.443   3.466   0.714
14174WAT      O42763   4.268   0.814   9.850
14174WAT     H142764   4.179   0.779   9.820
14174WAT     H242765   4.314   0.859   9.774
14175WAT      O42766   2.473   0.917   0.458
14175WAT     H142767   2.411   0.841   0.439
14175WAT     H242768   2.460   0.988   0.388
14176WAT      O42769   9.375   4.509   6.480
14176WAT     H142770   9.391   4.592   6.426
14176WAT     H242771   9.411   4.430   6.430
14177WAT      O42772   7.179   1.667   4.905
14177WAT     H142773   7.167   1.618   4.819
14177WAT     H242774   7.275   1.661   4.933
14178WAT      O42775   5.407   6.241   1.910
14178WAT     H142776   5.350   6.311   1.953
14178WAT     H242777   5.349   6.176   1.861
14179WAT      O42778   1.239   0.992   4.103
14179WAT     H142779   1.204   0.913   4.153
14179WAT     H242780   1.209   1.076   4.149
14180WAT      O42781   1.547   0.602   1.351
14180WAT     H142782   1.503   0.516   1.324
14180WAT     H242783   1.494   0.679   1.315
14181WAT      O42784   3.132   2.933   7.760
14181WAT     H142785   3.079   2.849   7.769
14181WAT     H242786   3.174   2.937   7.669
14182WAT      O42787   0.665   5.771   9.887
14182WAT     H142788   0.753   5.818   9.877
14182WAT     H242789   0.657   5.735   9.980
14183WAT      O42790   8.772   6.749   6.477
14183WAT     H142791   8.690   6.770   6.424
14183WAT     H242792   8.826   6.832   6.489
14184WAT      O42793   2.561   8.127   8.105
14184WAT     H142794   2.612   8.051   8.064
14184WAT     H242795   2.561   8.117   8.205
14185WAT      O42796   3.356   9.254   6.242
14185WAT     H142797   3.394   9.320   6.307
14185WAT     H242798   3.333   9.170   6.290
14186WAT      O42799   6.077   7.530   3.635
14186WAT     H142800   6.050   7.627   3.639
14186WAT     H242801   6.174   7.523   3.654
14187WAT      O42802   4.960   1.526   2.811
14187WAT     H142803   4.932   1.597   2.876
14187WAT     H242804   4.905   1.534   2.728
14188WAT      O42805   9.383   3.621   2.013
14188WAT     H142806   9.391   3.523   2.031
14188WAT     H242807   9.302   3.639   1.957
14189WAT      O42808   4.079   9.719   4.888
14189WAT     H142809   3.992   9.767   4.904
14189WAT     H242810   4.061   9.635   4.838
14190WAT      O42811   0.150   1.852   0.395
14190WAT     H142812   0.114   1.945   0.388
14190WAT     H242813   0.182   1.836   0.488
14191WAT      O42814   3.238   6.712   4.165
14191WAT     H142815   3.338   6.721   4.157
14191WAT     H242816   3.211   6.621   4.133
14192WAT      O42817   8.984   8.617   2.717
14192WAT     H142818   8.945   8.704   2.685
14192WAT     H242819   9.076   8.605   2.679
14193WAT      O42820   2.911   6.268   5.692
14193WAT     H142821   2.867   6.233   5.775
14193WAT     H242822   2.926   6.366   5.702
14194WAT      O42823   5.715   6.577   4.127
14194WAT     H142824   5.761   6.635   4.060
14194WAT     H242825   5.645   6.522   4.081
14195WAT      O42826   3.122   8.998   6.465
14195WAT     H142827   3.090   9.093   6.470
14195WAT     H242828   3.093   8.950   6.548
14196WAT      O42829   2.160   3.734   3.932
14196WAT     H142830   2.116   3.645   3.941
14196WAT     H242831   2.102   3.805   3.973
14197WAT      O42832   9.646   5.090   0.276
14197WAT     H142833   9.580   5.056   0.208
14197WAT     H242834   9.596   5.133   0.351
14198WAT      O42835   7.897   1.691   9.330
14198WAT     H142836   7.936   1.670   9.241
14198WAT     H242837   7.899   1.790   9.345
14199WAT      O42838   2.805   2.522   9.861
14199WAT     H142839   2.824   2.426   9.840
14199WAT     H242840   2.706   2.537   9.863
14200WAT      O42841   2.818   4.025   9.390
14200WAT     H142842   2.904   4.064   9.423
14200WAT     H242843   2.747   4.035   9.459
14201WAT      O42844   7.167   3.717   3.844
14201WAT     H142845   7.092   3.682   3.898
14201WAT     H242846   7.131   3.760   3.760
14202WAT      O42847   5.707   3.283   0.835
14202WAT     H142848   5.649   3.332   0.900
14202WAT     H242849   5.652   3.251   0.759
14203WAT      O42850   6.413   7.271   5.067
14203WAT     H142851   6.488   7.214   5.102
14203WAT     H242852   6.431   7.295   4.972
14204WAT      O42853   7.670   8.232   1.356
14204WAT     H142854   7.607   8.286   1.411
14204WAT     H242855   7.764   8.256   1.380
14205WAT      O42856   0.239   1.575   9.014
14205WAT     H142857   0.260   1.485   9.052
14205WAT     H242858   0.320   1.612   8.970
14206WAT      O42859   2.656   9.618   2.286
14206WAT     H142860   2.740   9.566   2.272
14206WAT     H242861   2.615   9.591   2.374
14207WAT      O42862   4.680   5.015   6.684
14207WAT     H142863   4.659   4.936   6.627
14207WAT     H242864   4.614   5.088   6.665
14208WAT      O42865   3.372   0.496   5.271
14208WAT     H142866   3.286   0.459   5.237
14208WAT     H242867   3.361   0.592   5.295
14209WAT      O42868   1.184   8.747   2.641
14209WAT     H142869   1.111   8.679   2.639
14209WAT     H242870   1.210   8.771   2.548
14210WAT      O42871   9.326   0.895   6.655
14210WAT     H142872   9.251   0.949   6.694
14210WAT     H242873   9.296   0.853   6.569
14211WAT      O42874   7.891   9.764   7.244
14211WAT     H142875   7.920   9.669   7.249
14211WAT     H242876   7.824   9.782   7.317
14212WAT      O42877   6.024   9.662   7.809
14212WAT     H142878   6.111   9.613   7.817
14212WAT     H242879   6.041   9.758   7.785
14213WAT      O42880   0.771   8.404   1.918
14213WAT     H142881   0.731   8.488   1.954
14213WAT     H242882   0.721   8.325   1.953
14214WAT      O42883   7.432   5.224   4.365
14214WAT     H142884   7.491   5.250   4.441
14214WAT     H242885   7.469   5.142   4.321
14215WAT      O42886   3.268   3.410   4.551
14215WAT     H142887   3.332   3.335   4.568
14215WAT     H242888   3.313   3.497   4.570
14216WAT      O42889   4.490   7.761   6.978
14216WAT     H142890   4.484   7.718   6.888
14216WAT     H242891   4.581   7.746   7.017
14217WAT      O42892   9.357   1.689   2.979
14217WAT     H142893   9.389   1.664   2.887
14217WAT     H242894   9.281   1.754   2.971
14218WAT      O42895   0.080   7.498   0.501
14218WAT     H142896   0.108   7.465   0.410
14218WAT     H242897   0.161   7.512   0.557
14219WAT      O42898   8.307   7.961   5.923
14219WAT     H142899   8.339   7.868   5.901
14219WAT     H242900   8.383   8.013   5.963
14220WAT      O42901   5.326   0.203   1.042
14220WAT     H142902   5.276   0.121   1.014
14220WAT     H242903   5.274   0.284   1.015
14221WAT      O42904   5.569   1.565   2.823
14221WAT     H142905   5.513   1.500   2.873
14221WAT     H242906   5.512   1.641   2.792
14222WAT      O42907   4.874   1.724   1.755
14222WAT     H142908   4.953   1.682   1.709
14222WAT     H242909   4.795   1.664   1.746
14223WAT      O42910   8.712   4.397   9.510
14223WAT     H142911   8.630   4.389   9.567
14223WAT     H242912   8.764   4.477   9.538
14224WAT      O42913   8.667   5.073   5.819
14224WAT     H142914   8.663   4.994   5.880
14224WAT     H242915   8.684   5.155   5.872
14225WAT      O42916   5.706   9.120   5.011
14225WAT     H142917   5.777   9.179   5.049
14225WAT     H242918   5.721   9.026   5.040
14226WAT      O42919   4.779   4.285   7.477
14226WAT     H142920   4.835   4.350   7.425
14226WAT     H242921   4.741   4.331   7.557
14227WAT      O42922   1.906   6.351   4.043
14227WAT     H142923   1.901   6.331   4.141
14227WAT     H242924   1.848   6.430   4.023
14228WAT      O42925   6.165   2.117   9.345
14228WAT     H142926   6.208   2.177   9.412
14228WAT     H242927   6.156   2.165   9.258
14229WAT      O42928   3.357   9.719   1.056
14229WAT     H142929   3.388   9.774   1.134
14229WAT     H242930   3.421   9.643   1.042
14230WAT      O42931   2.343   1.273   6.546
14230WAT     H142932   2.252   1.314   6.534
14230WAT     H242933   2.377   1.295   6.637
14231WAT      O42934   3.483   3.989   8.684
14231WAT     H142935   3.399   4.029   8.720
14231WAT     H242936   3.559   4.052   8.700
14232WAT      O42937   0.942   5.238   3.532
14232WAT     H142938   1.039   5.252   3.512
14232WAT     H242939   0.932   5.164   3.598
14233WAT      O42940   6.299   8.837   5.884
14233WAT     H142941   6.343   8.896   5.953
14233WAT     H242942   6.243   8.769   5.929
14234WAT      O42943   0.082   2.931   8.554
14234WAT     H142944   0.038   2.859   8.608
14234WAT     H242945   0.038   3.018   8.575
14235WAT      O42946   7.903   5.821   0.400
14235WAT     H142947   7.899   5.914   0.363
14235WAT     H242948   7.933   5.758   0.329
14236WAT      O42949   1.286   7.035   4.836
14236WAT     H142950   1.374   7.069   4.803
14236WAT     H242951   1.293   7.013   4.933
14237WAT      O42952   4.534   3.690   5.354
14237WAT     H142953   4.597   3.721   5.283
14237WAT     H242954   4.475   3.766   5.382
14238WAT      O42955   7.500   5.466   6.782
14238WAT     H142956   7.423   5.403   6.768
14238WAT     H242957   7.476   5.531   6.854
14239WAT      O42958   5.486   6.266   6.257
14239WAT     H142959   5.473   6.172   6.288
14239WAT     H242960   5.463   6.273   6.160
14240WAT      O42961   3.105   1.151   3.712
14240WAT     H142962   3.182   1.087   3.708
14240WAT     H242963   3.028   1.114   3.660
14241WAT      O42964   2.909   4.261   0.241
14241WAT     H142965   2.926   4.292   0.148
14241WAT     H242966   2.895   4.341   0.300
14242WAT      O42967   6.540   8.286   2.030
14242WAT     H142968   6.511   8.295   1.935
14242WAT     H242969   6.640   8.280   2.034
14243WAT      O42970   2.906   7.679   8.805
14243WAT     H142971   2.987   7.678   8.864
14243WAT     H242972   2.840   7.612   8.839
14244WAT      O42973   3.243   7.023   2.413
14244WAT     H142974   3.162   7.074   2.384
14244WAT     H242975   3.216   6.930   2.437
14245WAT      O42976   5.182   7.721   1.354
14245WAT     H142977   5.121   7.784   1.403
14245WAT     H242978   5.192   7.637   1.407
14246WAT      O42979   7.768   4.002   5.814
14246WAT     H142980   7.739   4.094   5.790
14246WAT     H242981   7.868   3.997   5.812
14247WAT      O42982   9.111   2.757   4.527
14247WAT     H142983   9.050   2.800   4.593
14247WAT     H242984   9.058   2.695   4.468
14248WAT      O42985   1.310   0.957   6.367
14248WAT     H142986   1.247   0.936   6.293
14248WAT     H242987   1.387   1.010   6.332
14249WAT      O42988   0.220   1.393   3.496
14249WAT     H142989   0.240   1.488   3.474
14249WAT     H242990   0.121   1.379   3.496
14250WAT      O42991   0.581   3.876   5.947
14250WAT     H142992   0.673   3.864   5.910
14250WAT     H242993   0.530   3.790   5.938
14251WAT      O42994   9.564   6.083   8.845
14251WAT     H142995   9.562   6.025   8.764
14251WAT     H242996   9.539   6.029   8.925
14252WAT      O42997   6.508   4.543   9.371
14252WAT     H142998   6.461   4.472   9.319
14252WAT     H242999   6.590   4.571   9.322
14253WAT      O43000   2.693   7.600   3.008
14253WAT     H143001   2.769   7.537   2.993
14253WAT     H243002   2.681   7.615   3.106
14254WAT      O43003   8.332   9.524   2.379
14254WAT     H143004   8.256   9.493   2.322
14254WAT     H243005   8.298   9.547   2.470
14255WAT      O43006   9.307   5.990   9.513
14255WAT     H143007   9.305   5.931   9.593
14255WAT     H243008   9.217   6.032   9.500
14256WAT      O43009   4.044   4.121   8.750
14256WAT     H143010   3.994   4.208   8.760
14256WAT     H243011   3.981   4.049   8.723
14257WAT      O43012   2.176   7.236   4.479
14257WAT     H143013   2.217   7.166   4.420
14257WAT     H243014   2.082   7.254   4.450
14258WAT      O43015   1.353   3.378   1.434
14258WAT     H143016   1.447   3.387   1.399
14258WAT     H243017   1.306   3.307   1.383
14259WAT      O43018   9.663   1.079   8.181
14259WAT     H143019   9.625   1.169   8.201
14259WAT     H243020   9.743   1.062   8.238
14260WAT      O43021   0.846   8.891   4.123
14260WAT     H143022   0.889   8.845   4.201
14260WAT     H243023   0.749   8.867   4.119
14261WAT      O43024   8.791   9.334   4.320
14261WAT     H143025   8.859   9.292   4.260
14261WAT     H243026   8.718   9.375   4.266
14262WAT      O43027   2.276   9.079   3.364
14262WAT     H143028   2.359   9.074   3.308
14262WAT     H243029   2.196   9.058   3.307
14263WAT      O43030   7.326   8.741   2.155
14263WAT     H143031   7.268   8.669   2.194
14263WAT     H243032   7.406   8.753   2.214
14264WAT      O43033   1.452   1.217   8.883
14264WAT     H143034   1.494   1.127   8.876
14264WAT     H243035   1.402   1.224   8.970
14265WAT      O43036   9.784   7.689   3.456
14265WAT     H143037   9.822   7.597   3.459
14265WAT     H243038   9.764   7.714   3.361
14266WAT      O43039   5.142   9.199   5.803
14266WAT     H143040   5.080   9.276   5.784
14266WAT     H243041   5.143   9.180   5.901
14267WAT      O43042   8.504   6.741   8.616
14267WAT     H143043   8.453   6.802   8.556
14267WAT     H243044   8.601   6.763   8.611
14268WAT      O43045   3.887   9.066   6.382
14268WAT     H143046   3.934   9.084   6.468
14268WAT     H243047   3.911   8.975   6.349
14269WAT      O43048   7.863   7.512   0.145
14269WAT     H143049   7.790   7.457   0.186
14269WAT     H243050   7.823   7.588   0.095
14270WAT      O43051   7.244   7.509   6.534
14270WAT     H143052   7.238   7.603   6.567
14270WAT     H243053   7.255   7.447   6.612
14271WAT      O43054   2.593   1.110   4.994
14271WAT     H143055   2.649   1.189   4.969
14271WAT     H243056   2.498   1.139   5.004
14272WAT      O43057   8.639   3.513   9.853
14272WAT     H143058   8.586   3.471   9.779
14272WAT     H243059   8.589   3.591   9.890
14273WAT      O43060   9.066   9.111   0.085
14273WAT     H143061   9.119   9.146   0.008
14273WAT     H243062   9.118   9.039   0.131
14274WAT      O43063   0.826   1.646   3.316
14274WAT     H143064   0.810   1.680   3.409
14274WAT     H243065   0.908   1.691   3.278
14275WAT      O43066   0.901   4.489   8.863
14275WAT     H143067   0.962   4.568   8.871
14275WAT     H243068   0.866   4.465   8.954
14276WAT      O43069   4.465   2.334   7.876
14276WAT     H143070   4.488   2.396   7.951
14276WAT     H243071   4.520   2.355   7.796
14277WAT      O43072   6.926   0.763   5.548
14277WAT     H143073   6.894   0.854   5.575
14277WAT     H243074   6.934   0.706   5.630
14278WAT      O43075   7.204   7.866   6.660
14278WAT     H143076   7.276   7.924   6.698
14278WAT     H243077   7.191   7.786   6.719
14279WAT      O43078   1.002   3.722   0.694
14279WAT     H143079   0.966   3.629   0.691
14279WAT     H243080   1.009   3.752   0.789
14280WAT      O43081   3.217   1.867   3.342
14280WAT     H143082   3.228   1.913   3.254
14280WAT     H243083   3.213   1.935   3.415
14281WAT      O43084   5.315   3.225   0.569
14281WAT     H143085   5.249   3.164   0.527
14281WAT     H243086   5.292   3.238   0.665
14282WAT      O43087   4.812   1.412   6.718
14282WAT     H143088   4.879   1.480   6.689
14282WAT     H243089   4.732   1.417   6.659
14283WAT      O43090   7.352   9.405   5.672
14283WAT     H143091   7.298   9.429   5.753
14283WAT     H243092   7.449   9.410   5.694
14284WAT      O43093   1.450   5.826   9.372
14284WAT     H143094   1.466   5.746   9.431
14284WAT     H243095   1.453   5.909   9.427
14285WAT      O43096   2.605   0.071   9.713
14285WAT     H143097   2.529   0.122   9.754
14285WAT     H243098   2.570   0.011   9.641
14286WAT      O43099   7.363   4.879   8.044
14286WAT     H143100   7.330   4.786   8.032
14286WAT     H243101   7.318   4.921   8.123
14287WAT      O43102   5.791   8.158   4.563
14287WAT     H143103   5.720   8.179   4.630
14287WAT     H243104   5.793   8.059   4.548
14288WAT      O43105   4.915   1.772   3.600
14288WAT     H143106   4.900   1.787   3.502
14288WAT     H243107   4.986   1.835   3.632
14289WAT      O43108   3.688   1.312   3.014
14289WAT     H143109   3.714   1.332   2.919
14289WAT     H243110   3.612   1.371   3.040
14290WAT      O43111   1.247   1.758   6.723
14290WAT     H143112   1.263   1.666   6.686
14290WAT     H243113   1.329   1.814   6.709
14291WAT      O43114   1.344   8.887   9.291
14291WAT     H143115   1.342   8.872   9.390
14291WAT     H243116   1.417   8.952   9.269
14292WAT      O43117   4.090   4.101   0.685
14292WAT     H143118   4.187   4.123   0.697
14292WAT     H243119   4.073   4.075   0.590
14293WAT      O43120   6.027   3.728   1.434
14293WAT     H143121   6.078   3.659   1.383
14293WAT     H243122   6.071   3.817   1.423
14294WAT      O43123   6.574   4.342   8.238
14294WAT     H143124   6.663   4.306   8.266
14294WAT     H243125   6.529   4.384   8.317
14295WAT      O43126   8.506   7.299   5.711
14295WAT     H143127   8.587   7.333   5.758
14295WAT     H243128   8.533   7.231   5.643
14296WAT      O43129   7.626   7.523   3.132
14296WAT     H143130   7.696   7.590   3.159
14296WAT     H243131   7.597   7.541   3.038
14297WAT      O43132   5.767   7.666   8.328
14297WAT     H143133   5.732   7.573   8.341
14297WAT     H243134   5.857   7.673   8.370
14298WAT      O43135   3.808   4.916   7.170
14298WAT     H143136   3.885   4.852   7.168
14298WAT     H243137   3.769   4.923   7.078
14299WAT      O43138   8.132   0.264   8.366
14299WAT     H143139   8.171   0.356   8.373
14299WAT     H243140   8.039   0.264   8.405
14300WAT      O43141   2.966   1.146   9.422
14300WAT     H143142   2.951   1.049   9.444
14300WAT     H243143   2.899   1.176   9.355
14301WAT      O43144   3.024   9.242   7.185
14301WAT     H143145   3.014   9.143   7.182
14301WAT     H243146   2.940   9.284   7.219
14302WAT      O43147   3.443   1.122   2.743
14302WAT     H143148   3.379   1.056   2.703
14302WAT     H243149   3.398   1.169   2.819
14303WAT      O43150   8.777   1.099   2.758
14303WAT     H143151   8.693   1.068   2.803
14303WAT     H243152   8.845   1.025   2.760
14304WAT      O43153   2.234   7.595   2.935
14304WAT     H143154   2.235   7.676   2.994
14304WAT     H243155   2.297   7.609   2.859
14305WAT      O43156   1.039   9.093   9.238
14305WAT     H143157   1.106   9.109   9.310
14305WAT     H243158   0.975   9.022   9.267
14306WAT      O43159   2.325   0.056   4.156
14306WAT     H143160   2.400  -0.002   4.188
14306WAT     H243161   2.352   0.101   4.071
14307WAT      O43162   4.252   8.200   7.720
14307WAT     H143163   4.188   8.124   7.724
14307WAT     H243164   4.271   8.232   7.813
14308WAT      O43165   0.680   9.260   5.548
14308WAT     H143166   0.677   9.348   5.502
14308WAT     H243167   0.719   9.191   5.487
14309WAT      O43168   0.823   2.510   3.913
14309WAT     H143169   0.855   2.514   3.818
14309WAT     H243170   0.871   2.580   3.967
14310WAT      O43171   8.557   2.849   1.263
14310WAT     H143172   8.635   2.877   1.319
14310WAT     H243173   8.571   2.881   1.169
14311WAT      O43174   9.465   2.491   1.278
14311WAT     H143175   9.530   2.519   1.207
14311WAT     H243176   9.402   2.566   1.297
14312WAT      O43177   7.858   6.922   1.703
14312WAT     H143178   7.775   6.886   1.661
14312WAT     H243179   7.930   6.927   1.634
14313WAT      O43180   9.006   2.293   4.712
14313WAT     H143181   8.962   2.220   4.659
14313WAT     H243182   8.958   2.379   4.697
14314WAT      O43183   1.375   1.194   9.147
14314WAT     H143184   1.388   1.103   9.185
14314WAT     H243185   1.290   1.233   9.183
14315WAT      O43186   7.317   0.160   7.794
14315WAT     H143187   7.334   0.138   7.890
14315WAT     H243188   7.359   0.089   7.737
14316WAT      O43189   4.426   6.177   2.434
14316WAT     H143190   4.492   6.210   2.502
14316WAT     H243191   4.403   6.082   2.453
14317WAT      O43192   1.421   7.645   7.620
14317WAT     H143193   1.466   7.654   7.709
14317WAT     H243194   1.331   7.687   7.624
14318WAT      O43195   9.598   3.216   4.124
14318WAT     H143196   9.629   3.129   4.162
14318WAT     H243197   9.504   3.234   4.153
14319WAT      O43198   6.846   6.841   9.655
14319WAT     H143199   6.916   6.771   9.640
14319WAT     H243200   6.859   6.916   9.590
14320WAT      O43201   3.643   1.211   4.282
14320WAT     H143202   3.712   1.260   4.335
14320WAT     H243203   3.564   1.191   4.339
14321WAT      O43204   2.682   8.686   1.796
14321WAT     H143205   2.634   8.643   1.873
14321WAT     H243206   2.677   8.786   1.806
14322WAT      O43207   5.603   7.391   5.230
14322WAT     H143208   5.610   7.484   5.267
14322WAT     H243209   5.561   7.331   5.298
14323WAT      O43210   8.580   6.681   4.757
14323WAT     H143211   8.644   6.705   4.829
14323WAT     H243212   8.513   6.616   4.792
14324WAT      O43213   4.885   3.584   6.391
14324WAT     H143214   4.846   3.512   6.333
14324WAT     H243215   4.965   3.623   6.347
14325WAT      O43216   6.316   0.874   8.108
14325WAT     H143217   6.407   0.914   8.106
14325WAT     H243218   6.265   0.902   8.027
14326WAT      O43219   4.308   8.082   1.538
14326WAT     H143220   4.344   8.151   1.475
14326WAT     H243221   4.299   7.995   1.490
14327WAT      O43222   4.581   0.411   8.273
14327WAT     H143223   4.512   0.484   8.276
14327WAT     H243224   4.640   0.425   8.194
14328WAT      O43225   6.977   6.026   2.544
14328WAT     H143226   7.023   6.023   2.633
14328WAT     H243227   6.885   6.062   2.555
14329WAT      O43228   7.880   5.699   7.210
14329WAT     H143229   7.945   5.714   7.284
14329WAT     H243230   7.822   5.779   7.200
14330WAT      O43231   0.962   6.797   8.676
14330WAT     H143232   1.034   6.857   8.710
14330WAT     H243233   0.999   6.737   8.605
14331WAT      O43234   5.273   5.359   5.292
14331WAT     H143235   5.365   5.392   5.269
14331WAT     H243236   5.207   5.433   5.282
14332WAT      O43237   3.079   5.460   2.321
14332WAT     H143238   3.057   5.507   2.407
14332WAT     H243239   3.155   5.397   2.337
14333WAT      O43240   9.738   3.357   9.638
14333WAT     H143241   9.734   3.274   9.583
14333WAT     H243242   9.807   3.419   9.601
14334WAT      O43243   1.305   6.003   4.784
14334WAT     H143244   1.324   6.079   4.846
14334WAT     H243245   1.381   5.991   4.721
14335WAT      O43246   1.315   4.888   7.895
14335WAT     H143247   1.309   4.910   7.992
14335WAT     H243248   1.306   4.789   7.883
14336WAT      O43249   1.458   5.998   3.493
14336WAT     H143250   1.458   6.098   3.487
14336WAT     H243251   1.447   5.960   3.401
14337WAT      O43252   1.739   5.281   2.197
14337WAT     H143253   1.640   5.292   2.197
14337WAT     H243254   1.762   5.184   2.195
14338WAT      O43255   8.918   1.030   7.647
14338WAT     H143256   8.900   1.116   7.599
14338WAT     H243257   8.964   1.049   7.734
14339WAT      O43258   8.706   2.175   8.489
14339WAT     H143259   8.703   2.181   8.389
14339WAT     H243260   8.775   2.108   8.517
14340WAT      O43261   4.050   5.957   9.046
14340WAT     H143262   4.042   5.956   9.146
14340WAT     H243263   3.959   5.969   9.005
14341WAT      O43264   3.648   7.192   2.960
14341WAT     H143265   3.653   7.126   3.035
14341WAT     H243266   3.694   7.155   2.880
14342WAT      O43267   3.421   0.078   1.231
14342WAT     H143268   3.483   0.129   1.171
14342WAT     H243269   3.474   0.022   1.295
14343WAT      O43270   1.827   6.794   0.787
14343WAT     H143271   1.773   6.826   0.710
14343WAT     H243272   1.801   6.844   0.870
14344WAT      O43273   5.560   8.225   4.788
14344WAT     H143274   5.489   8.295   4.794
14344WAT     H243275   5.622   8.234   4.867
14345WAT      O43276   5.993   6.183   4.988
14345WAT     H143277   6.071   6.122   4.996
14345WAT     H243278   5.922   6.140   4.931
14346WAT      O43279   1.624   8.799   2.940
14346WAT     H143280   1.641   8.894   2.917
14346WAT     H243281   1.552   8.762   2.882
14347WAT      O43282   9.617   9.382   3.273
14347WAT     H143283   9.547   9.373   3.201
14347WAT     H243284   9.630   9.478   3.294
14348WAT      O43285   7.354   7.952   6.194
14348WAT     H143286   7.454   7.959   6.197
14348WAT     H243287   7.316   7.970   6.285
14349WAT      O43288   7.524   0.966   1.349
14349WAT     H143289   7.559   0.915   1.427
14349WAT     H243290   7.576   1.050   1.337
14350WAT      O43291   6.389   5.088   5.247
14350WAT     H143292   6.313   5.108   5.185
14350WAT     H243293   6.358   5.094   5.341
14351WAT      O43294   8.816   2.177   0.613
14351WAT     H143295   8.766   2.106   0.662
14351WAT     H243296   8.910   2.183   0.649
14352WAT      O43297   6.148   6.223   9.021
14352WAT     H143298   6.099   6.235   8.935
14352WAT     H243299   6.096   6.264   9.095
14353WAT      O43300   1.976   7.314   8.074
14353WAT     H143301   2.068   7.276   8.087
14353WAT     H243302   1.910   7.259   8.126
14354WAT      O43303   4.989   8.417   8.472
14354WAT     H143304   4.983   8.338   8.533
14354WAT     H243305   5.062   8.478   8.504
14355WAT      O43306   2.711   9.670   1.410
14355WAT     H143307   2.681   9.628   1.324
14355WAT     H243308   2.803   9.638   1.433
14356WAT      O43309   7.515   9.767   9.444
14356WAT     H143310   7.520   9.682   9.498
14356WAT     H243311   7.425   9.809   9.458
14357WAT      O43312   2.756   6.319   3.324
14357WAT     H143313   2.687   6.388   3.345
14357WAT     H243314   2.745   6.241   3.385
14358WAT      O43315   5.858   6.950   9.806
14358WAT     H143316   5.945   6.905   9.786
14358WAT     H243317   5.784   6.884   9.797
14359WAT      O43318   5.530   9.549   3.554
14359WAT     H143319   5.623   9.550   3.519
14359WAT     H243320   5.478   9.625   3.514
14360WAT      O43321   0.920   3.142   1.041
14360WAT     H143322   0.932   3.051   1.080
14360WAT     H243323   0.968   3.209   1.097
14361WAT      O43324   9.177   6.821   6.509
14361WAT     H143325   9.114   6.745   6.499
14361WAT     H243326   9.191   6.865   6.420
14362WAT      O43327   2.109   0.122   2.168
14362WAT     H143328   2.090   0.212   2.208
14362WAT     H243329   2.189   0.082   2.212
14363WAT      O43330   5.597   7.673   3.160
14363WAT     H143331   5.640   7.692   3.072
14363WAT     H243332   5.611   7.577   3.185
14364WAT      O43333   0.542   4.901   0.424
14364WAT     H143334   0.537   4.819   0.481
14364WAT     H243335   0.481   4.891   0.346
14365WAT      O43336   2.720   6.557   5.900
14365WAT     H143337   2.803   6.542   5.845
14365WAT     H243338   2.746   6.584   5.993
14366WAT      O43339   6.813   3.422   9.369
14366WAT     H143340   6.886   3.426   9.437
14366WAT     H243341   6.850   3.440   9.278
14367WAT      O43342   3.503   4.372   3.236
14367WAT     H143343   3.503   4.428   3.318
14367WAT     H243344   3.490   4.430   3.156
14368WAT      O43345   9.744   6.677   9.307
14368WAT     H143346   9.837   6.661   9.340
14368WAT     H243347   9.685   6.704   9.383
14369WAT      O43348   9.697   2.187   5.579
14369WAT     H143349   9.604   2.174   5.544
14369WAT     H243350   9.713   2.123   5.655
14370WAT      O43351   3.470   5.107   9.731
14370WAT     H143352   3.460   5.017   9.690
14370WAT     H243353   3.566   5.124   9.753
14371WAT      O43354   4.214   8.596   3.504
14371WAT     H143355   4.209   8.539   3.586
14371WAT     H243356   4.221   8.537   3.423
14372WAT      O43357   3.597   1.276   9.457
14372WAT     H143358   3.541   1.292   9.538
14372WAT     H243359   3.688   1.315   9.470
14373WAT      O43360   5.673   8.811   7.648
14373WAT     H143361   5.624   8.833   7.563
14373WAT     H243362   5.716   8.893   7.683
14374WAT      O43363   1.658   8.839   8.963
14374WAT     H143364   1.620   8.785   8.888
14374WAT     H243365   1.607   8.925   8.972
14375WAT      O43366   7.030   4.152   0.961
14375WAT     H143367   7.043   4.162   1.059
14375WAT     H243368   7.114   4.179   0.913
14376WAT      O43369   5.943   1.486   1.103
14376WAT     H143370   5.948   1.502   1.004
14376WAT     H243371   5.853   1.450   1.126
14377WAT      O43372   9.492   7.308   1.665
14377WAT     H143373   9.398   7.341   1.664
14377WAT     H243374   9.514   7.271   1.755
14378WAT      O43375   8.828   8.950   4.004
14378WAT     H143376   8.746   8.972   3.951
14378WAT     H243377   8.909   8.973   3.950
14379WAT      O43378   4.939   7.212   4.329
14379WAT     H143379   4.924   7.217   4.230
14379WAT     H243380   4.922   7.302   4.370
14380WAT      O43381   0.595   5.595   0.576
14380WAT     H143382   0.627   5.608   0.669
14380WAT     H243383   0.649   5.524   0.532
14381WAT      O43384   5.741   1.110   2.801
14381WAT     H143385   5.701   1.201   2.790
14381WAT     H243386   5.680   1.053   2.856
14382WAT      O43387   6.601   0.744   1.954
14382WAT     H143388   6.576   0.841   1.945
14382WAT     H243389   6.609   0.703   1.864
14383WAT      O43390   5.110   7.922   0.875
14383WAT     H143391   5.153   7.873   0.950
14383WAT     H243392   5.081   8.012   0.906
14384WAT      O43393   8.176   6.097   2.462
14384WAT     H143394   8.092   6.097   2.408
14384WAT     H243395   8.237   6.025   2.428
14385WAT      O43396   6.870   7.794   2.976
14385WAT     H143397   6.961   7.757   2.955
14385WAT     H243398   6.810   7.719   3.005
14386WAT      O43399   3.984   4.072   0.932
14386WAT     H143400   4.026   4.084   0.842
14386WAT     H243401   3.887   4.096   0.926
14387WAT      O43402   5.891   0.825   2.949
14387WAT     H143403   5.980   0.793   2.982
14387WAT     H243404   5.904   0.871   2.861
14388WAT      O43405   9.854   0.119   1.478
14388WAT     H143406   9.876   0.207   1.435
14388WAT     H243407   9.911   0.047   1.436
14389WAT      O43408   6.424   8.602   2.422
14389WAT     H143409   6.495   8.581   2.489
14389WAT     H243410   6.452   8.568   2.332
14390WAT      O43411   4.960   2.738   3.966
14390WAT     H143412   4.993   2.778   4.052
14390WAT     H243413   5.003   2.784   3.889
14391WAT      O43414   8.631   2.538   3.593
14391WAT     H143415   8.653   2.567   3.500
14391WAT     H243416   8.711   2.495   3.635
14392WAT      O43417   7.160   2.800   6.153
14392WAT     H143418   7.063   2.778   6.151
14392WAT     H243419   7.207   2.751   6.079
14393WAT      O43420   6.466   6.103   2.967
14393WAT     H143421   6.492   6.044   3.044
14393WAT     H243422   6.543   6.111   2.904
14394WAT      O43423   6.408   6.378   7.880
14394WAT     H143424   6.380   6.474   7.871
14394WAT     H243425   6.328   6.322   7.902
14395WAT      O43426   9.505   1.554   4.401
14395WAT     H143427   9.483   1.467   4.446
14395WAT     H243428   9.585   1.595   4.445
14396WAT      O43429   2.110   8.127   2.583
14396WAT     H143430   2.087   8.104   2.677
14396WAT     H243431   2.180   8.199   2.583
14397WAT      O43432   5.019   8.341   1.294
14397WAT     H143433   5.090   8.391   1.244
14397WAT     H243434   4.985   8.266   1.237
14398WAT      O43435   5.597   4.614   3.103
14398WAT     H143436   5.571   4.588   3.196
14398WAT     H243437   5.636   4.706   3.104
14399WAT      O43438   3.361   4.253   9.276
14399WAT     H143439   3.452   4.241   9.237
14399WAT     H243440   3.331   4.167   9.316
14400WAT      O43441   4.667   3.837   7.525
14400WAT     H143442   4.704   3.814   7.435
14400WAT     H243443   4.575   3.799   7.534
14401WAT      O43444   3.809   8.942   7.307
14401WAT     H143445   3.800   8.998   7.389
14401WAT     H243446   3.729   8.882   7.298
14402WAT      O43447   8.011   2.498   3.367
14402WAT     H143448   7.978   2.483   3.274
14402WAT     H243449   8.101   2.455   3.379
14403WAT      O43450   4.562   7.805   5.930
14403WAT     H143451   4.614   7.883   5.895
14403WAT     H243452   4.478   7.837   5.973
14404WAT      O43453   8.725   9.628   1.786
14404WAT     H143454   8.676   9.704   1.829
14404WAT     H243455   8.666   9.546   1.788
14405WAT      O43456   8.406   7.093   3.152
14405WAT     H143457   8.407   6.994   3.166
14405WAT     H243458   8.378   7.139   3.236
14406WAT      O43459   4.607   8.386   4.801
14406WAT     H143460   4.674   8.437   4.856
14406WAT     H243461   4.525   8.369   4.855
14407WAT      O43462   5.780   7.277   0.410
14407WAT     H143463   5.699   7.272   0.469
14407WAT     H243464   5.858   7.236   0.456
14408WAT      O43465   2.360   5.346   5.441
14408WAT     H143466   2.317   5.429   5.405
14408WAT     H243467   2.309   5.313   5.520
14409WAT      O43468   0.665   2.731   6.765
14409WAT     H143469   0.577   2.746   6.809
14409WAT     H243470   0.681   2.804   6.698
14410WAT      O43471   1.061   2.476   9.864
14410WAT     H143472   0.986   2.469   9.930
14410WAT     H243473   1.029   2.522   9.782
14411WAT      O43474   1.399   5.282   5.249
14411WAT     H143475   1.437   5.189   5.250
14411WAT     H243476   1.300   5.278   5.254
14412WAT      O43477   4.564   8.978   3.451
14412WAT     H143478   4.620   8.909   3.497
14412WAT     H243479   4.474   8.982   3.494
14413WAT      O43480   9.226   1.433   3.032
14413WAT     H143481   9.246   1.516   3.084
14413WAT     H243482   9.262   1.443   2.939
14414WAT      O43483   4.398   6.507   5.879
14414WAT     H143484   4.355   6.535   5.793
14414WAT     H243485   4.497   6.514   5.871
14415WAT      O43486   2.464   0.792   2.655
14415WAT     H143487   2.529   0.854   2.700
14415WAT     H243488   2.381   0.843   2.632
14416WAT      O43489   1.822   1.056   7.447
14416WAT     H143490   1.781   1.146   7.433
14416WAT     H243491   1.829   1.038   7.545
14417WAT      O43492   9.491   3.191   5.816
14417WAT     H143493   9.458   3.101   5.786
14417WAT     H243494   9.580   3.180   5.861
14418WAT      O43495   5.189   4.384   8.234
14418WAT     H143496   5.180   4.478   8.201
14418WAT     H243497   5.101   4.337   8.225
14419WAT      O43498   3.137   8.159   6.442
14419WAT     H143499   3.132   8.139   6.344
14419WAT     H243500   3.231   8.182   6.466
14420WAT      O43501   1.070   9.580   3.954
14420WAT     H143502   1.003   9.616   4.018
14420WAT     H243503   1.077   9.481   3.966
14421WAT      O43504   8.734   6.476   8.954
14421WAT     H143505   8.667   6.415   8.913
14421WAT     H243506   8.727   6.472   9.053
14422WAT      O43507   7.397   6.747   3.675
14422WAT     H143508   7.405   6.711   3.768
14422WAT     H243509   7.488   6.772   3.642
14423WAT      O43510   8.410   8.038   4.055
14423WAT     H143511   8.362   8.053   4.142
14423WAT     H243512   8.420   7.940   4.038
14424WAT      O43513   3.806   7.867   3.711
14424WAT     H143514   3.713   7.839   3.687
14424WAT     H243515   3.828   7.835   3.804
14425WAT      O43516   9.217   9.197   9.486
14425WAT     H143517   9.302   9.250   9.488
14425WAT     H243518   9.235   9.108   9.443
14426WAT      O43519   7.143   2.912   3.657
14426WAT     H143520   7.126   2.815   3.640
14426WAT     H243521   7.198   2.949   3.582
14427WAT      O43522   9.695   8.273   0.242
14427WAT     H143523   9.701   8.180   0.278
14427WAT     H243524   9.773   8.327   0.274
14428WAT      O43525   9.754   4.720   2.751
14428WAT     H143526   9.787   4.787   2.684
14428WAT     H243527   9.748   4.763   2.841
14429WAT      O43528   6.545   6.595   8.502
14429WAT     H143529   6.527   6.514   8.557
14429WAT     H243530   6.544   6.571   8.405
14430WAT      O43531   4.237   7.013   6.602
14430WAT     H143532   4.301   7.076   6.557
14430WAT     H243533   4.247   7.020   6.701
14431WAT      O43534   6.330   3.714   5.515
14431WAT     H143535   6.426   3.689   5.499
14431WAT     H243536   6.323   3.767   5.600
14432WAT      O43537   6.859   9.201   0.979
14432WAT     H143538   6.883   9.294   1.008
14432WAT     H243539   6.927   9.168   0.914
14433WAT      O43540   5.818   7.108   3.252
14433WAT     H143541   5.844   7.013   3.235
14433WAT     H243542   5.814   7.125   3.351
14434WAT      O43543   0.204   8.758   8.998
14434WAT     H143544   0.276   8.716   8.943
14434WAT     H243545   0.151   8.687   9.045
14435WAT      O43546   2.134   7.608   2.293
14435WAT     H143547   2.157   7.672   2.220
14435WAT     H243548   2.212   7.547   2.310
14436WAT      O43549   5.305   7.273   9.049
14436WAT     H143550   5.250   7.337   9.102
14436WAT     H243551   5.261   7.255   8.961
14437WAT      O43552   8.073   6.527   5.728
14437WAT     H143553   8.135   6.591   5.683
14437WAT     H243554   7.979   6.550   5.706
14438WAT      O43555   6.413   2.011   0.968
14438WAT     H143556   6.443   2.089   0.913
14438WAT     H243557   6.474   2.001   1.047
14439WAT      O43558   5.626   5.119   7.541
14439WAT     H143559   5.630   5.020   7.553
14439WAT     H243560   5.660   5.143   7.451
14440WAT      O43561   6.802   2.906   5.759
14440WAT     H143562   6.836   2.973   5.693
14440WAT     H243563   6.875   2.841   5.781
14441WAT      O43564   8.456   2.218   0.231
14441WAT     H143565   8.433   2.167   0.148
14441WAT     H243566   8.534   2.173   0.276
14442WAT      O43567   9.138   7.367   3.661
14442WAT     H143568   9.200   7.363   3.740
14442WAT     H243569   9.100   7.459   3.653
14443WAT      O43570   9.281   3.441   1.003
14443WAT     H143571   9.372   3.469   0.972
14443WAT     H243572   9.212   3.481   0.942
14444WAT      O43573   2.219   2.591   5.163
14444WAT     H143574   2.299   2.645   5.135
14444WAT     H243575   2.214   2.508   5.107
14445WAT      O43576   7.860   6.531   6.752
14445WAT     H143577   7.890   6.437   6.736
14445WAT     H243578   7.818   6.538   6.843
14446WAT      O43579   1.901   5.719   1.978
14446WAT     H143580   1.944   5.788   2.037
14446WAT     H243581   1.885   5.636   2.032
14447WAT      O43582   7.609   0.936   8.873
14447WAT     H143583   7.517   0.970   8.891
14447WAT     H243584   7.646   0.895   8.956
14448WAT      O43585   8.917   6.260   1.266
14448WAT     H143586   8.922   6.355   1.299
14448WAT     H243587   8.996   6.240   1.208
14449WAT      O43588   9.146   8.339   3.024
14449WAT     H143589   9.056   8.379   3.009
14449WAT     H243590   9.217   8.405   3.003
14450WAT      O43591   1.869   4.181   0.766
14450WAT     H143592   1.771   4.161   0.769
14450WAT     H243593   1.896   4.196   0.671
14451WAT      O43594   1.809   5.583   3.273
14451WAT     H143595   1.894   5.532   3.281
14451WAT     H243596   1.824   5.666   3.221
14452WAT      O43597   8.832   7.923   8.217
14452WAT     H143598   8.839   7.858   8.141
14452WAT     H243599   8.858   8.014   8.185
14453WAT      O43600   5.142   5.628   8.989
14453WAT     H143601   5.161   5.541   8.943
14453WAT     H243602   5.188   5.702   8.941
14454WAT      O43603   4.436   3.038   4.879
14454WAT     H143604   4.390   3.007   4.963
14454WAT     H243605   4.535   3.036   4.894
14455WAT      O43606   3.668   3.521   2.179
14455WAT     H143607   3.696   3.520   2.275
14455WAT     H243608   3.648   3.428   2.148
14456WAT      O43609   6.805   8.264   0.575
14456WAT     H143610   6.905   8.273   0.577
14456WAT     H243611   6.764   8.353   0.555
14457WAT      O43612   1.941   9.604   2.155
14457WAT     H143613   1.901   9.645   2.237
14457WAT     H243614   1.869   9.578   2.091
14458WAT      O43615   6.021   1.447   6.757
14458WAT     H143616   5.948   1.516   6.748
14458WAT     H243617   6.106   1.484   6.721
14459WAT      O43618   0.848   6.806   5.470
14459WAT     H143619   0.789   6.796   5.549
14459WAT     H243620   0.870   6.715   5.433
14460WAT      O43621   5.905   6.692   6.705
14460WAT     H143622   5.917   6.648   6.616
14460WAT     H243623   5.938   6.631   6.777
14461WAT      O43624   8.678   1.802   6.590
14461WAT     H143625   8.677   1.707   6.620
14461WAT     H243626   8.655   1.861   6.667
14462WAT      O43627   4.479   5.796   7.045
14462WAT     H143628   4.413   5.807   7.120
14462WAT     H243629   4.569   5.776   7.082
14463WAT      O43630   2.508   7.158   1.186
14463WAT     H143631   2.423   7.111   1.163
14463WAT     H243632   2.520   7.236   1.124
14464WAT      O43633   6.831   8.424   4.001
14464WAT     H143634   6.905   8.432   4.068
14464WAT     H243635   6.855   8.357   3.931
14465WAT      O43636   1.419   0.918   7.975
14465WAT     H143637   1.476   0.963   7.906
14465WAT     H243638   1.472   0.907   8.059
14466WAT      O43639   4.356   0.956   9.600
14466WAT     H143640   4.341   0.864   9.565
14466WAT     H243641   4.434   0.997   9.552
14467WAT      O43642   2.851   5.551   5.347
14467WAT     H143643   2.869   5.461   5.386
14467WAT     H243644   2.783   5.543   5.274
14468WAT      O43645   3.807   1.896   4.245
14468WAT     H143646   3.877   1.842   4.198
14468WAT     H243647   3.771   1.964   4.182
14469WAT      O43648   2.043   9.064   0.896
14469WAT     H143649   2.097   9.017   0.826
14469WAT     H243650   2.071   9.159   0.903
14470WAT      O43651   2.149   4.988   4.924
14470WAT     H143652   2.233   5.032   4.957
14470WAT     H243653   2.109   5.044   4.851
14471WAT      O43654   9.685   2.147   3.028
14471WAT     H143655   9.687   2.048   3.042
14471WAT     H243656   9.591   2.177   3.014
14472WAT      O43657   7.303   6.731   1.566
14472WAT     H143658   7.244   6.808   1.589
14472WAT     H243659   7.249   6.658   1.524
14473WAT      O43660   0.658   5.594   3.690
14473WAT     H143661   0.568   5.564   3.659
14473WAT     H243662   0.674   5.564   3.784
14474WAT      O43663   4.395   8.319   9.248
14474WAT     H143664   4.490   8.333   9.277
14474WAT     H243665   4.393   8.258   9.169
14475WAT      O43666   8.332   4.217   1.504
14475WAT     H143667   8.384   4.246   1.585
14475WAT     H243668   8.383   4.147   1.454
14476WAT      O43669   6.515   2.658   7.152
14476WAT     H143670   6.494   2.580   7.212
14476WAT     H243671   6.613   2.679   7.157
14477WAT      O43672   3.404   6.501   3.004
14477WAT     H143673   3.446   6.590   2.988
14477WAT     H243674   3.429   6.439   2.930
14478WAT      O43675   2.958   9.504   1.606
14478WAT     H143676   2.902   9.550   1.675
14478WAT     H243677   2.919   9.413   1.587
14479WAT      O43678   3.464   7.493   9.212
14479WAT     H143679   3.376   7.453   9.184
14479WAT     H243680   3.450   7.587   9.241
14480WAT      O43681   6.088   5.926   9.148
14480WAT     H143682   6.027   5.961   9.078
14480WAT     H243683   6.116   5.832   9.125
14481WAT      O43684   2.638   8.611   3.959
14481WAT     H143685   2.687   8.653   3.883
14481WAT     H243686   2.574   8.543   3.923
14482WAT      O43687   6.332   4.786   0.243
14482WAT     H143688   6.257   4.786   0.177
14482WAT     H243689   6.301   4.823   0.330
14483WAT      O43690   8.193   2.730   3.680
14483WAT     H143691   8.252   2.650   3.668
14483WAT     H243692   8.239   2.797   3.738
14484WAT      O43693   9.489   3.277   6.477
14484WAT     H143694   9.404   3.329   6.467
14484WAT     H243695   9.477   3.207   6.547
14485WAT      O43696   5.057   6.078   9.491
14485WAT     H143697   5.148   6.095   9.528
14485WAT     H243698   5.025   6.160   9.444
14486WAT      O43699   2.209   0.101   0.846
14486WAT     H143700   2.252   0.164   0.911
14486WAT     H243701   2.122   0.069   0.884
14487WAT      O43702   6.959   7.224   3.119
14487WAT     H143703   6.928   7.135   3.152
14487WAT     H243704   7.058   7.222   3.105
14488WAT      O43705   6.062   0.266   2.564
14488WAT     H143706   5.995   0.205   2.522
14488WAT     H243707   6.024   0.358   2.572
14489WAT      O43708   1.889   0.974   8.852
14489WAT     H143709   1.832   1.030   8.792
14489WAT     H243710   1.913   1.026   8.934
14490WAT      O43711   9.324   2.208   7.098
14490WAT     H143712   9.396   2.140   7.113
14490WAT     H243713   9.246   2.163   7.053
14491WAT      O43714   3.592   9.746   5.570
14491WAT     H143715   3.524   9.778   5.504
14491WAT     H243716   3.653   9.680   5.527
14492WAT      O43717   6.876   6.889   2.707
14492WAT     H143718   6.971   6.905   2.732
14492WAT     H243719   6.819   6.964   2.742
14493WAT      O43720   9.232   4.879   5.785
14493WAT     H143721   9.290   4.851   5.708
14493WAT     H243722   9.235   4.808   5.856
14494WAT      O43723   8.602   4.163   7.722
14494WAT     H143724   8.616   4.200   7.814
14494WAT     H243725   8.504   4.163   7.701
14495WAT      O43726   5.718   4.590   7.184
14495WAT     H143727   5.684   4.579   7.278
14495WAT     H243728   5.644   4.622   7.125
14496WAT      O43729   7.132   1.586   9.350
14496WAT     H143730   7.162   1.652   9.420
14496WAT     H243731   7.077   1.515   9.393
14497WAT      O43732   4.577   8.372   2.022
14497WAT     H143733   4.500   8.434   2.007
14497WAT     H243734   4.662   8.416   1.992
14498WAT      O43735   5.944   6.725   2.783
14498WAT     H143736   6.006   6.779   2.839
14498WAT     H243737   5.928   6.637   2.826
14499WAT      O43738   9.010   8.645   5.603
14499WAT     H143739   9.048   8.708   5.670
14499WAT     H243740   9.059   8.655   5.516
14500WAT      O43741   1.160   7.984   5.677
14500WAT     H143742   1.217   8.057   5.714
14500WAT     H243743   1.211   7.934   5.607
14501WAT      O43744   3.455   3.971   2.130
14501WAT     H143745   3.461   3.996   2.033
14501WAT     H243746   3.496   4.043   2.186
14502WAT      O43747   6.385   7.714   5.313
14502WAT     H143748   6.316   7.734   5.244
14502WAT     H243749   6.379   7.617   5.339
14503WAT      O43750   1.477   4.500   1.379
14503WAT     H143751   1.493   4.460   1.288
14503WAT     H243752   1.525   4.446   1.448
14504WAT      O43753   3.505   6.675   6.317
14504WAT     H143754   3.534   6.770   6.312
14504WAT     H243755   3.530   6.636   6.406
14505WAT      O43756   6.413   9.783   3.041
14505WAT     H143757   6.382   9.691   3.016
14505WAT     H243758   6.497   9.775   3.095
14506WAT      O43759   5.147   7.257   5.226
14506WAT     H143760   5.229   7.204   5.245
14506WAT     H243761   5.149   7.289   5.131
14507WAT      O43762   5.370   5.180   3.272
14507WAT     H143763   5.420   5.241   3.333
14507WAT     H243764   5.272   5.192   3.285
14508WAT      O43765   0.944   7.224   4.168
14508WAT     H143766   0.846   7.243   4.166
14508WAT     H243767   0.962   7.149   4.231
14509WAT      O43768   3.654   5.214   7.612
14509WAT     H143769   3.653   5.247   7.518
14509WAT     H243770   3.693   5.121   7.614
14510WAT      O43771   8.169   1.038   3.941
14510WAT     H143772   8.260   1.014   3.977
14510WAT     H243773   8.110   0.957   3.944
14511WAT      O43774   3.962   8.858   9.558
14511WAT     H143775   3.999   8.797   9.629
14511WAT     H243776   3.862   8.856   9.561
14512WAT      O43777   6.103   0.776   0.890
14512WAT     H143778   6.017   0.750   0.934
14512WAT     H243779   6.089   0.781   0.791
14513WAT      O43780   4.973   4.597   0.631
14513WAT     H143781   4.992   4.562   0.540
14513WAT     H243782   4.874   4.605   0.643
14514WAT      O43783   7.553   4.452   7.981
14514WAT     H143784   7.500   4.536   7.978
14514WAT     H243785   7.493   4.375   8.003
14515WAT      O43786   7.246   2.728   2.908
14515WAT     H143787   7.192   2.660   2.859
14515WAT     H243788   7.239   2.816   2.861
14516WAT      O43789   5.835   8.852   5.755
14516WAT     H143790   5.746   8.868   5.711
14516WAT     H243791   5.821   8.845   5.854
14517WAT      O43792   0.156   1.384   2.010
14517WAT     H143793   0.219   1.314   1.975
14517WAT     H243794   0.076   1.339   2.049
14518WAT      O43795   9.256   7.408   3.009
14518WAT     H143796   9.263   7.480   3.078
14518WAT     H243797   9.216   7.326   3.050
14519WAT      O43798   0.908   2.376   5.769
14519WAT     H143799   0.890   2.399   5.674
14519WAT     H243800   0.830   2.401   5.826
14520WAT      O43801   5.508   0.969   6.398
14520WAT     H143802   5.452   1.036   6.349
14520WAT     H243803   5.450   0.894   6.429
14521WAT      O43804   5.023   3.542   5.862
14521WAT     H143805   5.040   3.626   5.811
14521WAT     H243806   5.074   3.546   5.949
14522WAT      O43807   9.666   1.864   3.056
14522WAT     H143808   9.718   1.781   3.076
14522WAT     H243809   9.569   1.849   3.077
14523WAT      O43810   3.602   1.996   2.124
14523WAT     H143811   3.548   2.066   2.170
14523WAT     H243812   3.697   2.026   2.117
14524WAT      O43813   3.026   4.211   2.638
14524WAT     H143814   2.934   4.172   2.638
14524WAT     H243815   3.093   4.137   2.649
14525WAT      O43816   2.821   1.187   3.536
14525WAT     H143817   2.868   1.275   3.539
14525WAT     H243818   2.887   1.114   3.517
14526WAT      O43819   3.735   0.712   9.754
14526WAT     H143820   3.834   0.717   9.767
14526WAT     H243821   3.690   0.776   9.817
14527WAT      O43822   2.508   1.524   9.219
14527WAT     H143823   2.442   1.586   9.176
14527WAT     H243824   2.585   1.510   9.157
14528WAT      O43825   9.435   5.702   6.424
14528WAT     H143826   9.452   5.619   6.477
14528WAT     H243827   9.512   5.718   6.362
14529WAT      O43828   1.083   9.776   1.738
14529WAT     H143829   1.132   9.791   1.652
14529WAT     H243830   1.041   9.686   1.737
14530WAT      O43831   8.848   6.499   0.324
14530WAT     H143832   8.829   6.593   0.296
14530WAT     H243833   8.942   6.476   0.298
14531WAT      O43834   0.334   1.105   2.378
14531WAT     H143835   0.379   1.023   2.414
14531WAT     H243836   0.386   1.140   2.300
14532WAT      O43837   1.463   3.210   6.512
14532WAT     H143838   1.549   3.247   6.477
14532WAT     H243839   1.441   3.125   6.465
14533WAT      O43840   3.285   1.518   9.403
14533WAT     H143841   3.295   1.554   9.495
14533WAT     H243842   3.372   1.528   9.354
14534WAT      O43843   3.649   9.107   6.000
14534WAT     H143844   3.622   9.027   6.054
14534WAT     H243845   3.743   9.095   5.968
14535WAT      O43846   3.095   0.513   4.606
14535WAT     H143847   3.084   0.416   4.585
14535WAT     H243848   3.055   0.533   4.696
14536WAT      O43849   1.229   3.577   8.479
14536WAT     H143850   1.181   3.562   8.393
14536WAT     H243851   1.240   3.675   8.495
14537WAT      O43852   5.814   8.252   0.963
14537WAT     H143853   5.799   8.349   0.944
14537WAT     H243854   5.913   8.236   0.972
14538WAT      O43855   7.534   4.246   5.583
14538WAT     H143856   7.474   4.172   5.614
14538WAT     H243857   7.482   4.332   5.583
14539WAT      O43858   4.494   2.244   2.141
14539WAT     H143859   4.418   2.271   2.082
14539WAT     H243860   4.468   2.164   2.195
14540WAT      O43861   8.340   5.849   0.626
14540WAT     H143862   8.423   5.794   0.635
14540WAT     H243863   8.272   5.800   0.572
14541WAT      O43864   0.358   6.579   5.286
14541WAT     H143865   0.368   6.653   5.353
14541WAT     H243866   0.413   6.600   5.205
14542WAT      O43867   7.760   0.335   5.522
14542WAT     H143868   7.792   0.395   5.448
14542WAT     H243869   7.676   0.372   5.561
14543WAT      O43870   8.139   6.700   8.848
14543WAT     H143871   8.077   6.667   8.919
14543WAT     H243872   8.209   6.758   8.889
14544WAT      O43873   1.101   7.821   9.380
14544WAT     H143874   1.185   7.804   9.329
14544WAT     H243875   1.025   7.773   9.337
14545WAT      O43876   4.627   5.642   5.008
14545WAT     H143877   4.582   5.660   5.095
14545WAT     H243878   4.565   5.664   4.933
14546WAT      O43879   8.682   8.544   1.883
14546WAT     H143880   8.689   8.481   1.960
14546WAT     H243881   8.626   8.622   1.909
14547WAT      O43882   3.661   7.267   1.322
14547WAT     H143883   3.593   7.195   1.334
14547WAT     H243884   3.751   7.226   1.308
14548WAT      O43885   9.547   2.837   4.715
14548WAT     H143886   9.489   2.820   4.794
14548WAT     H243887   9.490   2.840   4.632
14549WAT      O43888   8.837   6.834   6.756
14549WAT     H143889   8.925   6.818   6.800
14549WAT     H243890   8.847   6.903   6.685
14550WAT      O43891   2.206   1.086   9.060
14550WAT     H143892   2.256   1.138   8.990
14550WAT     H243893   2.271   1.056   9.130
14551WAT      O43894   0.635   3.757   4.485
14551WAT     H143895   0.603   3.794   4.397
14551WAT     H243896   0.571   3.687   4.516
14552WAT      O43897   3.374   8.438   4.854
14552WAT     H143898   3.436   8.388   4.913
14552WAT     H243899   3.316   8.498   4.910
14553WAT      O43900   4.309   8.783   9.856
14553WAT     H143901   4.301   8.780   9.757
14553WAT     H243902   4.344   8.873   9.884
14554WAT      O43903   4.433   1.633   3.750
14554WAT     H143904   4.496   1.711   3.747
14554WAT     H243905   4.461   1.572   3.824
14555WAT      O43906   7.891   4.904   5.904
14555WAT     H143907   7.934   4.900   5.994
14555WAT     H243908   7.944   4.849   5.839
14556WAT      O43909   5.680   1.280   4.869
14556WAT     H143910   5.604   1.241   4.921
14556WAT     H243911   5.645   1.346   4.803
14557WAT      O43912   9.776   9.742   5.030
14557WAT     H143913   9.811   9.774   5.118
14557WAT     H243914   9.695   9.795   5.006
14558WAT      O43915   0.691   2.557   5.867
14558WAT     H143916   0.709   2.655   5.872
14558WAT     H243917   0.622   2.539   5.798
14559WAT      O43918   7.846   9.072   7.131
14559WAT     H143919   7.860   9.154   7.076
14559WAT     H243920   7.749   9.063   7.153
14560WAT      O43921   1.631   8.731   8.322
14560WAT     H143922   1.726   8.737   8.292
14560WAT     H243923   1.610   8.635   8.344
14561WAT      O43924   3.979   1.445   4.221
14561WAT     H143925   4.044   1.370   4.207
14561WAT     H243926   3.906   1.415   4.283
14562WAT      O43927   3.370   8.086   8.797
14562WAT     H143928   3.382   8.185   8.797
14562WAT     H243929   3.418   8.046   8.719
14563WAT      O43930   1.847   0.972   3.218
14563WAT     H143931   1.788   0.897   3.190
14563WAT     H243932   1.878   0.958   3.312
14564WAT      O43933   6.278   1.068   1.804
14564WAT     H143934   6.191   1.019   1.808
14564WAT     H243935   6.271   1.142   1.737
14565WAT      O43936   1.001   6.939   3.522
14565WAT     H143937   1.079   6.993   3.490
14565WAT     H243938   0.972   6.875   3.450
14566WAT      O43939   1.692   2.923   3.234
14566WAT     H143940   1.633   2.932   3.313
14566WAT     H243941   1.718   2.826   3.222
14567WAT      O43942   0.143   0.401   0.331
14567WAT     H143943   0.145   0.433   0.236
14567WAT     H243944   0.235   0.404   0.368
14568WAT      O43945   2.257   2.813   8.313
14568WAT     H143946   2.270   2.890   8.251
14568WAT     H243947   2.206   2.741   8.267
14569WAT      O43948   7.828   1.726   1.550
14569WAT     H143949   7.905   1.664   1.568
14569WAT     H243950   7.862   1.812   1.512
14570WAT      O43951   1.602   6.573   9.372
14570WAT     H143952   1.626   6.489   9.421
14570WAT     H243953   1.665   6.646   9.397
14571WAT      O43954   6.937   9.442   2.050
14571WAT     H143955   7.016   9.436   2.110
14571WAT     H243956   6.861   9.389   2.089
14572WAT      O43957   1.358   2.729   6.009
14572WAT     H143958   1.444   2.780   6.012
14572WAT     H243959   1.307   2.744   6.094
14573WAT      O43960   3.049   2.143   2.734
14573WAT     H143961   3.043   2.086   2.816
14573WAT     H243962   3.023   2.089   2.654
14574WAT      O43963   7.018   0.087   0.321
14574WAT     H143964   7.109   0.095   0.280
14574WAT     H243965   7.018   0.015   0.390
14575WAT      O43966   3.064   2.251   4.385
14575WAT     H143967   2.987   2.191   4.405
14575WAT     H243968   3.088   2.244   4.288
14576WAT      O43969   5.185   2.419   5.755
14576WAT     H143970   5.141   2.394   5.841
14576WAT     H243971   5.156   2.510   5.727
14577WAT      O43972   0.589   7.994   5.924
14577WAT     H143973   0.544   7.924   5.979
14577WAT     H243974   0.525   8.069   5.907
14578WAT      O43975   8.742   5.916   6.105
14578WAT     H143976   8.790   5.834   6.136
14578WAT     H243977   8.683   5.951   6.177
14579WAT      O43978   6.407   3.722   1.618
14579WAT     H143979   6.338   3.744   1.688
14579WAT     H243980   6.419   3.623   1.613
14580WAT      O43981   0.768   5.939   6.987
14580WAT     H143982   0.784   5.866   7.054
14580WAT     H243983   0.741   5.898   6.900
14581WAT      O43984   1.100   6.826   6.456
14581WAT     H143985   1.187   6.792   6.490
14581WAT     H243986   1.111   6.862   6.363
14582WAT      O43987   1.837   6.607   1.658
14582WAT     H143988   1.803   6.513   1.652
14582WAT     H243989   1.899   6.615   1.736
14583WAT      O43990   8.901   6.935   9.828
14583WAT     H143991   8.956   6.864   9.872
14583WAT     H243992   8.849   6.895   9.753
14584WAT      O43993   8.391   2.981   2.885
14584WAT     H143994   8.334   2.916   2.834
14584WAT     H243995   8.387   2.959   2.983
14585WAT      O43996   8.231   1.702   0.339
14585WAT     H143997   8.235   1.733   0.434
14585WAT     H243998   8.137   1.710   0.305
14586WAT      O43999   8.497   4.225   1.063
14586WAT     H144000   8.535   4.186   1.148
14586WAT     H244001   8.569   4.276   1.016
14587WAT      O44002   7.100   1.209   2.166
14587WAT     H144003   7.097   1.308   2.151
14587WAT     H244004   7.010   1.170   2.149
14588WAT      O44005   8.962   7.200   6.067
14588WAT     H144006   8.921   7.266   6.129
14588WAT     H244007   8.992   7.120   6.118
14589WAT      O44008   6.933   4.470   5.487
14589WAT     H144009   6.899   4.552   5.534
14589WAT     H244010   6.957   4.400   5.554
14590WAT      O44011   3.893   9.734   3.180
14590WAT     H144012   3.970   9.685   3.221
14590WAT     H244013   3.807   9.699   3.218
14591WAT      O44014   8.657   5.123   4.421
14591WAT     H144015   8.661   5.205   4.477
14591WAT     H244016   8.619   5.146   4.331
14592WAT      O44017   2.901   6.811   5.641
14592WAT     H144018   2.990   6.835   5.680
14592WAT     H244019   2.829   6.842   5.702
14593WAT      O44020   8.494   0.882   7.649
14593WAT     H144021   8.485   0.901   7.551
14593WAT     H244022   8.549   0.954   7.691
14594WAT      O44023   0.805   2.691   0.530
14594WAT     H144024   0.774   2.720   0.440
14594WAT     H244025   0.787   2.765   0.596
14595WAT      O44026   6.480   1.652   9.749
14595WAT     H144027   6.562   1.710   9.756
14595WAT     H244028   6.503   1.568   9.700
14596WAT      O44029   0.055   4.140   6.102
14596WAT     H144030  -0.024   4.166   6.159
14596WAT     H244031   0.069   4.042   6.108
14597WAT      O44032   4.852   5.601   8.536
14597WAT     H144033   4.790   5.680   8.533
14597WAT     H244034   4.945   5.632   8.555
14598WAT      O44035   0.828   7.275   1.314
14598WAT     H144036   0.734   7.244   1.296
14598WAT     H244037   0.826   7.362   1.364
14599WAT      O44038   2.346   6.324   7.366
14599WAT     H144039   2.306   6.299   7.454
14599WAT     H244040   2.361   6.242   7.311
14600WAT      O44041   5.239   0.008   3.850
14600WAT     H144042   5.210   0.076   3.783
14600WAT     H244043   5.339   0.014   3.862
14601WAT      O44044   6.812   9.166   5.957
14601WAT     H144045   6.781   9.245   5.904
14601WAT     H244046   6.894   9.190   6.008
14602WAT      O44047   3.302   1.957   4.016
14602WAT     H144048   3.277   1.912   4.102
14602WAT     H244049   3.255   1.912   3.940
14603WAT      O44050   8.885   1.641   7.687
14603WAT     H144051   8.867   1.628   7.590
14603WAT     H244052   8.982   1.661   7.701
14604WAT      O44053   2.319   9.833   2.713
14604WAT     H144054   2.260   9.830   2.794
14604WAT     H244055   2.393   9.767   2.723
14605WAT      O44056   0.382   7.495   5.634
14605WAT     H144057   0.310   7.543   5.683
14605WAT     H244058   0.470   7.511   5.680
14606WAT      O44059   0.486   3.129   4.703
14606WAT     H144060   0.417   3.057   4.715
14606WAT     H244061   0.571   3.089   4.669
14607WAT      O44062   6.461   4.792   8.276
14607WAT     H144063   6.492   4.828   8.188
14607WAT     H244064   6.538   4.750   8.325
14608WAT      O44065   4.714   8.982   8.222
14608WAT     H144066   4.652   8.905   8.234
14608WAT     H244067   4.693   9.029   8.136
14609WAT      O44068   3.567   2.768   7.670
14609WAT     H144069   3.643   2.745   7.609
14609WAT     H244070   3.518   2.685   7.695
14610WAT      O44071   6.268   8.165   8.177
14610WAT     H144072   6.287   8.118   8.091
14610WAT     H244073   6.176   8.204   8.175
14611WAT      O44074   3.890   8.757   7.503
14611WAT     H144075   3.990   8.755   7.510
14611WAT     H244076   3.863   8.816   7.427
14612WAT      O44077   8.610   5.516   2.941
14612WAT     H144078   8.645   5.430   2.977
14612WAT     H244079   8.547   5.557   3.007
14613WAT      O44080   5.106   0.186   9.282
14613WAT     H144081   5.046   0.146   9.212
14613WAT     H244082   5.193   0.137   9.283
14614WAT      O44083   0.156   8.798   3.259
14614WAT     H144084   0.228   8.736   3.228
14614WAT     H244085   0.075   8.784   3.203
14615WAT      O44086   7.182   4.367   0.208
14615WAT     H144087   7.086   4.382   0.184
14615WAT     H244088   7.238   4.368   0.125
14616WAT      O44089   3.310   8.449   8.612
14616WAT     H144090   3.280   8.537   8.650
14616WAT     H244091   3.380   8.410   8.671
14617WAT      O44092   9.533   2.375   4.608
14617WAT     H144093   9.556   2.295   4.552
14617WAT     H244094   9.436   2.375   4.629
14618WAT      O44095   0.312   7.997   6.282
14618WAT     H144096   0.355   8.083   6.254
14618WAT     H244097   0.236   8.016   6.344
14619WAT      O44098   4.172   4.660   2.797
14619WAT     H144099   4.134   4.722   2.866
14619WAT     H244100   4.240   4.600   2.839
14620WAT      O44101   2.603   9.229   2.086
14620WAT     H144102   2.549   9.148   2.110
14620WAT     H244103   2.550   9.311   2.103
14621WAT      O44104   4.143   9.789   2.390
14621WAT     H144105   4.137   9.728   2.310
14621WAT     H244106   4.062   9.776   2.447
14622WAT      O44107   7.123   2.736   3.940
14622WAT     H144108   7.116   2.642   3.905
14622WAT     H244109   7.064   2.747   4.019
14623WAT      O44110   5.636   8.268   8.203
14623WAT     H144111   5.538   8.277   8.185
14623WAT     H244112   5.676   8.203   8.138
14624WAT      O44113   3.881   2.102   9.892
14624WAT     H144114   3.969   2.149   9.889
14624WAT     H244115   3.807   2.169   9.893
14625WAT      O44116   3.626   7.707   2.381
14625WAT     H144117   3.685   7.627   2.388
14625WAT     H244118   3.531   7.680   2.400
14626WAT      O44119   4.866   4.363   2.845
14626WAT     H144120   4.938   4.424   2.875
14626WAT     H244121   4.809   4.409   2.776
14627WAT      O44122   6.636   3.543   7.134
14627WAT     H144123   6.698   3.496   7.196
14627WAT     H244124   6.580   3.609   7.185
14628WAT      O44125   3.478   9.689   8.435
14628WAT     H144126   3.543   9.742   8.490
14628WAT     H244127   3.387   9.695   8.475
14629WAT      O44128   8.121   1.946   9.010
14629WAT     H144129   8.174   1.864   9.036
14629WAT     H244130   8.025   1.921   8.997
14630WAT      O44131   7.129   8.310   7.974
14630WAT     H144132   7.101   8.385   7.914
14630WAT     H244133   7.117   8.336   8.070
14631WAT      O44134   5.370   8.887   8.700
14631WAT     H144135   5.397   8.837   8.617
14631WAT     H244136   5.271   8.901   8.699
14632WAT      O44137   8.276   1.185   3.289
14632WAT     H144138   8.176   1.184   3.289
14632WAT     H244139   8.310   1.094   3.315
14633WAT      O44140   9.430   2.225   2.996
14633WAT     H144141   9.396   2.190   2.908
14633WAT     H244142   9.419   2.324   2.999
14634WAT      O44143   6.364   8.108   7.138
14634WAT     H144144   6.432   8.162   7.089
14634WAT     H244145   6.408   8.059   7.213
14635WAT      O44146   2.095   9.542   7.928
14635WAT     H144147   2.129   9.568   8.018
14635WAT     H244148   2.149   9.587   7.857
14636WAT      O44149   1.949   4.832   1.430
14636WAT     H144150   2.004   4.906   1.470
14636WAT     H244151   1.993   4.744   1.448
14637WAT      O44152   5.745   9.617   1.825
14637WAT     H144153   5.844   9.598   1.821
14637WAT     H244154   5.730   9.715   1.838
14638WAT      O44155   1.689   9.746   8.453
14638WAT     H144156   1.618   9.754   8.382
14638WAT     H244157   1.667   9.808   8.529
14639WAT      O44158   7.379   8.661   3.306
14639WAT     H144159   7.283   8.669   3.279
14639WAT     H244160   7.416   8.576   3.271
14640WAT      O44161   1.817   6.675   6.724
14640WAT     H144162   1.836   6.741   6.652
14640WAT     H244163   1.900   6.624   6.746
14641WAT      O44164   3.273   3.274   6.202
14641WAT     H144165   3.355   3.218   6.210
14641WAT     H244166   3.227   3.255   6.115
14642WAT      O44167   1.425   4.634   2.403
14642WAT     H144168   1.460   4.692   2.477
14642WAT     H244169   1.410   4.542   2.437
14643WAT      O44170   0.604   4.383   0.368
14643WAT     H144171   0.659   4.419   0.443
14643WAT     H244172   0.652   4.399   0.281
14644WAT      O44173   5.694   5.697   8.638
14644WAT     H144174   5.784   5.683   8.678
14644WAT     H244175   5.676   5.625   8.571
14645WAT      O44176   2.199   1.184   9.828
14645WAT     H144177   2.229   1.191   9.733
14645WAT     H244178   2.129   1.253   9.846
14646WAT      O44179   3.990   0.351   5.591
14646WAT     H144180   4.024   0.338   5.684
14646WAT     H244181   3.947   0.266   5.559
14647WAT      O44182   3.363   1.577   1.050
14647WAT     H144183   3.313   1.603   0.968
14647WAT     H244184   3.420   1.653   1.081
14648WAT      O44185   3.292   5.755   5.006
14648WAT     H144186   3.323   5.668   5.046
14648WAT     H244187   3.276   5.821   5.079
14649WAT      O44188   2.184   4.775   5.934
14649WAT     H144189   2.259   4.775   6.000
14649WAT     H244190   2.130   4.858   5.945
14650WAT      O44191   1.090   1.277   0.154
14650WAT     H144192   1.178   1.289   0.108
14650WAT     H244193   1.044   1.196   0.119
14651WAT      O44194   1.553   9.682   9.702
14651WAT     H144195   1.532   9.679   9.604
14651WAT     H244196   1.489   9.743   9.748
14652WAT      O44197   8.512   0.481   9.003
14652WAT     H144198   8.544   0.433   8.922
14652WAT     H244199   8.547   0.574   9.003
14653WAT      O44200   1.424   4.096   3.807
14653WAT     H144201   1.516   4.097   3.846
14653WAT     H244202   1.365   4.155   3.861
14654WAT      O44203   8.709   7.353   5.352
14654WAT     H144204   8.767   7.408   5.291
14654WAT     H244205   8.627   7.405   5.375
14655WAT      O44206   4.878   4.280   9.214
14655WAT     H144207   4.857   4.204   9.152
14655WAT     H244208   4.814   4.355   9.198
14656WAT      O44209   6.700   4.265   5.648
14656WAT     H144210   6.796   4.244   5.666
14656WAT     H244211   6.695   4.349   5.594
14657WAT      O44212   0.497   5.412   8.505
14657WAT     H144213   0.589   5.377   8.524
14657WAT     H244214   0.455   5.356   8.433
14658WAT      O44215   7.225   8.021   5.914
14658WAT     H144216   7.260   7.956   5.846
14658WAT     H244217   7.255   7.992   6.005
14659WAT      O44218   0.862   7.677   6.635
14659WAT     H144219   0.779   7.639   6.677
14659WAT     H244220   0.887   7.762   6.682
14660WAT      O44221   1.291   1.713   1.301
14660WAT     H144222   1.341   1.650   1.241
14660WAT     H244223   1.237   1.660   1.367
14661WAT      O44224   9.226   3.184   7.315
14661WAT     H144225   9.255   3.180   7.411
14661WAT     H244226   9.131   3.213   7.311
14662WAT      O44227   5.887   7.047   2.805
14662WAT     H144228   5.905   7.046   2.707
14662WAT     H244229   5.940   6.975   2.850
14663WAT      O44230   1.728   5.656   0.390
14663WAT     H144231   1.763   5.746   0.365
14663WAT     H244232   1.640   5.666   0.436
14664WAT      O44233   8.483   6.900   3.828
14664WAT     H144234   8.446   6.897   3.921
14664WAT     H244235   8.456   6.818   3.778
14665WAT      O44236   6.474   4.147   6.683
14665WAT     H144237   6.529   4.067   6.658
14665WAT     H244238   6.441   4.191   6.600
14666WAT      O44239   9.574   8.353   4.804
14666WAT     H144240   9.486   8.338   4.850
14666WAT     H244241   9.602   8.269   4.758
14667WAT      O44242   6.522   7.593   5.960
14667WAT     H144243   6.573   7.507   5.962
14667WAT     H244244   6.456   7.591   5.884
14668WAT      O44245   8.152   3.584   6.772
14668WAT     H144246   8.160   3.501   6.717
14668WAT     H244247   8.212   3.654   6.734
14669WAT      O44248   7.819   2.572   4.914
14669WAT     H144249   7.761   2.592   4.836
14669WAT     H244250   7.909   2.544   4.882
14670WAT      O44251   6.828   2.105   7.260
14670WAT     H144252   6.749   2.057   7.223
14670WAT     H244253   6.870   2.161   7.188
14671WAT      O44254   8.907   6.431   7.034
14671WAT     H144255   8.978   6.361   7.029
14671WAT     H244256   8.919   6.484   7.119
14672WAT      O44257   7.869   9.120   2.792
14672WAT     H144258   7.802   9.110   2.718
14672WAT     H244259   7.850   9.054   2.864
14673WAT      O44260   7.788   8.615   8.107
14673WAT     H144261   7.738   8.589   8.025
14673WAT     H244262   7.776   8.544   8.177
14674WAT      O44263   6.566   7.335   0.848
14674WAT     H144264   6.627   7.409   0.821
14674WAT     H244265   6.485   7.337   0.789
14675WAT      O44266   2.946   0.867   6.964
14675WAT     H144267   2.885   0.854   6.886
14675WAT     H244268   3.026   0.809   6.954
14676WAT      O44269   5.294   4.590   7.962
14676WAT     H144270   5.364   4.527   7.996
14676WAT     H244271   5.219   4.597   8.028
14677WAT      O44272   4.751   7.399   8.364
14677WAT     H144273   4.687   7.334   8.322
14677WAT     H244274   4.832   7.408   8.307
14678WAT      O44275   0.355   9.600   5.428
14678WAT     H144276   0.366   9.514   5.478
14678WAT     H244277   0.360   9.677   5.492
14679WAT      O44278   8.220   0.138   1.124
14679WAT     H144279   8.279   0.061   1.099
14679WAT     H244280   8.127   0.121   1.094
14680WAT      O44281   6.219   7.292   1.073
14680WAT     H144282   6.191   7.356   1.002
14680WAT     H244283   6.196   7.329   1.163
14681WAT      O44284   9.847   6.952   4.515
14681WAT     H144285   9.816   7.025   4.577
14681WAT     H244286   9.904   6.888   4.566
14682WAT      O44287   7.004   5.617   0.900
14682WAT     H144288   6.958   5.534   0.934
14682WAT     H244289   7.102   5.601   0.894
14683WAT      O44290   8.822   9.246   7.577
14683WAT     H144291   8.840   9.288   7.488
14683WAT     H244292   8.868   9.158   7.583
14684WAT      O44293   1.232   4.813   9.735
14684WAT     H144294   1.267   4.731   9.780
14684WAT     H244295   1.226   4.888   9.802
14685WAT      O44296   1.085   6.781   7.825
14685WAT     H144297   1.156   6.850   7.836
14685WAT     H244298   1.124   6.698   7.786
14686WAT      O44299   9.421   9.803   1.067
14686WAT     H144300   9.433   9.841   1.159
14686WAT     H244301   9.478   9.722   1.056
14687WAT      O44302   4.306   5.792   5.875
14687WAT     H144303   4.331   5.888   5.858
14687WAT     H244304   4.346   5.734   5.804
14688WAT      O44305   9.561   5.762   0.603
14688WAT     H144306   9.534   5.783   0.509
14688WAT     H244307   9.510   5.819   0.666
14689WAT      O44308   4.507   6.231   6.357
14689WAT     H144309   4.550   6.303   6.412
14689WAT     H244310   4.427   6.269   6.311
14690WAT      O44311   6.863   3.792   4.436
14690WAT     H144312   6.918   3.710   4.450
14690WAT     H244313   6.802   3.805   4.514
14691WAT      O44314   2.415   4.585   4.185
14691WAT     H144315   2.440   4.489   4.192
14691WAT     H244316   2.318   4.592   4.162
14692WAT      O44317   4.766   7.534   9.808
14692WAT     H144318   4.815   7.595   9.746
14692WAT     H244319   4.768   7.441   9.772
14693WAT      O44320   6.508   6.850   3.526
14693WAT     H144321   6.442   6.830   3.598
14693WAT     H244322   6.525   6.768   3.472
14694WAT      O44323   0.317   4.581   0.942
14694WAT     H144324   0.250   4.532   0.887
14694WAT     H244325   0.304   4.680   0.930
14695WAT      O44326   5.700   0.377   3.515
14695WAT     H144327   5.654   0.315   3.452
14695WAT     H244328   5.647   0.461   3.525
14696WAT      O44329   6.430   7.262   2.564
14696WAT     H144330   6.345   7.223   2.601
14696WAT     H244331   6.407   7.335   2.500
14697WAT      O44332   1.153   7.476   1.079
14697WAT     H144333   1.184   7.557   1.127
14697WAT     H244334   1.054   7.480   1.067
14698WAT      O44335   3.780   2.312   2.552
14698WAT     H144336   3.764   2.216   2.573
14698WAT     H244337   3.756   2.369   2.630
14699WAT      O44338   2.539   8.969   2.164
14699WAT     H144339   2.485   8.953   2.247
14699WAT     H244340   2.617   8.907   2.163
14700WAT      O44341   8.508   4.862   7.973
14700WAT     H144342   8.507   4.960   7.994
14700WAT     H244343   8.454   4.814   8.042
14701WAT      O44344   3.619   5.044   1.356
14701WAT     H144345   3.668   4.958   1.371
14701WAT     H244346   3.633   5.074   1.262
14702WAT      O44347   8.811   4.565   2.169
14702WAT     H144348   8.843   4.587   2.077
14702WAT     H244349   8.846   4.474   2.195
14703WAT      O44350   4.753   8.202   9.119
14703WAT     H144351   4.819   8.203   9.044
14703WAT     H244352   4.777   8.273   9.185
14704WAT      O44353   2.426   7.813   8.348
14704WAT     H144354   2.501   7.753   8.374
14704WAT     H244355   2.458   7.908   8.345
14705WAT      O44356   2.152   1.628   3.546
14705WAT     H144357   2.118   1.632   3.452
14705WAT     H244358   2.090   1.574   3.603
14706WAT      O44359   1.112   5.434   7.618
14706WAT     H144360   1.037   5.385   7.573
14706WAT     H244361   1.165   5.370   7.674
14707WAT      O44362   2.477   2.241   5.016
14707WAT     H144363   2.458   2.147   4.988
14707WAT     H244364   2.530   2.287   4.944
14708WAT      O44365   0.827   8.002   9.492
14708WAT     H144366   0.825   7.903   9.478
14708WAT     H244367   0.805   8.022   9.587
14709WAT      O44368   2.598   8.658   6.008
14709WAT     H144369   2.681   8.710   6.031
14709WAT     H244370   2.532   8.719   5.964
14710WAT      O44371   5.223   2.445   9.233
14710WAT     H144372   5.298   2.486   9.286
14710WAT     H244373   5.250   2.354   9.204
14711WAT      O44374   5.215   9.679   5.562
14711WAT     H144375   5.313   9.677   5.541
14711WAT     H244376   5.199   9.635   5.651
14712WAT      O44377   2.428   7.393   7.828
14712WAT     H144378   2.389   7.303   7.806
14712WAT     H244379   2.366   7.465   7.797
14713WAT      O44380   1.957   0.411   1.603
14713WAT     H144381   2.033   0.394   1.540
14713WAT     H244382   1.877   0.440   1.552
14714WAT      O44383   6.286   3.560   8.941
14714WAT     H144384   6.312   3.655   8.951
14714WAT     H244385   6.188   3.554   8.922
14715WAT      O44386   3.138   8.318   0.915
14715WAT     H144387   3.065   8.251   0.906
14715WAT     H244388   3.101   8.410   0.899
14716WAT      O44389   6.203   9.119   5.734
14716WAT     H144390   6.184   9.088   5.827
14716WAT     H244391   6.121   9.109   5.678
14717WAT      O44392   6.203   9.060   3.999
14717WAT     H144393   6.271   9.128   4.029
14717WAT     H244394   6.177   9.003   4.077
14718WAT      O44395   3.519   3.794   6.001
14718WAT     H144396   3.467   3.853   6.062
14718WAT     H244397   3.612   3.831   5.991
14719WAT      O44398   4.860   4.035   7.581
14719WAT     H144399   4.790   3.963   7.577
14719WAT     H244400   4.819   4.122   7.556
14720WAT      O44401   2.437   2.723   9.628
14720WAT     H144402   2.354   2.775   9.644
14720WAT     H244403   2.418   2.648   9.565
14721WAT      O44404   3.805   7.533   4.496
14721WAT     H144405   3.709   7.512   4.475
14721WAT     H244406   3.813   7.628   4.525
14722WAT      O44407   4.872   3.403   0.833
14722WAT     H144408   4.855   3.305   0.840
14722WAT     H244409   4.789   3.448   0.797
14723WAT      O44410   7.503   7.572   4.760
14723WAT     H144411   7.503   7.654   4.818
14723WAT     H244412   7.584   7.517   4.779
14724WAT      O44413   3.627   2.855   8.497
14724WAT     H144414   3.648   2.847   8.400
14724WAT     H244415   3.666   2.776   8.546
14725WAT      O44416   8.710   3.985   8.465
14725WAT     H144417   8.802   4.006   8.431
14725WAT     H244418   8.663   4.070   8.488
14726WAT      O44419   1.869   1.932   8.882
14726WAT     H144420   1.847   1.836   8.866
14726WAT     H244421   1.790   1.989   8.858
14727WAT      O44422   4.985   6.860   1.526
14727WAT     H144423   5.073   6.898   1.555
14727WAT     H244424   4.992   6.828   1.431
14728WAT      O44425   3.503   5.420   7.690
14728WAT     H144426   3.443   5.393   7.766
14728WAT     H244427   3.567   5.346   7.669
14729WAT      O44428   7.327   4.613   8.032
14729WAT     H144429   7.298   4.597   8.126
14729WAT     H244430   7.275   4.553   7.971
14730WAT      O44431   3.620   4.735   6.472
14730WAT     H144432   3.582   4.716   6.382
14730WAT     H244433   3.631   4.649   6.522
14731WAT      O44434   2.034   1.356   0.048
14731WAT     H144435   2.033   1.297   0.129
14731WAT     H244436   1.941   1.388   0.029
14732WAT      O44437   3.566   6.150   9.567
14732WAT     H144438   3.587   6.247   9.563
14732WAT     H244439   3.522   6.129   9.654
14733WAT      O44440   4.234   0.086   2.587
14733WAT     H144441   4.205   0.045   2.500
14733WAT     H244442   4.161   0.076   2.654
14734WAT      O44443   1.079   3.086   3.483
14734WAT     H144444   1.000   3.026   3.490
14734WAT     H244445   1.112   3.088   3.389
14735WAT      O44446   6.784   2.534   8.171
14735WAT     H144447   6.696   2.505   8.208
14735WAT     H244448   6.851   2.461   8.181
14736WAT      O44449   6.806   8.296   4.736
14736WAT     H144450   6.743   8.238   4.787
14736WAT     H244451   6.832   8.375   4.792
14737WAT      O44452   3.441   9.492   7.432
14737WAT     H144453   3.432   9.399   7.398
14737WAT     H244454   3.376   9.552   7.384
14738WAT      O44455   2.359   0.211   1.127
14738WAT     H144456   2.434   0.146   1.138
14738WAT     H244457   2.293   0.197   1.201
14739WAT      O44458   2.772   3.547   0.845
14739WAT     H144459   2.674   3.552   0.824
14739WAT     H244460   2.789   3.593   0.933
14740WAT      O44461   3.454   3.705   8.271
14740WAT     H144462   3.459   3.736   8.366
14740WAT     H244463   3.363   3.726   8.235
14741WAT      O44464   3.699   9.657   5.999
14741WAT     H144465   3.722   9.676   5.904
14741WAT     H244466   3.760   9.709   6.059
14742WAT      O44467   7.784   1.806   3.641
14742WAT     H144468   7.702   1.853   3.676
14742WAT     H244469   7.860   1.821   3.704
14743WAT      O44470   3.636   3.304   2.548
14743WAT     H144471   3.558   3.333   2.604
14743WAT     H244472   3.680   3.384   2.508
14744WAT      O44473   9.694   5.440   4.314
14744WAT     H144474   9.696   5.510   4.386
14744WAT     H244475   9.600   5.428   4.282
14745WAT      O44476   7.069   4.334   4.852
14745WAT     H144477   7.074   4.354   4.950
14745WAT     H244478   7.031   4.413   4.804
14746WAT      O44479   6.435   3.256   6.197
14746WAT     H144480   6.468   3.343   6.163
14746WAT     H244481   6.389   3.207   6.123
14747WAT      O44482   3.383   0.653   5.680
14747WAT     H144483   3.329   0.676   5.762
14747WAT     H244484   3.389   0.733   5.621
14748WAT      O44485   8.960   7.804   1.564
14748WAT     H144486   9.011   7.862   1.501
14748WAT     H244487   8.868   7.789   1.528
14749WAT      O44488   6.108   2.157   0.840
14749WAT     H144489   6.117   2.187   0.935
14749WAT     H244490   6.068   2.065   0.838
14750WAT      O44491   1.957   3.153   1.120
14750WAT     H144492   2.045   3.193   1.096
14750WAT     H244493   1.971   3.062   1.160
14751WAT      O44494   2.078   0.200   6.385
14751WAT     H144495   2.150   0.197   6.454
14751WAT     H244496   1.989   0.210   6.429
14752WAT      O44497   2.338   1.975   9.830
14752WAT     H144498   2.336   2.067   9.790
14752WAT     H244499   2.419   1.926   9.797
14753WAT      O44500   2.410   2.537   9.192
14753WAT     H144501   2.404   2.441   9.166
14753WAT     H244502   2.465   2.586   9.124
14754WAT      O44503   1.225   8.654   1.781
14754WAT     H144504   1.218   8.556   1.798
14754WAT     H244505   1.156   8.681   1.714
14755WAT      O44506   8.135   3.271   3.549
14755WAT     H144507   8.166   3.365   3.562
14755WAT     H244508   8.071   3.267   3.472
14756WAT      O44509   4.667   7.512   2.571
14756WAT     H144510   4.635   7.604   2.550
14756WAT     H244511   4.700   7.508   2.665
14757WAT      O44512   5.846   0.502   0.389
14757WAT     H144513   5.854   0.594   0.351
14757WAT     H244514   5.926   0.482   0.445
14758WAT      O44515   8.418   4.219   3.196
14758WAT     H144516   8.379   4.287   3.133
14758WAT     H244517   8.486   4.164   3.149
14759WAT      O44518   9.221   5.203   5.834
14759WAT     H144519   9.229   5.107   5.807
14759WAT     H244520   9.186   5.257   5.757
14760WAT      O44521   8.720   1.600   1.031
14760WAT     H144522   8.771   1.675   1.073
14760WAT     H244523   8.634   1.586   1.081
14761WAT      O44524   7.830   3.240   5.916
14761WAT     H144525   7.842   3.278   5.824
14761WAT     H244526   7.798   3.145   5.909
14762WAT      O44527   9.109   7.125   5.619
14762WAT     H144528   9.175   7.195   5.644
14762WAT     H244529   9.018   7.167   5.610
14763WAT      O44530   8.151   0.591   0.806
14763WAT     H144531   8.135   0.681   0.847
14763WAT     H244532   8.070   0.561   0.756
14764WAT      O44533   1.334   0.697   8.369
14764WAT     H144534   1.373   0.653   8.450
14764WAT     H244535   1.404   0.753   8.324
14765WAT      O44536   1.830   5.482   7.653
14765WAT     H144537   1.814   5.518   7.745
14765WAT     H244538   1.783   5.395   7.643
14766WAT      O44539   6.047   5.261   3.308
14766WAT     H144540   6.084   5.168   3.316
14766WAT     H244541   6.061   5.309   3.395
14767WAT      O44542   5.783   7.144   4.577
14767WAT     H144543   5.739   7.058   4.602
14767WAT     H244544   5.877   7.127   4.547
14768WAT      O44545   5.084   3.680   1.338
14768WAT     H144546   5.054   3.775   1.333
14768WAT     H244547   5.182   3.676   1.355
14769WAT      O44548   1.603   0.989   6.012
14769WAT     H144549   1.674   1.058   6.025
14769WAT     H244550   1.533   1.024   5.949
14770WAT      O44551   5.068   0.654   2.864
14770WAT     H144552   5.107   0.728   2.917
14770WAT     H244553   5.131   0.628   2.791
14771WAT      O44554   7.561   7.024   8.022
14771WAT     H144555   7.646   6.988   7.982
14771WAT     H244556   7.524   6.958   8.087
14772WAT      O44557   4.952   0.960   7.805
14772WAT     H144558   4.896   0.880   7.828
14772WAT     H244559   4.908   1.011   7.731
14773WAT      O44560   9.426   1.043   1.776
14773WAT     H144561   9.386   0.971   1.719
14773WAT     H244562   9.473   1.001   1.854
14774WAT      O44563   3.641   7.916   0.516
14774WAT     H144564   3.623   7.821   0.488
14774WAT     H244565   3.740   7.929   0.523
14775WAT      O44566   1.548   2.634   3.270
14775WAT     H144567   1.450   2.631   3.250
14775WAT     H244568   1.561   2.639   3.369
14776WAT      O44569   5.544   4.517   3.372
14776WAT     H144570   5.614   4.588   3.385
14776WAT     H244571   5.511   4.487   3.461
14777WAT      O44572   7.534   7.857   3.420
14777WAT     H144573   7.557   7.803   3.339
14777WAT     H244574   7.589   7.941   3.420
14778WAT      O44575   5.981   8.951   6.361
14778WAT     H144576   6.045   9.026   6.346
14778WAT     H244577   5.984   8.923   6.457
14779WAT      O44578   7.905   0.367   8.915
14779WAT     H144579   7.843   0.333   8.986
14779WAT     H244580   7.890   0.315   8.831
14780WAT      O44581   5.832   7.318   3.075
14780WAT     H144582   5.802   7.303   2.981
14780WAT     H244583   5.840   7.230   3.122
14781WAT      O44584   7.267   0.088   1.077
14781WAT     H144585   7.226   0.151   1.010
14781WAT     H244586   7.365   0.105   1.082
14782WAT      O44587   5.282   4.058   6.047
14782WAT     H144588   5.271   4.063   6.147
14782WAT     H244589   5.380   4.055   6.025
14783WAT      O44590   4.877   2.031   6.656
14783WAT     H144591   4.871   2.004   6.560
14783WAT     H244592   4.887   1.949   6.713
14784WAT      O44593   1.473   2.990   4.815
14784WAT     H144594   1.454   2.892   4.808
14784WAT     H244595   1.412   3.030   4.885
14785WAT      O44596   8.568   7.434   7.074
14785WAT     H144597   8.526   7.439   6.984
14785WAT     H244598   8.644   7.498   7.079
14786WAT      O44599   6.298   8.516   0.951
14786WAT     H144600   6.394   8.540   0.964
14786WAT     H244601   6.269   8.451   1.021
14787WAT      O44602   0.097   5.665   2.807
14787WAT     H144603   0.146   5.675   2.720
14787WAT     H244604   0.154   5.701   2.881
14788WAT      O44605   3.942   7.210   0.605
14788WAT     H144606   3.889   7.294   0.614
14788WAT     H244607   3.963   7.174   0.696
14789WAT      O44608   3.008   4.645   4.279
14789WAT     H144609   2.962   4.646   4.190
14789WAT     H244610   3.068   4.565   4.285
14790WAT      O44611   4.058   8.099   9.860
14790WAT     H144612   4.109   8.183   9.877
14790WAT     H244613   4.057   8.081   9.762
14791WAT      O44614   3.728   0.367   2.413
14791WAT     H144615   3.705   0.440   2.348
14791WAT     H244616   3.647   0.311   2.429
14792WAT      O44617   1.852   2.498   3.471
14792WAT     H144618   1.799   2.413   3.466
14792WAT     H244619   1.898   2.503   3.560
14793WAT      O44620   0.504   1.246   5.394
14793WAT     H144621   0.574   1.176   5.403
14793WAT     H244622   0.490   1.267   5.298
14794WAT      O44623   3.920   1.486   9.038
14794WAT     H144624   3.873   1.442   9.115
14794WAT     H244625   3.959   1.415   8.979
14795WAT      O44626   0.420   7.494   8.727
14795WAT     H144627   0.446   7.462   8.636
14795WAT     H244628   0.494   7.548   8.766
14796WAT      O44629   9.610   5.911   4.371
14796WAT     H144630   9.525   5.899   4.320
14796WAT     H244631   9.620   6.008   4.396
14797WAT      O44632   0.523   8.969   7.060
14797WAT     H144633   0.463   8.892   7.082
14797WAT     H244634   0.604   8.935   7.013
14798WAT      O44635   6.873   4.952   5.194
14798WAT     H144636   6.884   4.992   5.103
14798WAT     H244637   6.913   4.861   5.195
14799WAT      O44638   7.505   9.759   2.829
14799WAT     H144639   7.409   9.734   2.826
14799WAT     H244640   7.535   9.769   2.924
14800WAT      O44641   6.467   6.399   5.788
14800WAT     H144642   6.477   6.483   5.841
14800WAT     H244643   6.552   6.380   5.739
14801WAT      O44644   8.053   4.140   2.287
14801WAT     H144645   7.974   4.156   2.346
14801WAT     H244646   8.026   4.154   2.191
14802WAT      O44647   4.473   7.307   3.453
14802WAT     H144648   4.535   7.234   3.480
14802WAT     H244649   4.486   7.386   3.513
14803WAT      O44650   2.023   6.624   7.431
14803WAT     H144651   2.076   6.555   7.382
14803WAT     H244652   1.986   6.584   7.515
14804WAT      O44653   1.833   4.666   5.644
14804WAT     H144654   1.761   4.736   5.649
14804WAT     H244655   1.792   4.578   5.621
14805WAT      O44656   0.326   8.312   1.898
14805WAT     H144657   0.254   8.244   1.912
14805WAT     H244658   0.371   8.296   1.810
14806WAT      O44659   0.706   8.537   1.116
14806WAT     H144660   0.714   8.570   1.210
14806WAT     H244661   0.749   8.447   1.109
14807WAT      O44662   3.556  -0.001   3.699
14807WAT     H144663   3.622   0.073   3.681
14807WAT     H244664   3.467   0.023   3.660
14808WAT      O44665   2.827   6.661   0.777
14808WAT     H144666   2.795   6.652   0.683
14808WAT     H244667   2.750   6.683   0.837
14809WAT      O44668   4.660   2.743   9.700
14809WAT     H144669   4.614   2.692   9.627
14809WAT     H244670   4.751   2.705   9.715
14810WAT      O44671   7.475   6.099   9.298
14810WAT     H144672   7.532   6.092   9.380
14810WAT     H244673   7.446   6.007   9.270
14811WAT      O44674   8.455   7.664   3.950
14811WAT     H144675   8.391   7.590   3.963
14811WAT     H244676   8.428   7.718   3.870
14812WAT      O44677   4.650   3.522   4.874
14812WAT     H144678   4.588   3.566   4.938
14812WAT     H244679   4.602   3.506   4.787
14813WAT      O44680   5.349   6.779   2.512
14813WAT     H144681   5.448   6.787   2.498
14813WAT     H244682   5.307   6.869   2.502
14814WAT      O44683   8.734   9.089   9.655
14814WAT     H144684   8.670   9.072   9.580
14814WAT     H244685   8.821   9.122   9.617
14815WAT      O44686   7.144   6.792   0.847
14815WAT     H144687   7.193   6.855   0.908
14815WAT     H244688   7.059   6.835   0.816
14816WAT      O44689   2.656   2.082   3.525
14816WAT     H144690   2.565   2.123   3.518
14816WAT     H244691   2.720   2.148   3.563
14817WAT      O44692   7.041   2.036   9.004
14817WAT     H144693   6.960   2.076   9.047
14817WAT     H244694   7.124   2.070   9.049
14818WAT      O44695   8.441   1.219   7.559
14818WAT     H144696   8.444   1.200   7.657
14818WAT     H244697   8.488   1.305   7.541
14819WAT      O44698   9.632   1.886   1.844
14819WAT     H144699   9.713   1.945   1.851
14819WAT     H244700   9.557   1.926   1.896
14820WAT      O44701   3.039   4.360   7.326
14820WAT     H144702   3.116   4.423   7.321
14820WAT     H244703   2.960   4.407   7.365
14821WAT      O44704   7.054   0.528   8.668
14821WAT     H144705   7.116   0.546   8.745
14821WAT     H244706   7.042   0.612   8.614
14822WAT      O44707   2.993   2.852   7.155
14822WAT     H144708   3.013   2.932   7.210
14822WAT     H244709   3.048   2.854   7.072
14823WAT      O44710   1.657   1.183   9.417
14823WAT     H144711   1.624   1.262   9.365
14823WAT     H244712   1.721   1.131   9.360
14824WAT      O44713   3.681   8.093   2.019
14824WAT     H144714   3.722   8.126   2.104
14824WAT     H244715   3.686   7.993   2.017
14825WAT      O44716   9.529   1.987   1.336
14825WAT     H144717   9.545   1.909   1.275
14825WAT     H244718   9.614   2.009   1.384
14826WAT      O44719   8.939   3.022   0.268
14826WAT     H144720   8.891   3.080   0.334
14826WAT     H244721   8.996   2.956   0.316
14827WAT      O44722   9.225   1.368   7.747
14827WAT     H144723   9.148   1.375   7.810
14827WAT     H244724   9.303   1.419   7.784
14828WAT      O44725   3.736   3.484   3.328
14828WAT     H144726   3.735   3.507   3.425
14828WAT     H244727   3.723   3.386   3.316
14829WAT      O44728   9.445   2.647   6.608
14829WAT     H144729   9.379   2.583   6.648
14829WAT     H244730   9.532   2.640   6.656
14830WAT      O44731   5.501   3.307   9.361
14830WAT     H144732   5.561   3.380   9.328
14830WAT     H244733   5.556   3.236   9.405
14831WAT      O44734   1.550   2.219   0.257
14831WAT     H144735   1.492   2.217   0.176
14831WAT     H244736   1.520   2.292   0.318
14832WAT      O44737   5.182   9.086   8.016
14832WAT     H144738   5.201   9.160   8.080
14832WAT     H244739   5.188   8.998   8.064
14833WAT      O44740   8.460   7.956   9.586
14833WAT     H144741   8.460   7.997   9.495
14833WAT     H244742   8.542   7.985   9.635
14834WAT      O44743   2.811   8.595   0.437
14834WAT     H144744   2.802   8.664   0.510
14834WAT     H244745   2.882   8.530   0.462
14835WAT      O44746   0.253   8.217   4.443
14835WAT     H144747   0.261   8.125   4.405
14835WAT     H244748   0.266   8.284   4.369
14836WAT      O44749   2.459   4.027   7.492
14836WAT     H144750   2.526   4.067   7.431
14836WAT     H244751   2.496   4.024   7.585
14837WAT      O44752   7.974   1.091   2.763
14837WAT     H144753   8.069   1.108   2.789
14837WAT     H244754   7.963   1.109   2.665
14838WAT      O44755   3.365   8.823   5.159
14838WAT     H144756   3.287   8.870   5.200
14838WAT     H244757   3.421   8.782   5.231
14839WAT      O44758   9.380   7.985   2.163
14839WAT     H144759   9.389   7.990   2.064
14839WAT     H244760   9.455   8.035   2.206
14840WAT      O44761   1.801   2.410   7.918
14840WAT     H144762   1.824   2.482   7.983
14840WAT     H244763   1.703   2.413   7.899
14841WAT      O44764   1.479   7.599   7.261
14841WAT     H144765   1.476   7.685   7.313
14841WAT     H244766   1.570   7.559   7.269
14842WAT      O44767   4.847   1.198   5.906
14842WAT     H144768   4.863   1.156   5.995
14842WAT     H244769   4.829   1.295   5.917
14843WAT      O44770   1.506   5.865   0.165
14843WAT     H144771   1.450   5.784   0.151
14843WAT     H244772   1.469   5.919   0.242
14844WAT      O44773   2.163   7.803   3.430
14844WAT     H144774   2.080   7.852   3.403
14844WAT     H244775   2.141   7.734   3.498
14845WAT      O44776   8.894   8.872   9.632
14845WAT     H144777   8.831   8.948   9.648
14845WAT     H244778   8.988   8.903   9.648
14846WAT      O44779   6.712   2.371   7.936
14846WAT     H144780   6.644   2.317   7.986
14846WAT     H244781   6.740   2.449   7.992
14847WAT      O44782   6.304   6.632   5.059
14847WAT     H144783   6.357   6.583   4.989
14847WAT     H244784   6.344   6.722   5.074
14848WAT      O44785   1.027   0.713   9.411
14848WAT     H144786   1.064   0.718   9.318
14848WAT     H244787   1.069   0.636   9.460
14849WAT      O44788   3.940   7.395   5.486
14849WAT     H144789   3.945   7.337   5.405
14849WAT     H244790   3.920   7.489   5.459
14850WAT      O44791   8.669   6.489   6.231
14850WAT     H144792   8.706   6.406   6.275
14850WAT     H244793   8.636   6.466   6.140
14851WAT      O44794   8.284   5.857   5.282
14851WAT     H144795   8.345   5.935   5.298
14851WAT     H244796   8.299   5.788   5.352
14852WAT      O44797   2.375   6.789   0.728
14852WAT     H144798   2.389   6.881   0.762
14852WAT     H244799   2.277   6.769   0.725
14853WAT      O44800   2.499   8.419   6.116
14853WAT     H144801   2.524   8.503   6.068
14853WAT     H244802   2.541   8.341   6.069
14854WAT      O44803   1.310   4.349   4.362
14854WAT     H144804   1.339   4.437   4.325
14854WAT     H244805   1.380   4.280   4.341
14855WAT      O44806   8.005   6.368   7.513
14855WAT     H144807   7.987   6.331   7.422
14855WAT     H244808   7.921   6.364   7.568
14856WAT      O44809   8.323   3.695   5.048
14856WAT     H144810   8.376   3.612   5.066
14856WAT     H244811   8.232   3.685   5.088
14857WAT      O44812   9.554   0.786   6.432
14857WAT     H144813   9.568   0.879   6.398
14857WAT     H244814   9.457   0.765   6.432
14858WAT      O44815   3.244   6.837   0.147
14858WAT     H144816   3.285   6.751   0.176
14858WAT     H244817   3.157   6.850   0.193
14859WAT      O44818   7.265   0.318   2.284
14859WAT     H144819   7.201   0.308   2.360
14859WAT     H244820   7.359   0.310   2.319
14860WAT      O44821   9.772   6.092   3.268
14860WAT     H144822   9.739   6.129   3.355
14860WAT     H244823   9.793   5.994   3.280
14861WAT      O44824   8.919   1.316   2.889
14861WAT     H144825   8.856   1.239   2.877
14861WAT     H244826   8.934   1.332   2.986
14862WAT      O44827   8.482   0.913   0.765
14862WAT     H144828   8.502   0.847   0.693
14862WAT     H244829   8.500   0.871   0.854
14863WAT      O44830   8.757   7.450   6.756
14863WAT     H144831   8.755   7.366   6.809
14863WAT     H244832   8.709   7.522   6.805
14864WAT      O44833   7.888   3.382   0.759
14864WAT     H144834   7.889   3.446   0.836
14864WAT     H244835   7.818   3.312   0.775
14865WAT      O44836   8.538   1.412   8.308
14865WAT     H144837   8.445   1.443   8.326
14865WAT     H244838   8.582   1.387   8.394
14866WAT      O44839   1.302   7.355   7.163
14866WAT     H144840   1.348   7.288   7.221
14866WAT     H244841   1.354   7.441   7.164
14867WAT      O44842   2.655   1.473   1.111
14867WAT     H144843   2.617   1.383   1.090
14867WAT     H244844   2.753   1.474   1.089
14868WAT      O44845   1.021   6.326   0.095
14868WAT     H144846   1.106   6.379   0.100
14868WAT     H244847   1.038   6.239   0.049
14869WAT      O44848   3.333   0.034   7.226
14869WAT     H144849   3.411   0.066   7.280
14869WAT     H244850   3.361   0.027   7.130
14870WAT      O44851   2.205   8.868   6.316
14870WAT     H144852   2.116   8.909   6.334
14870WAT     H244853   2.193   8.787   6.258
14871WAT      O44854   6.950   9.709   8.609
14871WAT     H144855   7.027   9.769   8.588
14871WAT     H244856   6.881   9.717   8.538
14872WAT      O44857   2.402   0.260   4.836
14872WAT     H144858   2.328   0.214   4.787
14872WAT     H244859   2.403   0.228   4.931
14873WAT      O44860   5.461   2.881   9.555
14873WAT     H144861   5.446   2.868   9.653
14873WAT     H244862   5.541   2.827   9.526
14874WAT      O44863   7.964   4.312   0.608
14874WAT     H144864   8.002   4.314   0.700
14874WAT     H244865   7.895   4.239   0.603
14875WAT      O44866   7.157   2.676   9.829
14875WAT     H144867   7.186   2.769   9.804
14875WAT     H244868   7.068   2.657   9.787
14876WAT      O44869   4.116   0.305   0.728
14876WAT     H144870   4.162   0.365   0.794
14876WAT     H244871   4.076   0.360   0.655
14877WAT      O44872   5.510   4.087   6.279
14877WAT     H144873   5.551   4.177   6.292
14877WAT     H244874   5.410   4.094   6.288
14878WAT      O44875   7.004   8.197   7.375
14878WAT     H144876   7.039   8.129   7.311
14878WAT     H244877   7.040   8.178   7.467
14879WAT      O44878   0.953   0.921   5.666
14879WAT     H144879   0.984   1.004   5.712
14879WAT     H244880   0.943   0.848   5.733
14880WAT      O44881   1.357   8.215   7.132
14880WAT     H144882   1.384   8.182   7.041
14880WAT     H244883   1.391   8.153   7.202
14881WAT      O44884   5.670   3.930   8.652
14881WAT     H144885   5.632   3.940   8.744
14881WAT     H244886   5.692   3.834   8.635
14882WAT      O44887   3.851   7.570   5.861
14882WAT     H144888   3.861   7.547   5.957
14882WAT     H244889   3.915   7.643   5.837
14883WAT      O44890   1.995   1.817   3.877
14883WAT     H144891   2.030   1.870   3.955
14883WAT     H244892   1.941   1.740   3.911
14884WAT      O44893   8.591   9.524   2.609
14884WAT     H144894   8.519   9.493   2.671
14884WAT     H244895   8.563   9.507   2.514
14885WAT      O44896   0.964   0.376   1.886
14885WAT     H144897   0.972   0.419   1.797
14885WAT     H244898   0.924   0.285   1.876
14886WAT      O44899   3.539   0.680   2.661
14886WAT     H144900   3.533   0.748   2.734
14886WAT     H244901   3.634   0.650   2.651
14887WAT      O44902   1.872   0.931   1.498
14887WAT     H144903   1.897   0.835   1.515
14887WAT     H244904   1.776   0.946   1.523
14888WAT      O44905   4.884   4.971   9.816
14888WAT     H144906   4.915   4.914   9.892
14888WAT     H244907   4.946   5.049   9.805
14889WAT      O44908   7.216   5.689   9.320
14889WAT     H144909   7.140   5.627   9.300
14889WAT     H244910   7.301   5.651   9.281
14890WAT      O44911   2.769   8.286   8.647
14890WAT     H144912   2.791   8.265   8.742
14890WAT     H244913   2.787   8.206   8.590
14891WAT      O44914   8.933   4.360   8.623
14891WAT     H144915   8.878   4.386   8.545
14891WAT     H244916   8.941   4.260   8.627
14892WAT      O44917   5.657   2.444   5.488
14892WAT     H144918   5.725   2.413   5.555
14892WAT     H244919   5.611   2.365   5.448
14893WAT      O44920   6.903   4.407   3.380
14893WAT     H144921   6.955   4.331   3.421
14893WAT     H244922   6.807   4.379   3.369
14894WAT      O44923   2.349   2.369   3.672
14894WAT     H144924   2.316   2.416   3.753
14894WAT     H244925   2.306   2.280   3.664
14895WAT      O44926   2.725   6.205   4.460
14895WAT     H144927   2.734   6.107   4.445
14895WAT     H244928   2.660   6.221   4.535
14896WAT      O44929   4.247   0.978   6.492
14896WAT     H144930   4.219   0.908   6.558
14896WAT     H244931   4.346   0.979   6.485
14897WAT      O44932   2.831   7.897   7.366
14897WAT     H144933   2.854   7.800   7.376
14897WAT     H244934   2.763   7.922   7.435
14898WAT      O44935   9.753   5.839   2.348
14898WAT     H144936   9.698   5.775   2.401
14898WAT     H244937   9.802   5.900   2.410
14899WAT      O44938   7.110   3.920   7.563
14899WAT     H144939   7.123   3.993   7.497
14899WAT     H244940   7.046   3.852   7.526
14900WAT      O44941   7.091   0.187   6.020
14900WAT     H144942   7.033   0.107   6.035
14900WAT     H244943   7.103   0.201   5.921
14901WAT      O44944   6.642   0.480   6.605
14901WAT     H144945   6.705   0.505   6.531
14901WAT     H244946   6.654   0.542   6.682
14902WAT      O44947   7.857   7.662   4.493
14902WAT     H144948   7.911   7.587   4.533
14902WAT     H244949   7.788   7.692   4.558
14903WAT      O44950   1.215   7.102   3.500
14903WAT     H144951   1.231   7.145   3.589
14903WAT     H244952   1.189   7.172   3.433
14904WAT      O44953   9.833   0.675   7.942
14904WAT     H144954   9.792   0.766   7.946
14904WAT     H244955   9.840   0.647   7.846
14905WAT      O44956   7.042   2.891   6.770
14905WAT     H144957   6.947   2.919   6.786
14905WAT     H244958   7.074   2.931   6.685
14906WAT      O44959   4.285   2.312   1.999
14906WAT     H144960   4.287   2.400   1.950
14906WAT     H244961   4.235   2.323   2.085
14907WAT      O44962   5.793   3.409   3.195
14907WAT     H144963   5.842   3.468   3.131
14907WAT     H244964   5.843   3.407   3.282
14908WAT      O44965   1.122   2.533   5.828
14908WAT     H144966   1.102   2.593   5.905
14908WAT     H244967   1.039   2.485   5.800
14909WAT      O44968   5.594   0.754   5.590
14909WAT     H144969   5.617   0.827   5.526
14909WAT     H244970   5.666   0.685   5.590
14910WAT      O44971   0.210   9.560   0.716
14910WAT     H144972   0.133   9.566   0.779
14910WAT     H244973   0.184   9.601   0.628
14911WAT      O44974   2.803   2.783   6.715
14911WAT     H144975   2.756   2.745   6.795
14911WAT     H244976   2.883   2.728   6.694
14912WAT      O44977   0.850   6.481   0.641
14912WAT     H144978   0.921   6.482   0.571
14912WAT     H244979   0.836   6.574   0.675
14913WAT      O44980   5.215   5.393   8.855
14913WAT     H144981   5.242   5.394   8.759
14913WAT     H244982   5.287   5.350   8.909
14914WAT      O44983   0.600   1.063   4.441
14914WAT     H144984   0.666   1.030   4.373
14914WAT     H244985   0.591   1.162   4.434
14915WAT      O44986   5.385   2.401   6.384
14915WAT     H144987   5.353   2.329   6.445
14915WAT     H244988   5.320   2.413   6.309
14916WAT      O44989   9.633   2.949   1.841
14916WAT     H144990   9.583   2.903   1.768
14916WAT     H244991   9.573   2.963   1.920
14917WAT      O44992   8.522   4.986   2.014
14917WAT     H144993   8.430   4.999   2.051
14917WAT     H244994   8.542   5.059   1.949
14918WAT      O44995   9.483   1.926   3.392
14918WAT     H144996   9.389   1.893   3.381
14918WAT     H244997   9.491   2.016   3.350
14919WAT      O44998   0.325   7.950   2.155
14919WAT     H144999   0.287   7.857   2.159
14919WAT     H245000   0.252   8.016   2.173
14920WAT      O45001   2.574   2.669   7.837
14920WAT     H145002   2.548   2.712   7.750
14920WAT     H245003   2.584   2.570   7.823
14921WAT      O45004   8.573   5.262   5.097
14921WAT     H145005   8.544   5.345   5.146
14921WAT     H245006   8.563   5.184   5.158
14922WAT      O45007   5.208   1.670   0.159
14922WAT     H145008   5.143   1.670   0.236
14922WAT     H245009   5.282   1.606   0.178
14923WAT      O45010   3.312   1.276   4.051
14923WAT     H145011   3.343   1.269   3.956
14923WAT     H245012   3.327   1.368   4.085
14924WAT      O45013   3.851   3.755   6.351
14924WAT     H145014   3.855   3.762   6.251
14924WAT     H245015   3.944   3.756   6.388
14925WAT      O45016   8.946   9.472   2.521
14925WAT     H145017   8.885   9.469   2.600
14925WAT     H245018   8.908   9.417   2.447
14926WAT      O45019   4.865   0.980   9.520
14926WAT     H145020   4.833   1.066   9.560
14926WAT     H245021   4.857   0.907   9.587
14927WAT      O45022   2.490   4.230   5.749
14927WAT     H145023   2.468   4.163   5.679
14927WAT     H245024   2.503   4.184   5.837
14928WAT      O45025   2.158   9.297   0.977
14928WAT     H145026   2.171   9.377   0.920
14928WAT     H245027   2.247   9.266   1.012
14929WAT      O45028   5.641   6.406   2.133
14929WAT     H145029   5.591   6.367   2.210
14929WAT     H245030   5.702   6.338   2.094
14930WAT      O45031   1.611   4.687   8.918
14930WAT     H145032   1.695   4.703   8.969
14930WAT     H245033   1.555   4.620   8.967
14931WAT      O45034   5.600   4.713   9.253
14931WAT     H145035   5.699   4.705   9.245
14931WAT     H245036   5.556   4.635   9.207
14932WAT      O45037   3.272   4.078   8.882
14932WAT     H145038   3.316   3.988   8.885
14932WAT     H245039   3.183   4.073   8.928
14933WAT      O45040   7.600   2.500   5.809
14933WAT     H145041   7.655   2.541   5.883
14933WAT     H245042   7.545   2.426   5.846
14934WAT      O45043   6.845   8.863   2.091
14934WAT     H145044   6.944   8.861   2.078
14934WAT     H245045   6.799   8.860   2.003
14935WAT      O45046   2.266   9.653   5.329
14935WAT     H145047   2.231   9.743   5.353
14935WAT     H245048   2.190   9.589   5.322
14936WAT      O45049   0.302   3.499   9.262
14936WAT     H145050   0.351   3.550   9.191
14936WAT     H245051   0.204   3.520   9.257
14937WAT      O45052   6.236   5.828   4.833
14937WAT     H145053   6.225   5.736   4.871
14937WAT     H245054   6.256   5.893   4.906
14938WAT      O45055   2.115   9.195   5.474
14938WAT     H145056   2.173   9.184   5.393
14938WAT     H245057   2.140   9.128   5.543
14939WAT      O45058   4.997   2.586   2.024
14939WAT     H145059   4.933   2.661   2.004
14939WAT     H245060   5.082   2.624   2.060
14940WAT      O45061   1.341   3.643   6.392
14940WAT     H145062   1.301   3.721   6.344
14940WAT     H245063   1.291   3.625   6.476
14941WAT      O45064   0.376   6.912   1.948
14941WAT     H145065   0.351   6.997   1.902
14941WAT     H245066   0.300   6.847   1.941
14942WAT      O45067   4.405   2.640   7.380
14942WAT     H145068   4.337   2.663   7.310
14942WAT     H245069   4.381   2.553   7.422
14943WAT      O45070   8.262   8.099   9.223
14943WAT     H145071   8.354   8.087   9.260
14943WAT     H245072   8.261   8.178   9.162
14944WAT      O45073   3.513   6.193   7.891
14944WAT     H145074   3.479   6.267   7.949
14944WAT     H245075   3.566   6.129   7.945
14945WAT      O45076   9.883   6.000   1.311
14945WAT     H145077   9.943   6.078   1.330
14945WAT     H245078   9.788   6.030   1.316
14946WAT      O45079   5.214   8.756   9.683
14946WAT     H145080   5.197   8.730   9.588
14946WAT     H245081   5.224   8.673   9.739
14947WAT      O45082   8.412   0.560   5.362
14947WAT     H145083   8.344   0.593   5.297
14947WAT     H245084   8.399   0.463   5.378
14948WAT      O45085   8.988   2.871   8.157
14948WAT     H145086   9.060   2.853   8.224
14948WAT     H245087   8.948   2.784   8.127
14949WAT      O45088   5.062   6.379   0.540
14949WAT     H145089   5.044   6.337   0.450
14949WAT     H245090   5.034   6.475   0.538
14950WAT      O45091   0.218   9.478   4.277
14950WAT     H145092   0.182   9.558   4.323
14950WAT     H245093   0.221   9.401   4.340
14951WAT      O45094   4.683   8.065   7.645
14951WAT     H145095   4.739   7.992   7.607
14951WAT     H245096   4.721   8.154   7.618
14952WAT      O45097   5.977   6.402   9.230
14952WAT     H145098   5.896   6.460   9.218
14952WAT     H245099   6.031   6.437   9.307
14953WAT      O45100   9.341   6.147   8.451
14953WAT     H145101   9.413   6.085   8.420
14953WAT     H245102   9.257   6.095   8.469
14954WAT      O45103   1.776   5.769   1.178
14954WAT     H145104   1.822   5.832   1.241
14954WAT     H245105   1.845   5.710   1.135
14955WAT      O45106   4.515   7.697   6.710
14955WAT     H145107   4.605   7.671   6.747
14955WAT     H245108   4.477   7.621   6.659
14956WAT      O45109   9.770   3.293   6.494
14956WAT     H145110   9.674   3.301   6.466
14956WAT     H245111   9.808   3.385   6.506
14957WAT      O45112   4.798   1.532   5.828
14957WAT     H145113   4.725   1.519   5.894
14957WAT     H245114   4.779   1.614   5.773
14958WAT      O45115   6.767   4.114   7.069
14958WAT     H145116   6.685   4.151   7.025
14958WAT     H245117   6.759   4.123   7.168
14959WAT      O45118   0.750   2.299   2.981
14959WAT     H145119   0.743   2.248   3.067
14959WAT     H245120   0.798   2.385   2.997
14960WAT      O45121   6.036   8.700   2.616
14960WAT     H145122   5.988   8.757   2.684
14960WAT     H245123   6.022   8.604   2.639
14961WAT      O45124   6.203   6.537   7.254
14961WAT     H145125   6.149   6.454   7.267
14961WAT     H245126   6.265   6.524   7.176
14962WAT      O45127   2.302   3.251   5.732
14962WAT     H145128   2.398   3.279   5.738
14962WAT     H245129   2.267   3.230   5.823
14963WAT      O45130   1.383   4.173   3.519
14963WAT     H145131   1.396   4.122   3.604
14963WAT     H245132   1.366   4.110   3.444
14964WAT      O45133   5.991   8.337   3.767
14964WAT     H145134   6.046   8.406   3.721
14964WAT     H245135   5.948   8.378   3.848
14965WAT      O45136   1.652   3.364   3.672
14965WAT     H145137   1.572   3.315   3.708
14965WAT     H245138   1.631   3.398   3.580
14966WAT      O45139   3.053   6.063   9.130
14966WAT     H145140   2.977   6.068   9.195
14966WAT     H245141   3.075   5.967   9.111
14967WAT      O45142   8.021   1.111   2.481
14967WAT     H145143   8.105   1.126   2.429
14967WAT     H245144   7.959   1.188   2.467
14968WAT      O45145   7.186   4.426   6.373
14968WAT     H145146   7.101   4.433   6.426
14968WAT     H245147   7.197   4.332   6.341
14969WAT      O45148   9.754   3.369   8.774
14969WAT     H145149   9.819   3.329   8.710
14969WAT     H245150   9.720   3.456   8.737
14970WAT      O45151   1.755   8.309   6.852
14970WAT     H145152   1.705   8.246   6.911
14970WAT     H245153   1.776   8.265   6.765
14971WAT      O45154   5.508   4.638   7.621
14971WAT     H145155   5.505   4.606   7.526
14971WAT     H245156   5.548   4.566   7.678
14972WAT      O45157   9.354   3.918   6.882
14972WAT     H145158   9.289   3.984   6.843
14972WAT     H245159   9.352   3.925   6.982
14973WAT      O45160   4.628   7.152   7.124
14973WAT     H145161   4.633   7.087   7.199
14973WAT     H245162   4.720   7.173   7.092
14974WAT      O45163   1.899   3.766   8.677
14974WAT     H145164   1.846   3.811   8.749
14974WAT     H245165   1.901   3.668   8.695
14975WAT      O45166   9.208   0.525   3.832
14975WAT     H145167   9.271   0.538   3.909
14975WAT     H245168   9.193   0.613   3.787
14976WAT      O45169   5.645   7.802   4.278
14976WAT     H145170   5.698   7.887   4.288
14976WAT     H245171   5.650   7.771   4.183
14977WAT      O45172   8.759   2.959   2.255
14977WAT     H145173   8.748   3.024   2.180
14977WAT     H245174   8.827   2.890   2.230
14978WAT      O45175   1.001   3.468   1.901
14978WAT     H145176   1.068   3.397   1.880
14978WAT     H245177   0.925   3.427   1.953
14979WAT      O45178   7.647   1.925   0.131
14979WAT     H145179   7.580   1.999   0.132
14979WAT     H245180   7.599   1.837   0.127
14980WAT      O45181   7.373   3.762   7.286
14980WAT     H145182   7.337   3.855   7.285
14980WAT     H245183   7.381   3.730   7.380
14981WAT      O45184   1.443   8.142   8.219
14981WAT     H145185   1.409   8.084   8.145
14981WAT     H245186   1.416   8.237   8.202
14982WAT      O45187   0.206   8.021   0.755
14982WAT     H145188   0.168   7.938   0.714
14982WAT     H245189   0.185   8.023   0.852
14983WAT      O45190   6.834   3.286   4.873
14983WAT     H145191   6.913   3.231   4.901
14983WAT     H245192   6.812   3.266   4.778
14984WAT      O45193   1.678   5.439   1.201
14984WAT     H145194   1.703   5.535   1.216
14984WAT     H245195   1.611   5.433   1.127
14985WAT      O45196   5.332   7.108   7.072
14985WAT     H145197   5.426   7.141   7.065
14985WAT     H245198   5.328   7.030   7.134
14986WAT      O45199   4.163   5.038   5.271
14986WAT     H145200   4.075   5.085   5.264
14986WAT     H245201   4.230   5.099   5.312
14987WAT      O45202   0.073   9.060   5.327
14987WAT     H145203   0.112   9.086   5.239
14987WAT     H245204  -0.015   9.105   5.340
14988WAT      O45205   8.627   9.161   1.959
14988WAT     H145206   8.661   9.255   1.968
14988WAT     H245207   8.548   9.149   2.020
14989WAT      O45208   6.624   6.029   2.101
14989WAT     H145209   6.623   5.934   2.130
14989WAT     H245210   6.651   6.087   2.178
14990WAT      O45211   9.056   0.461   0.089
14990WAT     H145212   9.087   0.441   0.182
14990WAT     H245213   9.115   0.412   0.024
14991WAT      O45214   6.820   5.814   0.845
14991WAT     H145215   6.826   5.844   0.749
14991WAT     H245216   6.892   5.747   0.863
14992WAT      O45217   4.583   2.000   8.429
14992WAT     H145218   4.500   1.982   8.376
14992WAT     H245219   4.565   2.070   8.497
14993WAT      O45220   6.356   3.270   5.587
14993WAT     H145221   6.313   3.184   5.614
14993WAT     H245222   6.364   3.274   5.488
14994WAT      O45223   5.590   3.154   0.619
14994WAT     H145224   5.490   3.156   0.617
14994WAT     H245225   5.625   3.212   0.544
14995WAT      O45226   6.987   8.542   1.134
14995WAT     H145227   7.063   8.584   1.183
14995WAT     H245228   6.901   8.581   1.166
14996WAT      O45229   0.805   6.302   4.511
14996WAT     H145230   0.712   6.317   4.543
14996WAT     H245231   0.870   6.336   4.580
14997WAT      O45232   2.430   0.409   3.101
14997WAT     H145233   2.473   0.483   3.051
14997WAT     H245234   2.385   0.445   3.183
14998WAT      O45235   5.213   9.828   6.741
14998WAT     H145236   5.151   9.750   6.730
14998WAT     H245237   5.251   9.827   6.834
14999WAT      O45238   0.463   2.339   4.392
14999WAT     H145239   0.401   2.268   4.358
14999WAT     H245240   0.473   2.411   4.322
15000WAT      O45241   5.304   1.156   3.912
15000WAT     H145242   5.361   1.111   3.981
15000WAT     H245243   5.353   1.157   3.825
15001WAT      O45244   0.109   8.787   2.069
15001WAT     H145245   0.019   8.826   2.054
15001WAT     H245246   0.115   8.696   2.027
15002WAT      O45247   4.159   8.475   7.695
15002WAT     H145248   4.228   8.429   7.750
15002WAT     H245249   4.077   8.418   7.690
15003WAT      O45250   1.455   9.597   3.216
15003WAT     H145251   1.382   9.592   3.283
15003WAT     H245252   1.503   9.509   3.213
15004WAT      O45253   7.392   2.493   5.500
15004WAT     H145254   7.322   2.560   5.472
15004WAT     H245255   7.475   2.542   5.527
15005WAT      O45256   8.209   5.218   8.008
15005WAT     H145257   8.197   5.271   7.924
15005WAT     H245258   8.121   5.202   8.051
15006WAT      O45259   8.288   3.567   3.987
15006WAT     H145260   8.253   3.602   3.901
15006WAT     H245261   8.319   3.473   3.975
15007WAT      O45262   0.835   8.530   3.416
15007WAT     H145263   0.920   8.506   3.464
15007WAT     H245264   0.801   8.617   3.451
15008WAT      O45265   4.638   2.086   1.932
15008WAT     H145266   4.737   2.095   1.926
15008WAT     H245267   4.605   2.137   2.011
15009WAT      O45268   7.929   1.961   1.492
15009WAT     H145269   7.860   1.996   1.427
15009WAT     H245270   7.974   2.039   1.536
15010WAT      O45271   1.520   6.478   0.967
15010WAT     H145272   1.545   6.428   1.050
15010WAT     H245273   1.569   6.565   0.964
15011WAT      O45274   7.457   0.379   0.139
15011WAT     H145275   7.424   0.288   0.114
15011WAT     H245276   7.524   0.372   0.212
15012WAT      O45277   7.870   1.968   6.070
15012WAT     H145278   7.817   2.044   6.110
15012WAT     H245279   7.817   1.883   6.078
15013WAT      O45280   0.594   8.383   2.177
15013WAT     H145281   0.653   8.380   2.257
15013WAT     H245282   0.588   8.293   2.135
15014WAT      O45283   4.598   5.742   6.421
15014WAT     H145284   4.661   5.665   6.418
15014WAT     H245285   4.631   5.809   6.487
15015WAT      O45286   9.300   3.004   6.050
15015WAT     H145287   9.359   3.029   6.127
15015WAT     H245288   9.282   3.085   5.994
15016WAT      O45289   8.389   3.958   8.636
15016WAT     H145290   8.309   3.900   8.620
15016WAT     H245291   8.425   3.989   8.549
15017WAT      O45292   7.486   9.426   3.333
15017WAT     H145293   7.584   9.417   3.347
15017WAT     H245294   7.455   9.360   3.265
15018WAT      O45295   4.609   6.476   6.116
15018WAT     H145296   4.674   6.537   6.162
15018WAT     H245297   4.516   6.505   6.137
15019WAT      O45298   5.894   0.691   8.911
15019WAT     H145299   5.861   0.628   8.982
15019WAT     H245300   5.858   0.783   8.929
15020WAT      O45301   3.510   7.009   8.450
15020WAT     H145302   3.461   7.032   8.366
15020WAT     H245303   3.517   7.090   8.508
15021WAT      O45304   6.302   4.295   7.609
15021WAT     H145305   6.252   4.262   7.529
15021WAT     H245306   6.248   4.364   7.657
15022WAT      O45307   2.772   2.635   2.333
15022WAT     H145308   2.720   2.720   2.333
15022WAT     H245309   2.802   2.614   2.426
15023WAT      O45310   0.046   0.090   2.838
15023WAT     H145311   0.074   0.137   2.754
15023WAT     H245312   0.077   0.142   2.917
15024WAT      O45313   4.854   5.357   2.236
15024WAT     H145314   4.836   5.278   2.295
15024WAT     H245315   4.921   5.333   2.166
15025WAT      O45316   8.776   7.945   6.428
15025WAT     H145317   8.800   8.019   6.365
15025WAT     H245318   8.779   7.978   6.522
15026WAT      O45319   1.322   6.967   7.819
15026WAT     H145320   1.258   7.006   7.753
15026WAT     H245321   1.383   6.903   7.772
15027WAT      O45322   7.143   0.958   2.531
15027WAT     H145323   7.186   0.885   2.585
15027WAT     H245324   7.175   0.952   2.436
15028WAT      O45325   1.519   9.444   8.547
15028WAT     H145326   1.556   9.404   8.631
15028WAT     H245327   1.494   9.539   8.564
15029WAT      O45328   1.103   1.669   7.370
15029WAT     H145329   1.196   1.636   7.351
15029WAT     H245330   1.037   1.599   7.342
15030WAT      O45331   5.428   4.290   2.824
15030WAT     H145332   5.507   4.313   2.882
15030WAT     H245333   5.460   4.252   2.738
15031WAT      O45334   8.176   4.544   4.197
15031WAT     H145335   8.169   4.469   4.263
15031WAT     H245336   8.239   4.614   4.233
15032WAT      O45337   6.815   6.269   9.739
15032WAT     H145338   6.803   6.274   9.639
15032WAT     H245339   6.882   6.198   9.760
15033WAT      O45340   7.955   6.228   8.612
15033WAT     H145341   7.874   6.286   8.609
15033WAT     H245342   8.037   6.285   8.602
15034WAT      O45343   1.005   2.567   8.850
15034WAT     H145344   0.954   2.533   8.928
15034WAT     H245345   1.100   2.586   8.877
15035WAT      O45346   8.356   7.771   3.702
15035WAT     H145347   8.333   7.695   3.641
15035WAT     H245348   8.275   7.796   3.755
15036WAT      O45349   4.160   7.190   8.950
15036WAT     H145350   4.113   7.150   9.028
15036WAT     H245351   4.093   7.226   8.885
15037WAT      O45352   9.671   0.225   3.578
15037WAT     H145353   9.678   0.257   3.484
15037WAT     H245354   9.673   0.125   3.580
15038WAT      O45355   2.849   7.440   5.508
15038WAT     H145356   2.843   7.502   5.429
15038WAT     H245357   2.764   7.387   5.514
15039WAT      O45358   0.754   4.194   4.831
15039WAT     H145359   0.791   4.245   4.909
15039WAT     H245360   0.812   4.114   4.813
15040WAT      O45361   1.833   0.323   5.580
15040WAT     H145362   1.905   0.334   5.648
15040WAT     H245363   1.811   0.412   5.540
15041WAT      O45364   2.453   0.521   6.335
15041WAT     H145365   2.493   0.507   6.426
15041WAT     H245366   2.354   0.507   6.341
15042WAT      O45367   3.830   7.926   8.036
15042WAT     H145368   3.825   8.023   8.059
15042WAT     H245369   3.746   7.880   8.065
15043WAT      O45370   7.279   0.492   1.307
15043WAT     H145371   7.269   0.393   1.298
15043WAT     H245372   7.197   0.531   1.350
15044WAT      O45373   5.007   8.488   0.337
15044WAT     H145374   4.998   8.524   0.430
15044WAT     H245375   5.102   8.498   0.306
15045WAT      O45376   5.283   5.949   0.238
15045WAT     H145377   5.363   5.951   0.298
15045WAT     H245378   5.205   5.990   0.284
15046WAT      O45379   9.803   5.583   2.211
15046WAT     H145380   9.842   5.511   2.268
15046WAT     H245381   9.815   5.672   2.256
15047WAT      O45382   1.878   4.668   6.509
15047WAT     H145383   1.829   4.583   6.527
15047WAT     H245384   1.819   4.746   6.530
15048WAT      O45385   4.461   7.029   3.159
15048WAT     H145386   4.451   7.127   3.176
15048WAT     H245387   4.411   7.004   3.076
15049WAT      O45388   7.992   5.747   5.048
15049WAT     H145389   8.006   5.659   5.003
15049WAT     H245390   8.019   5.740   5.144
15050WAT      O45391   2.666   5.810   1.692
15050WAT     H145392   2.686   5.720   1.654
15050WAT     H245393   2.596   5.802   1.763
15051WAT      O45394   7.045   0.092   1.935
15051WAT     H145395   7.088   0.030   1.869
15051WAT     H245396   6.962   0.050   1.970
15052WAT      O45397   0.840   3.212   8.301
15052WAT     H145398   0.773   3.274   8.342
15052WAT     H245399   0.881   3.155   8.373
15053WAT      O45400   9.232   3.060   7.578
15053WAT     H145401   9.133   3.051   7.590
15053WAT     H245402   9.269   3.123   7.646
15054WAT      O45403   1.352   5.761   1.447
15054WAT     H145404   1.277   5.724   1.502
15054WAT     H245405   1.431   5.699   1.453
15055WAT      O45406   4.395   0.955   7.628
15055WAT     H145407   4.480   0.933   7.581
15055WAT     H245408   4.353   0.872   7.663
15056WAT      O45409   7.757   7.204   7.046
15056WAT     H145410   7.698   7.144   6.992
15056WAT     H245411   7.844   7.158   7.063
15057WAT      O45412   2.072   2.438   1.868
15057WAT     H145413   1.973   2.442   1.879
15057WAT     H245414   2.098   2.350   1.829
15058WAT      O45415   4.931   9.764   4.685
15058WAT     H145416   4.889   9.781   4.596
15058WAT     H245417   5.009   9.826   4.697
15059WAT      O45418   0.576   1.212   8.605
15059WAT     H145419   0.517   1.202   8.685
15059WAT     H245420   0.617   1.303   8.605
15060WAT      O45421   4.938   9.186   0.667
15060WAT     H145422   4.950   9.135   0.582
15060WAT     H245423   4.878   9.134   0.729
15061WAT      O45424   2.403   7.761   4.860
15061WAT     H145425   2.344   7.839   4.875
15061WAT     H245426   2.407   7.741   4.762
15062WAT      O45427   6.171   5.323   9.428
15062WAT     H145428   6.251   5.263   9.422
15062WAT     H245429   6.109   5.289   9.498
15063WAT      O45430   0.023   5.189   7.808
15063WAT     H145431   0.104   5.190   7.867
15063WAT     H245432  -0.037   5.265   7.833
15064WAT      O45433   0.938   6.554   5.699
15064WAT     H145434   0.935   6.607   5.785
15064WAT     H245435   0.855   6.498   5.693
15065WAT      O45436   1.605   3.599   5.844
15065WAT     H145437   1.615   3.509   5.800
15065WAT     H245438   1.548   3.658   5.787
15066WAT      O45439   1.244   9.519   8.148
15066WAT     H145440   1.267   9.607   8.106
15066WAT     H245441   1.146   9.504   8.142
15067WAT      O45442   9.628   6.753   4.471
15067WAT     H145443   9.698   6.823   4.483
15067WAT     H245444   9.593   6.725   4.561
15068WAT      O45445   3.516   4.577   9.126
15068WAT     H145446   3.552   4.530   9.206
15068WAT     H245447   3.418   4.557   9.116
15069WAT      O45448   3.132   4.819   4.439
15069WAT     H145449   3.089   4.749   4.383
15069WAT     H245450   3.230   4.822   4.420
15070WAT      O45451   7.261   3.462   1.979
15070WAT     H145452   7.348   3.455   2.026
15070WAT     H245453   7.251   3.386   1.915
15071WAT      O45454   1.455   4.950   4.390
15071WAT     H145455   1.455   4.972   4.488
15071WAT     H245456   1.415   5.027   4.340
15072WAT      O45457   3.339   2.797   8.599
15072WAT     H145458   3.436   2.823   8.601
15072WAT     H245459   3.284   2.869   8.640
15073WAT      O45460   8.348   8.042   0.520
15073WAT     H145461   8.372   8.115   0.456
15073WAT     H245462   8.319   8.082   0.607
15074WAT      O45463   4.832   7.735   2.255
15074WAT     H145464   4.890   7.741   2.174
15074WAT     H245465   4.877   7.676   2.323
15075WAT      O45466   7.765   4.369   7.815
15075WAT     H145467   7.683   4.378   7.872
15075WAT     H245468   7.796   4.460   7.787
15076WAT      O45469   2.884   2.585   6.968
15076WAT     H145470   2.908   2.536   7.052
15076WAT     H245471   2.789   2.618   6.975
15077WAT      O45472   5.201   0.888   4.373
15077WAT     H145473   5.152   0.860   4.290
15077WAT     H245474   5.137   0.894   4.449
15078WAT      O45475   4.934   9.764   9.469
15078WAT     H145476   4.859   9.823   9.438
15078WAT     H245477   4.971   9.800   9.555
15079WAT      O45478   7.386   0.908   0.585
15079WAT     H145479   7.322   0.855   0.530
15079WAT     H245480   7.339   0.987   0.624
15080WAT      O45481   2.636   2.736   6.935
15080WAT     H145482   2.641   2.792   7.018
15080WAT     H245483   2.542   2.737   6.899
15081WAT      O45484   8.524   6.502   9.511
15081WAT     H145485   8.438   6.552   9.518
15081WAT     H245486   8.562   6.513   9.419
15082WAT      O45487   0.865   2.274   8.305
15082WAT     H145488   0.952   2.308   8.270
15082WAT     H245489   0.877   2.241   8.398
15083WAT      O45490   0.678   7.626   8.252
15083WAT     H145491   0.753   7.560   8.247
15083WAT     H245492   0.591   7.577   8.252
15084WAT      O45493   8.114   6.910   5.423
15084WAT     H145494   8.016   6.896   5.437
15084WAT     H245495   8.130   7.003   5.390
15085WAT      O45496   7.480   6.395   8.857
15085WAT     H145497   7.495   6.326   8.928
15085WAT     H245498   7.383   6.398   8.834
15086WAT      O45499   3.541   5.294   4.405
15086WAT     H145500   3.556   5.393   4.407
15086WAT     H245501   3.482   5.268   4.481
15087WAT      O45502   6.582   3.997   7.425
15087WAT     H145503   6.501   4.009   7.368
15087WAT     H245504   6.565   4.032   7.517
15088WAT      O45505   0.331   6.743   1.110
15088WAT     H145506   0.267   6.676   1.147
15088WAT     H245507   0.306   6.834   1.141
15089WAT      O45508   1.633   0.762   6.174
15089WAT     H145509   1.696   0.708   6.117
15089WAT     H245510   1.614   0.849   6.128
15090WAT      O45511   7.505   6.399   1.581
15090WAT     H145512   7.498   6.360   1.489
15090WAT     H245513   7.534   6.494   1.575
15091WAT      O45514   5.144   2.707   0.405
15091WAT     H145515   5.110   2.700   0.498
15091WAT     H245516   5.130   2.620   0.357
15092WAT      O45517   8.684   7.431   8.904
15092WAT     H145518   8.629   7.368   8.959
15092WAT     H245519   8.724   7.501   8.964
15093WAT      O45520   0.496   1.497   1.215
15093WAT     H145521   0.534   1.405   1.225
15093WAT     H245522   0.481   1.537   1.305
15094WAT      O45523   5.728   7.194   0.126
15094WAT     H145524   5.809   7.188   0.069
15094WAT     H245525   5.755   7.216   0.220
15095WAT      O45526   1.175   8.226   5.288
15095WAT     H145527   1.141   8.271   5.371
15095WAT     H245528   1.112   8.152   5.262
15096WAT      O45529   4.886   1.261   0.842
15096WAT     H145530   4.928   1.351   0.853
15096WAT     H245531   4.879   1.239   0.744
15097WAT      O45532   5.996   1.810   6.545
15097WAT     H145533   6.078   1.769   6.504
15097WAT     H245534   5.964   1.885   6.487
15098WAT      O45535   1.955   5.537   8.893
15098WAT     H145536   1.916   5.629   8.900
15098WAT     H245537   1.881   5.469   8.893
15099WAT      O45538   6.904   3.289   0.680
15099WAT     H145539   7.000   3.317   0.674
15099WAT     H245540   6.854   3.353   0.738
15100WAT      O45541   0.370   5.621   4.915
15100WAT     H145542   0.351   5.716   4.938
15100WAT     H245543   0.469   5.606   4.915
15101WAT      O45544   1.019   9.209   8.529
15101WAT     H145545   1.059   9.173   8.446
15101WAT     H245546   0.941   9.268   8.505
15102WAT      O45547   9.152   7.022   6.709
15102WAT     H145548   9.150   6.957   6.633
15102WAT     H245549   9.213   7.098   6.686
15103WAT      O45550   1.243   6.487   2.379
15103WAT     H145551   1.153   6.447   2.360
15103WAT     H245552   1.264   6.478   2.476
15104WAT      O45553   4.420   7.903   8.689
15104WAT     H145554   4.425   7.825   8.627
15104WAT     H245555   4.441   7.872   8.782
15105WAT      O45556   0.342   2.668   8.316
15105WAT     H145557   0.263   2.611   8.294
15105WAT     H245558   0.374   2.714   8.233
15106WAT      O45559   7.988   6.572   2.898
15106WAT     H145560   7.898   6.528   2.898
15106WAT     H245561   7.977   6.671   2.899
15107WAT      O45562   7.753   7.921   8.206
15107WAT     H145563   7.715   7.933   8.297
15107WAT     H245564   7.680   7.921   8.138
15108WAT      O45565   3.279   0.287   4.784
15108WAT     H145566   3.231   0.348   4.847
15108WAT     H245567   3.227   0.202   4.774
15109WAT      O45568   2.300   2.640   4.185
15109WAT     H145569   2.206   2.672   4.177
15109WAT     H245570   2.341   2.632   4.094
15110WAT      O45571   5.716   6.842   4.370
15110WAT     H145572   5.633   6.816   4.419
15110WAT     H245573   5.795   6.798   4.413
15111WAT      O45574   8.545   6.943   7.961
15111WAT     H145575   8.539   7.012   7.888
15111WAT     H245576   8.527   6.987   8.049
15112WAT      O45577   0.063   8.989   1.329
15112WAT     H145578  -0.006   9.049   1.367
15112WAT     H245579   0.113   9.037   1.256
15113WAT      O45580   6.691   6.412   5.613
15113WAT     H145581   6.721   6.501   5.647
15113WAT     H245582   6.732   6.340   5.668
15114WAT      O45583   7.401   7.092   6.018
15114WAT     H145584   7.309   7.057   6.036
15114WAT     H245585   7.436   7.051   5.933
15115WAT      O45586   3.704   4.974   6.946
15115WAT     H145587   3.617   4.968   6.896
15115WAT     H245588   3.744   5.064   6.931
15116WAT      O45589   3.101   8.065   8.935
15116WAT     H145590   3.155   8.025   8.861
15116WAT     H245591   3.135   8.156   8.956
15117WAT      O45592   0.509   6.766   3.051
15117WAT     H145593   0.488   6.813   3.137
15117WAT     H245594   0.591   6.710   3.062
15118WAT      O45595   8.655   8.354   6.282
15118WAT     H145596   8.626   8.413   6.207
15118WAT     H245597   8.738   8.305   6.257
15119WAT      O45598   0.004   8.874   0.886
15119WAT     H145599   0.007   8.845   0.981
15119WAT     H245600   0.084   8.930   0.864
15120WAT      O45601   2.166   2.723   2.747
15120WAT     H145602   2.092   2.672   2.791
15120WAT     H245603   2.128   2.784   2.677
15121WAT      O45604   2.730   2.223   5.942
15121WAT     H145605   2.671   2.303   5.942
15121WAT     H245606   2.763   2.206   6.035
15122WAT      O45607   1.331   5.368   6.441
15122WAT     H145608   1.231   5.360   6.443
15122WAT     H245609   1.362   5.367   6.346
15123WAT      O45610   9.842   9.332   2.692
15123WAT     H145611   9.908   9.258   2.703
15123WAT     H245612   9.783   9.312   2.614
15124WAT      O45613   3.189   5.849   5.345
15124WAT     H145614   3.218   5.943   5.327
15124WAT     H245615   3.204   5.827   5.441
15125WAT      O45616   5.393   4.994   3.046
15125WAT     H145617   5.343   5.040   2.974
15125WAT     H245618   5.388   5.048   3.130
15126WAT      O45619   4.126   3.551   1.886
15126WAT     H145620   4.052   3.617   1.899
15126WAT     H245621   4.211   3.587   1.924
15127WAT      O45622   6.401   2.386   7.164
15127WAT     H145623   6.349   2.461   7.122
15127WAT     H245624   6.482   2.367   7.109
15128WAT      O45625   0.780   6.859   9.759
15128WAT     H145626   0.850   6.916   9.716
15128WAT     H245627   0.795   6.763   9.735
15129WAT      O45628   9.622   1.531   6.046
15129WAT     H145629   9.656   1.588   5.971
15129WAT     H245630   9.654   1.437   6.033
15130WAT      O45631   0.709   4.053   3.020
15130WAT     H145632   0.727   4.064   2.922
15130WAT     H245633   0.652   3.973   3.035
15131WAT      O45634   8.663   1.329   4.219
15131WAT     H145635   8.579   1.276   4.203
15131WAT     H245636   8.737   1.291   4.164
15132WAT      O45637   2.450   3.351   8.211
15132WAT     H145638   2.475   3.396   8.297
15132WAT     H245639   2.380   3.405   8.164
15133WAT      O45640   8.220   4.178   0.370
15133WAT     H145641   8.282   4.178   0.292
15133WAT     H245642   8.148   4.109   0.355
15134WAT      O45643   2.638   7.022   3.400
15134WAT     H145644   2.712   7.051   3.340
15134WAT     H245645   2.653   6.927   3.429
15135WAT      O45646   7.904   4.843   2.624
15135WAT     H145647   7.867   4.909   2.689
15135WAT     H245648   7.851   4.759   2.628
15136WAT      O45649   3.684   2.708   1.498
15136WAT     H145650   3.735   2.656   1.567
15136WAT     H245651   3.700   2.667   1.408
15137WAT      O45652   4.625   4.080   2.879
15137WAT     H145653   4.690   4.156   2.891
15137WAT     H245654   4.642   4.010   2.948
15138WAT      O45655   8.764   0.717   7.125
15138WAT     H145656   8.836   0.658   7.088
15138WAT     H245657   8.801   0.808   7.142
15139WAT      O45658   8.502   2.663   8.360
15139WAT     H145659   8.422   2.637   8.415
15139WAT     H245660   8.508   2.604   8.280
15140WAT      O45661   0.417   2.859   2.234
15140WAT     H145662   0.383   2.774   2.274
15140WAT     H245663   0.400   2.934   2.297
15141WAT      O45664   4.283   0.042   0.433
15141WAT     H145665   4.337   0.119   0.465
15141WAT     H245666   4.343  -0.028   0.394
15142WAT      O45667   2.794   6.650   6.991
15142WAT     H145668   2.748   6.681   6.908
15142WAT     H245669   2.866   6.716   7.015
15143WAT      O45670   7.863   1.875   9.003
15143WAT     H145671   7.825   1.910   9.089
15143WAT     H245672   7.849   1.776   8.998
15144WAT      O45673   9.459   6.789   2.229
15144WAT     H145674   9.445   6.751   2.138
15144WAT     H245675   9.425   6.883   2.231
15145WAT      O45676   6.698   5.873   4.763
15145WAT     H145677   6.637   5.918   4.697
15145WAT     H245678   6.776   5.833   4.715
15146WAT      O45679   8.900   7.727   8.392
15146WAT     H145680   8.863   7.798   8.332
15146WAT     H245681   8.891   7.756   8.487
15147WAT      O45682   6.023   7.804   3.169
15147WAT     H145683   5.998   7.708   3.168
15147WAT     H245684   5.995   7.845   3.256
15148WAT      O45685   8.369   4.610   9.737
15148WAT     H145686   8.294   4.650   9.684
15148WAT     H245687   8.449   4.669   9.731
15149WAT      O45688   9.233   1.271   5.581
15149WAT     H145689   9.312   1.263   5.521
15149WAT     H245690   9.167   1.335   5.541
15150WAT      O45691   7.784   1.213   2.919
15150WAT     H145692   7.859   1.179   2.863
15150WAT     H245693   7.708   1.242   2.860
15151WAT      O45694   7.233   0.807   1.679
15151WAT     H145695   7.185   0.784   1.763
15151WAT     H245696   7.167   0.815   1.604
15152WAT      O45697   6.691   1.057   9.518
15152WAT     H145698   6.659   0.970   9.555
15152WAT     H245699   6.678   1.130   9.586
15153WAT      O45700   7.984   6.196   1.139
15153WAT     H145701   7.923   6.261   1.092
15153WAT     H245702   8.069   6.242   1.164
15154WAT      O45703   0.023   7.207   7.635
15154WAT     H145704  -0.060   7.188   7.582
15154WAT     H245705   0.004   7.277   7.703
15155WAT      O45706   2.427   3.928   5.687
15155WAT     H145707   2.370   3.847   5.671
15155WAT     H245708   2.401   4.000   5.624
15156WAT      O45709   6.089   6.847   8.484
15156WAT     H145710   6.111   6.939   8.515
15156WAT     H245711   6.029   6.803   8.551
15157WAT      O45712   5.196   0.129   1.319
15157WAT     H145713   5.288   0.092   1.308
15157WAT     H245714   5.197   0.202   1.387
15158WAT      O45715   3.273   5.994   4.162
15158WAT     H145716   3.261   6.029   4.255
15158WAT     H245717   3.268   5.894   4.164
15159WAT      O45718   0.217   9.203   6.148
15159WAT     H145719   0.228   9.293   6.191
15159WAT     H245720   0.305   9.174   6.109
15160WAT      O45721   9.376   5.193   9.570
15160WAT     H145722   9.433   5.113   9.586
15160WAT     H245723   9.312   5.174   9.496
15161WAT      O45724   4.243   7.863   9.708
15161WAT     H145725   4.310   7.936   9.690
15161WAT     H245726   4.152   7.895   9.683
15162WAT      O45727   4.376   9.668   6.268
15162WAT     H145728   4.457   9.609   6.275
15162WAT     H245729   4.394   9.742   6.204
15163WAT      O45730   4.046   5.840   4.268
15163WAT     H145731   4.086   5.868   4.181
15163WAT     H245732   4.041   5.740   4.272
15164WAT      O45733   6.147   1.842   7.401
15164WAT     H145734   6.151   1.942   7.401
15164WAT     H245735   6.196   1.806   7.480
15165WAT      O45736   5.238   3.953   7.796
15165WAT     H145737   5.252   3.907   7.884
15165WAT     H245738   5.153   4.006   7.800
15166WAT      O45739   6.185   2.199   3.668
15166WAT     H145740   6.153   2.111   3.701
15166WAT     H245741   6.271   2.186   3.618
15167WAT      O45742   0.018   2.831   9.822
15167WAT     H145743   0.001   2.738   9.788
15167WAT     H245744  -0.069   2.874   9.848
15168WAT      O45745   1.010   3.382   3.827
15168WAT     H145746   0.938   3.379   3.758
15168WAT     H245747   1.013   3.473   3.869
15169WAT      O45748   0.887   0.902   2.810
15169WAT     H145749   0.824   0.932   2.738
15169WAT     H245750   0.941   0.979   2.842
15170WAT      O45751   3.345   6.010   2.398
15170WAT     H145752   3.310   6.068   2.471
15170WAT     H245753   3.367   6.067   2.318
15171WAT      O45754   7.073   8.331   1.279
15171WAT     H145755   7.016   8.394   1.226
15171WAT     H245756   7.075   8.362   1.374
15172WAT      O45757   4.039   8.002   2.724
15172WAT     H145758   4.114   7.984   2.787
15172WAT     H245759   4.039   8.098   2.697
15173WAT      O45760   0.210   2.901   2.772
15173WAT     H145761   0.232   2.812   2.732
15173WAT     H245762   0.132   2.941   2.723
15174WAT      O45763   4.516   1.163   2.991
15174WAT     H145764   4.438   1.111   2.957
15174WAT     H245765   4.562   1.208   2.914
15175WAT      O45766   7.236   8.489   9.826
15175WAT     H145767   7.246   8.398   9.867
15175WAT     H245768   7.243   8.481   9.727
15176WAT      O45769   2.575   9.717   6.614
15176WAT     H145770   2.476   9.708   6.618
15176WAT     H245771   2.601   9.765   6.530
15177WAT      O45772   0.146   1.185   0.828
15177WAT     H145773   0.220   1.222   0.883
15177WAT     H245774   0.175   1.179   0.733
15178WAT      O45775   1.513   7.300   8.303
15178WAT     H145776   1.506   7.319   8.205
15178WAT     H245777   1.431   7.335   8.350
15179WAT      O45778   7.931   3.000   9.209
15179WAT     H145779   7.929   3.038   9.302
15179WAT     H245780   8.026   2.985   9.181
15180WAT      O45781   0.055   2.838   6.722
15180WAT     H145782   0.077   2.774   6.649
15180WAT     H245783   0.045   2.930   6.684
15181WAT      O45784   2.356   9.236   3.707
15181WAT     H145785   2.376   9.260   3.612
15181WAT     H245786   2.276   9.175   3.709
15182WAT      O45787   2.318   2.912   3.717
15182WAT     H145788   2.260   2.860   3.780
15182WAT     H245789   2.264   2.938   3.637
15183WAT      O45790   9.191   0.141   5.276
15183WAT     H145791   9.216   0.136   5.372
15183WAT     H245792   9.216   0.056   5.230
15184WAT      O45793   9.380   5.899   3.799
15184WAT     H145794   9.447   5.970   3.820
15184WAT     H245795   9.377   5.883   3.700
15185WAT      O45796   6.857   5.431   7.075
15185WAT     H145797   6.762   5.408   7.096
15185WAT     H245798   6.911   5.427   7.159
15186WAT      O45799   8.187   6.021   7.945
15186WAT     H145800   8.179   6.116   7.972
15186WAT     H245801   8.187   5.963   8.026
15187WAT      O45802   6.393   0.794   2.957
15187WAT     H145803   6.451   0.771   3.036
15187WAT     H245804   6.451   0.803   2.875
15188WAT      O45805   9.801   5.774   0.834
15188WAT     H145806   9.794   5.864   0.876
15188WAT     H245807   9.738   5.711   0.878
15189WAT      O45808   1.881   9.733   5.255
15189WAT     H145809   1.904   9.813   5.312
15189WAT     H245810   1.794   9.749   5.208
15190WAT      O45811   0.166   1.550   5.017
15190WAT     H145812   0.222   1.628   4.988
15190WAT     H245813   0.111   1.519   4.940
15191WAT      O45814   0.110   3.919   1.374
15191WAT     H145815   0.188   3.954   1.426
15191WAT     H245816   0.028   3.925   1.430
15192WAT      O45817   0.623   1.215   8.989
15192WAT     H145818   0.556   1.199   8.916
15192WAT     H245819   0.640   1.313   8.998
15193WAT      O45820   2.803   6.750   3.877
15193WAT     H145821   2.859   6.706   3.948
15193WAT     H245822   2.844   6.731   3.788
15194WAT      O45823   3.949   3.306   1.224
15194WAT     H145824   3.987   3.233   1.167
15194WAT     H245825   3.995   3.392   1.204
15195WAT      O45826   7.939   3.481   0.472
15195WAT     H145827   7.931   3.441   0.563
15195WAT     H245828   7.922   3.580   0.478
15196WAT      O45829   7.994   0.895   9.008
15196WAT     H145830   7.969   0.948   8.927
15196WAT     H245831   7.961   0.801   8.998
15197WAT      O45832   0.299   8.320   6.820
15197WAT     H145833   0.233   8.249   6.845
15197WAT     H245834   0.392   8.285   6.835
15198WAT      O45835   3.773   7.052   6.563
15198WAT     H145836   3.839   7.109   6.514
15198WAT     H245837   3.713   7.109   6.618
15199WAT      O45838   3.306   6.240   0.363
15199WAT     H145839   3.396   6.255   0.323
15199WAT     H245840   3.287   6.142   0.367
15200WAT      O45841   2.684   3.916   4.924
15200WAT     H145842   2.645   3.839   4.873
15200WAT     H245843   2.634   4.000   4.901
15201WAT      O45844   8.482   4.322   1.722
15201WAT     H145845   8.534   4.314   1.807
15201WAT     H245846   8.486   4.416   1.689
15202WAT      O45847   2.906   7.563   4.850
15202WAT     H145848   2.921   7.537   4.946
15202WAT     H245849   2.846   7.496   4.807
15203WAT      O45850   0.911   0.681   3.630
15203WAT     H145851   0.853   0.742   3.576
15203WAT     H245852   0.926   0.596   3.579
15204WAT      O45853   2.466   7.132   9.724
15204WAT     H145854   2.502   7.173   9.640
15204WAT     H245855   2.412   7.200   9.774
15205WAT      O45856   6.050   8.809   5.178
15205WAT     H145857   6.098   8.760   5.105
15205WAT     H245858   6.089   8.784   5.266
15206WAT      O45859   1.478   5.574   9.518
15206WAT     H145860   1.504   5.502   9.582
15206WAT     H245861   1.404   5.540   9.459
15207WAT      O45862   5.555   1.752   8.304
15207WAT     H145863   5.477   1.691   8.315
15207WAT     H245864   5.640   1.700   8.315
15208WAT      O45865   1.909   3.481   9.357
15208WAT     H145866   1.899   3.464   9.259
15208WAT     H245867   2.002   3.510   9.377
15209WAT      O45868   1.438   2.061   0.498
15209WAT     H145869   1.488   2.061   0.412
15209WAT     H245870   1.355   2.116   0.489
15210WAT      O45871   4.622   0.651   4.408
15210WAT     H145872   4.612   0.658   4.309
15210WAT     H245873   4.536   0.676   4.452
15211WAT      O45874   4.776   1.476   3.864
15211WAT     H145875   4.727   1.529   3.794
15211WAT     H245876   4.787   1.382   3.832
15212WAT      O45877   4.125   1.364   4.795
15212WAT     H145878   4.072   1.405   4.721
15212WAT     H245879   4.222   1.366   4.772
15213WAT      O45880   4.911   7.587   4.765
15213WAT     H145881   4.842   7.531   4.719
15213WAT     H245882   4.994   7.591   4.709
15214WAT      O45883   2.973   4.424   9.562
15214WAT     H145884   2.947   4.482   9.639
15214WAT     H245885   2.975   4.480   9.478
15215WAT      O45886   5.209   2.878   7.567
15215WAT     H145887   5.263   2.849   7.646
15215WAT     H245888   5.131   2.817   7.555
15216WAT      O45889   4.122   6.732   2.891
15216WAT     H145890   4.197   6.798   2.881
15216WAT     H245891   4.129   6.663   2.819
15217WAT      O45892   0.749   0.213   7.528
15217WAT     H145893   0.656   0.247   7.517
15217WAT     H245894   0.799   0.270   7.592
15218WAT      O45895   4.067   1.868   7.875
15218WAT     H145896   4.029   1.780   7.901
15218WAT     H245897   4.162   1.856   7.845
15219WAT      O45898   7.425   5.628   5.103
15219WAT     H145899   7.523   5.647   5.105
15219WAT     H245900   7.388   5.630   5.196
15220WAT      O45901   2.385   8.408   7.256
15220WAT     H145902   2.412   8.501   7.233
15220WAT     H245903   2.288   8.395   7.235
15221WAT      O45904   1.396   2.641   4.142
15221WAT     H145905   1.451   2.573   4.092
15221WAT     H245906   1.456   2.714   4.175
15222WAT      O45907   4.155   3.813   6.847
15222WAT     H145908   4.189   3.824   6.753
15222WAT     H245909   4.232   3.805   6.910
15223WAT      O45910   2.863   4.591   2.704
15223WAT     H145911   2.941   4.557   2.756
15223WAT     H245912   2.878   4.686   2.678
15224WAT      O45913   4.379   6.039   5.885
15224WAT     H145914   4.468   6.042   5.839
15224WAT     H245915   4.356   6.129   5.920
15225WAT      O45916   9.340   0.062   9.279
15225WAT     H145917   9.367   0.128   9.349
15225WAT     H245918   9.243   0.073   9.258
15226WAT      O45919   6.773   5.971   1.880
15226WAT     H145920   6.841   5.910   1.921
15226WAT     H245921   6.708   6.000   1.950
15227WAT      O45922   3.484   2.166   5.093
15227WAT     H145923   3.432   2.242   5.132
15227WAT     H245924   3.572   2.158   5.141
15228WAT      O45925   5.277   1.843   9.757
15228WAT     H145926   5.218   1.770   9.723
15228WAT     H245927   5.369   1.807   9.774
15229WAT      O45928   8.653   4.320   5.644
15229WAT     H145929   8.730   4.268   5.607
15229WAT     H245930   8.583   4.332   5.573
15230WAT      O45931   2.174   7.853   0.130
15230WAT     H145932   2.122   7.935   0.105
15230WAT     H245933   2.243   7.835   0.060
15231WAT      O45934   2.664   9.257   6.134
15231WAT     H145935   2.609   9.302   6.204
15231WAT     H245936   2.668   9.315   6.053
15232WAT      O45937   8.619   4.228   7.993
15232WAT     H145938   8.533   4.188   8.023
15232WAT     H245939   8.682   4.233   8.070
15233WAT      O45940   9.627   1.173   0.935
15233WAT     H145941   9.556   1.109   0.908
15233WAT     H245942   9.606   1.211   1.025
15234WAT      O45943   0.507   3.707   8.763
15234WAT     H145944   0.465   3.795   8.742
15234WAT     H245945   0.441   3.648   8.809
15235WAT      O45946   0.759   0.734   0.179
15235WAT     H145947   0.780   0.781   0.094
15235WAT     H245948   0.828   0.756   0.248
15236WAT      O45949   3.519   6.235   6.342
15236WAT     H145950   3.540   6.276   6.253
15236WAT     H245951   3.462   6.154   6.329
15237WAT      O45952   7.381   5.710   1.841
15237WAT     H145953   7.352   5.653   1.918
15237WAT     H245954   7.472   5.682   1.810
15238WAT      O45955   7.577   3.056   1.431
15238WAT     H145956   7.551   3.105   1.348
15238WAT     H245957   7.503   3.061   1.497
15239WAT      O45958   0.251   7.329   6.538
15239WAT     H145959   0.166   7.281   6.561
15239WAT     H245960   0.306   7.272   6.478
15240WAT      O45961   9.697   4.196   5.856
15240WAT     H145962   9.779   4.139   5.845
15240WAT     H245963   9.645   4.164   5.935
15241WAT      O45964   3.504   5.672   3.047
15241WAT     H145965   3.488   5.579   3.078
15241WAT     H245966   3.421   5.726   3.056
15242WAT      O45967   3.376   6.968   1.559
15242WAT     H145968   3.377   7.037   1.631
15242WAT     H245969   3.430   7.000   1.482
15243WAT      O45970   9.081   2.347   7.920
15243WAT     H145971   9.110   2.253   7.938
15243WAT     H245972   9.021   2.349   7.840
15244WAT      O45973   6.946   6.589   9.345
15244WAT     H145974   7.006   6.668   9.355
15244WAT     H245975   6.923   6.576   9.248
15245WAT      O45976   8.245   8.017   1.121
15245WAT     H145977   8.205   8.107   1.105
15245WAT     H245978   8.174   7.954   1.153
15246WAT      O45979   2.920   1.264   2.597
15246WAT     H145980   2.879   1.206   2.667
15246WAT     H245981   2.849   1.290   2.531
15247WAT      O45982   7.124   5.202   7.834
15247WAT     H145983   7.063   5.252   7.772
15247WAT     H245984   7.140   5.257   7.916
15248WAT      O45985   9.076   7.070   8.594
15248WAT     H145986   9.134   7.020   8.529
15248WAT     H245987   9.130   7.094   8.675
15249WAT      O45988   2.376   4.178   8.002
15249WAT     H145989   2.417   4.249   8.059
15249WAT     H245990   2.411   4.187   7.908
15250WAT      O45991   3.602   5.144   8.406
15250WAT     H145992   3.638   5.060   8.446
15250WAT     H245993   3.657   5.170   8.327
15251WAT      O45994   7.205   8.576   4.451
15251WAT     H145995   7.290   8.575   4.503
15251WAT     H245996   7.193   8.489   4.404
15252WAT      O45997   5.113   8.817   3.209
15252WAT     H145998   5.107   8.917   3.204
15252WAT     H245999   5.042   8.782   3.269
15253WAT      O46000   5.085   4.761   2.755
15253WAT     H146001   5.155   4.816   2.710
15253WAT     H246002   5.067   4.798   2.847
15254WAT      O46003   5.980   5.994   2.618
15254WAT     H146004   5.953   5.992   2.714
15254WAT     H246005   5.982   5.900   2.582
15255WAT      O46006   6.779   9.592   5.296
15255WAT     H146007   6.766   9.592   5.197
15255WAT     H246008   6.755   9.502   5.333
15256WAT      O46009   6.125   4.103   9.366
15256WAT     H146010   6.109   4.124   9.462
15256WAT     H246011   6.056   4.037   9.334
15257WAT      O46012   0.790   2.459   9.676
15257WAT     H146013   0.733   2.390   9.633
15257WAT     H246014   0.886   2.446   9.649
15258WAT      O46015   1.877   9.521   4.449
15258WAT     H146016   1.942   9.553   4.380
15258WAT     H246017   1.798   9.582   4.452
15259WAT      O46018   9.309   0.339   2.498
15259WAT     H146019   9.307   0.239   2.488
15259WAT     H246020   9.370   0.364   2.573
15260WAT      O46021   5.150   1.898   5.494
15260WAT     H146022   5.129   1.974   5.432
15260WAT     H246023   5.143   1.930   5.589
15261WAT      O46024   2.284   2.660   7.321
15261WAT     H146025   2.321   2.592   7.385
15261WAT     H246026   2.244   2.735   7.373
15262WAT      O46027   3.634   9.347   8.875
15262WAT     H146028   3.719   9.392   8.903
15262WAT     H246029   3.623   9.356   8.776
15263WAT      O46030   0.881   9.587   2.053
15263WAT     H146031   0.849   9.560   1.962
15263WAT     H246032   0.915   9.681   2.050
15264WAT      O46033   3.023   5.766   7.062
15264WAT     H146034   3.066   5.680   7.089
15264WAT     H246035   3.093   5.830   7.031
15265WAT      O46036   3.413   0.010   6.962
15265WAT     H146037   3.452   0.078   6.900
15265WAT     H246038   3.332  -0.031   6.920
15266WAT      O46039   1.967   1.797   5.506
15266WAT     H146040   1.991   1.805   5.603
15266WAT     H246041   1.892   1.732   5.496
15267WAT      O46042   0.763   3.487   4.725
15267WAT     H146043   0.736   3.575   4.763
15267WAT     H246044   0.695   3.457   4.659
15268WAT      O46045   3.928   5.609   9.843
15268WAT     H146046   3.996   5.604   9.915
15268WAT     H246047   3.961   5.561   9.762
15269WAT      O46048   1.986   8.310   9.496
15269WAT     H146049   2.055   8.382   9.500
15269WAT     H246050   1.945   8.298   9.587
15270WAT      O46051   3.768   6.444   8.762
15270WAT     H146052   3.747   6.521   8.702
15270WAT     H246053   3.809   6.479   8.847
15271WAT      O46054   9.652   3.558   1.525
15271WAT     H146055   9.614   3.648   1.505
15271WAT     H246056   9.667   3.550   1.624
15272WAT      O46057   6.197   6.038   1.508
15272WAT     H146058   6.187   6.108   1.578
15272WAT     H246059   6.279   5.984   1.525
15273WAT      O46060   3.721   1.955   9.231
15273WAT     H146061   3.812   1.914   9.224
15273WAT     H246062   3.654   1.898   9.183
15274WAT      O46063   7.893   5.158   2.303
15274WAT     H146064   7.808   5.173   2.355
15274WAT     H246065   7.870   5.134   2.209
15275WAT      O46066   0.877   8.858   9.309
15275WAT     H146067   0.925   8.817   9.387
15275WAT     H246068   0.779   8.842   9.318
15276WAT      O46069   7.041   4.241   3.540
15276WAT     H146070   6.980   4.177   3.588
15276WAT     H246071   7.111   4.191   3.490
15277WAT      O46072   6.725   5.633   9.039
15277WAT     H146073   6.729   5.722   9.084
15277WAT     H246074   6.735   5.646   8.940
15278WAT      O46075   9.134   6.750   4.476
15278WAT     H146076   9.164   6.717   4.387
15278WAT     H246077   9.061   6.692   4.511
15279WAT      O46078   3.351   0.977   0.455
15279WAT     H146079   3.286   0.942   0.387
15279WAT     H246080   3.404   1.052   0.416
15280WAT      O46081   4.902   5.161   3.821
15280WAT     H146082   4.873   5.118   3.736
15280WAT     H246083   4.822   5.195   3.871
15281WAT      O46084   7.634   5.656   1.735
15281WAT     H146085   7.717   5.637   1.787
15281WAT     H246086   7.628   5.594   1.657
15282WAT      O46087   5.236   0.736   3.290
15282WAT     H146088   5.237   0.806   3.219
15282WAT     H246089   5.218   0.647   3.249
15283WAT      O46090   0.820   0.528   6.182
15283WAT     H146091   0.838   0.481   6.096
15283WAT     H246092   0.737   0.583   6.173
15284WAT      O46093   6.929   4.297   3.040
15284WAT     H146094   6.940   4.219   3.101
15284WAT     H246095   6.938   4.267   2.945
15285WAT      O46096   2.541   3.277   9.076
15285WAT     H146097   2.622   3.243   9.124
15285WAT     H246098   2.564   3.361   9.027
15286WAT      O46099   8.944   8.915   7.861
15286WAT     H146100   8.965   9.011   7.841
15286WAT     H246101   9.027   8.860   7.853
15287WAT      O46102   4.622   1.367   8.238
15287WAT     H146103   4.689   1.404   8.173
15287WAT     H246104   4.667   1.348   8.325
15288WAT      O46105   7.371   7.478   9.692
15288WAT     H146106   7.470   7.490   9.701
15288WAT     H246107   7.347   7.474   9.595
15289WAT      O46108   3.629   5.687   9.324
15289WAT     H146109   3.530   5.679   9.320
15289WAT     H246110   3.655   5.751   9.396
15290WAT      O46111   7.358   2.211   7.951
15290WAT     H146112   7.387   2.225   7.857
15290WAT     H246113   7.391   2.286   8.008
15291WAT      O46114   9.604   6.417   0.767
15291WAT     H146115   9.700   6.440   0.755
15291WAT     H246116   9.564   6.475   0.838
15292WAT      O46117   4.997   2.305   9.318
15292WAT     H146118   4.938   2.340   9.391
15292WAT     H246119   5.086   2.350   9.322
15293WAT      O46120   9.199   7.678   9.503
15293WAT     H146121   9.167   7.586   9.525
15293WAT     H246122   9.282   7.673   9.449
15294WAT      O46123   2.836   7.842   2.280
15294WAT     H146124   2.854   7.934   2.245
15294WAT     H246125   2.912   7.812   2.337
15295WAT      O46126   0.062   3.607   9.160
15295WAT     H146127   0.108   3.675   9.104
15295WAT     H246128  -0.022   3.647   9.198
15296WAT      O46129   8.580   7.528   5.065
15296WAT     H146130   8.528   7.507   4.982
15296WAT     H246131   8.525   7.587   5.124
15297WAT      O46132   7.704   9.028   6.078
15297WAT     H146133   7.692   9.117   6.034
15297WAT     H246134   7.801   9.013   6.098
15298WAT      O46135   8.015   6.517   3.221
15298WAT     H146136   7.956   6.555   3.291
15298WAT     H246137   7.989   6.422   3.204
15299WAT      O46138   0.092   1.814   7.364
15299WAT     H146139   0.191   1.816   7.372
15299WAT     H246140   0.053   1.762   7.440
15300WAT      O46141   3.095   5.390   3.520
15300WAT     H146142   3.173   5.341   3.481
15300WAT     H246143   3.014   5.375   3.463
15301WAT      O46144   3.123   8.960   7.478
15301WAT     H146145   3.085   8.868   7.495
15301WAT     H246146   3.166   8.962   7.388
15302WAT      O46147   3.569   5.785   1.771
15302WAT     H146148   3.491   5.808   1.830
15302WAT     H246149   3.626   5.716   1.817
15303WAT      O46150   7.223   9.225   1.078
15303WAT     H146151   7.258   9.222   0.984
15303WAT     H246152   7.289   9.271   1.137
15304WAT      O46153   8.314   1.990   2.727
15304WAT     H146154   8.359   2.041   2.653
15304WAT     H246155   8.313   1.893   2.704
15305WAT      O46156   0.133   8.126   5.268
15305WAT     H146157   0.038   8.150   5.288
15305WAT     H246158   0.156   8.158   5.176
15306WAT      O46159   9.322   9.690   2.838
15306WAT     H146160   9.349   9.735   2.753
15306WAT     H246161   9.262   9.751   2.890
15307WAT      O46162   1.367   3.571   6.090
15307WAT     H146163   1.462   3.576   6.122
15307WAT     H246164   1.363   3.508   6.012
15308WAT      O46165   2.311   4.543   2.060
15308WAT     H146166   2.389   4.600   2.036
15308WAT     H246167   2.232   4.601   2.080
15309WAT      O46168   6.117   5.782   6.168
15309WAT     H146169   6.158   5.857   6.117
15309WAT     H246170   6.093   5.708   6.105
15310WAT      O46171   1.888   4.684   9.853
15310WAT     H146172   1.964   4.728   9.806
15310WAT     H246173   1.883   4.588   9.825
15311WAT      O46174   4.459   9.420   9.854
15311WAT     H146175   4.538   9.476   9.829
15311WAT     H246176   4.378   9.478   9.859
15312WAT      O46177   7.311   9.017   1.256
15312WAT     H146178   7.303   9.108   1.216
15312WAT     H246179   7.357   9.023   1.345
15313WAT      O46180   5.842   3.471   8.419
15313WAT     H146181   5.909   3.507   8.355
15313WAT     H246182   5.831   3.373   8.404
15314WAT      O46183   1.504   4.366   5.185
15314WAT     H146184   1.450   4.429   5.128
15314WAT     H246185   1.540   4.416   5.264
15315WAT      O46186   6.765   4.964   8.813
15315WAT     H146187   6.702   4.971   8.737
15315WAT     H246188   6.714   4.961   8.899
15316WAT      O46189   2.139   9.714   7.508
15316WAT     H146190   2.127   9.772   7.427
15316WAT     H246191   2.123   9.618   7.483
15317WAT      O46192   5.008   2.075   7.840
15317WAT     H146193   4.979   2.039   7.928
15317WAT     H246194   5.082   2.019   7.803
15318WAT      O46195   1.902   0.813   7.017
15318WAT     H146196   1.899   0.752   7.096
15318WAT     H246197   1.996   0.820   6.983
15319WAT      O46198   1.856   2.245   6.005
15319WAT     H146199   1.823   2.242   5.910
15319WAT     H246200   1.879   2.339   6.029
15320WAT      O46201   1.552   7.889   5.474
15320WAT     H146202   1.459   7.853   5.468
15320WAT     H246203   1.595   7.885   5.384
15321WAT      O46204   9.759   4.784   4.654
15321WAT     H146205   9.675   4.753   4.698
15321WAT     H246206   9.783   4.722   4.579
15322WAT      O46207   7.413   6.610   6.824
15322WAT     H146208   7.389   6.590   6.729
15322WAT     H246209   7.476   6.540   6.858
15323WAT      O46210   0.710   7.124   2.145
15323WAT     H146211   0.793   7.105   2.197
15323WAT     H246212   0.670   7.038   2.114
15324WAT      O46213   7.832   6.126   4.145
15324WAT     H146214   7.837   6.226   4.154
15324WAT     H246215   7.738   6.100   4.120
15325WAT      O46216   6.872   0.673   7.253
15325WAT     H146217   6.884   0.761   7.299
15325WAT     H246218   6.850   0.603   7.321
15326WAT      O46219   5.740   8.013   7.495
15326WAT     H146220   5.813   7.958   7.455
15326WAT     H246221   5.654   7.995   7.447
15327WAT      O46222   6.916   8.673   7.391
15327WAT     H146223   6.868   8.709   7.471
15327WAT     H246224   6.995   8.619   7.421
15328WAT      O46225   3.263   4.804   2.951
15328WAT     H146226   3.291   4.899   2.939
15328WAT     H246227   3.167   4.801   2.980
15329WAT      O46228   5.448   2.706   3.033
15329WAT     H146229   5.420   2.792   3.075
15329WAT     H246230   5.529   2.721   2.977
15330WAT      O46231   2.764   4.533   8.149
15330WAT     H146232   2.862   4.553   8.158
15330WAT     H246233   2.752   4.436   8.131
15331WAT      O46234   9.787   8.263   2.526
15331WAT     H146235   9.799   8.288   2.429
15331WAT     H246236   9.712   8.316   2.565
15332WAT      O46237   8.340   2.676   2.062
15332WAT     H146238   8.310   2.654   1.969
15332WAT     H246239   8.396   2.602   2.097
15333WAT      O46240   7.328   4.981   8.940
15333WAT     H146241   7.358   5.065   8.986
15333WAT     H246242   7.409   4.927   8.914
15334WAT      O46243   7.586   3.336   4.962
15334WAT     H146244   7.569   3.305   5.055
15334WAT     H246245   7.500   3.360   4.917
15335WAT      O46246   5.848   8.086   8.573
15335WAT     H146247   5.842   8.069   8.672
15335WAT     H246248   5.830   8.001   8.524
15336WAT      O46249   8.045   0.363   5.201
15336WAT     H146250   8.061   0.316   5.287
15336WAT     H246251   8.099   0.321   5.128
15337WAT      O46252   1.838   7.387   4.887
15337WAT     H146253   1.911   7.415   4.949
15337WAT     H246254   1.761   7.351   4.940
15338WAT      O46255   0.954   5.083   4.166
15338WAT     H146256   0.914   5.141   4.237
15338WAT     H246257   1.041   5.122   4.136
15339WAT      O46258   1.303   2.277   3.919
15339WAT     H146259   1.393   2.252   3.954
15339WAT     H246260   1.314   2.336   3.839
15340WAT      O46261   5.635   6.119   1.987
15340WAT     H146262   5.555   6.172   1.958
15340WAT     H246263   5.612   6.022   1.986
15341WAT      O46264   5.816   5.952   8.012
15341WAT     H146265   5.794   5.910   7.924
15341WAT     H246266   5.885   5.897   8.058
15342WAT      O46267   9.514   1.641   1.560
15342WAT     H146268   9.602   1.668   1.520
15342WAT     H246269   9.452   1.610   1.488
15343WAT      O46270   0.101   4.367   6.470
15343WAT     H146271   0.139   4.373   6.563
15343WAT     H246272   0.174   4.343   6.406
15344WAT      O46273   8.498   1.391   7.181
15344WAT     H146274   8.563   1.428   7.114
15344WAT     H246275   8.450   1.313   7.141
15345WAT      O46276   2.474   6.561   8.881
15345WAT     H146277   2.525   6.545   8.797
15345WAT     H246278   2.532   6.540   8.960
15346WAT      O46279   8.162   5.980   8.583
15346WAT     H146280   8.152   6.036   8.666
15346WAT     H246281   8.234   6.019   8.525
15347WAT      O46282   6.469   8.119   8.338
15347WAT     H146283   6.500   8.043   8.282
15347WAT     H246284   6.406   8.176   8.286
15348WAT      O46285   8.616   1.173   2.491
15348WAT     H146286   8.711   1.145   2.475
15348WAT     H246287   8.578   1.211   2.406
15349WAT      O46288   3.849   5.411   5.509
15349WAT     H146289   3.866   5.509   5.520
15349WAT     H246290   3.903   5.359   5.575
15350WAT      O46291   5.697   3.576   9.415
15350WAT     H146292   5.652   3.608   9.332
15350WAT     H246293   5.796   3.575   9.400
15351WAT      O46294   4.948   3.504   5.228
15351WAT     H146295   4.987   3.412   5.235
15351WAT     H246296   4.989   3.552   5.150
15352WAT      O46297   7.932   1.942   9.368
15352WAT     H146298   7.907   1.990   9.453
15352WAT     H246299   7.906   1.999   9.290
15353WAT      O46300   7.229   0.765   5.545
15353WAT     H146301   7.134   0.738   5.528
15353WAT     H246302   7.269   0.702   5.612
15354WAT      O46303   7.844   6.115   7.952
15354WAT     H146304   7.764   6.177   7.954
15354WAT     H246305   7.886   6.114   8.043
15355WAT      O46306   6.902   1.580   2.407
15355WAT     H146307   6.883   1.526   2.488
15355WAT     H246308   6.916   1.519   2.329
15356WAT      O46309   7.661   8.308   4.317
15356WAT     H146310   7.735   8.295   4.382
15356WAT     H246311   7.576   8.270   4.354
15357WAT      O46312   0.060   4.866   4.851
15357WAT     H146313   0.001   4.862   4.770
15357WAT     H246314   0.026   4.936   4.914
15358WAT      O46315   2.769   0.392   1.038
15358WAT     H146316   2.865   0.409   1.018
15358WAT     H246317   2.749   0.419   1.132
15359WAT      O46318   0.860   1.081   3.251
15359WAT     H146319   0.903   0.994   3.228
15359WAT     H246320   0.792   1.105   3.182
15360WAT      O46321   9.316   8.222   5.793
15360WAT     H146322   9.367   8.182   5.869
15360WAT     H246323   9.288   8.315   5.818
15361WAT      O46324   9.179   3.083   3.087
15361WAT     H146325   9.208   2.992   3.059
15361WAT     H246326   9.079   3.085   3.097
15362WAT      O46327   1.337   4.586   1.977
15362WAT     H146328   1.371   4.596   1.884
15362WAT     H246329   1.238   4.572   1.976
15363WAT      O46330   2.996   2.377   8.491
15363WAT     H146331   2.988   2.471   8.524
15363WAT     H246332   2.980   2.375   8.392
15364WAT      O46333   8.372   4.152   1.929
15364WAT     H146334   8.367   4.197   1.840
15364WAT     H246335   8.421   4.211   1.993
15365WAT      O46336   4.577   6.438   7.912
15365WAT     H146337   4.576   6.378   7.832
15365WAT     H246338   4.484   6.458   7.940
15366WAT      O46339   6.504   6.142   3.387
15366WAT     H146340   6.550   6.090   3.459
15366WAT     H246341   6.510   6.091   3.301
15367WAT      O46342   1.091   7.697   2.696
15367WAT     H146343   1.113   7.699   2.794
15367WAT     H246344   0.994   7.681   2.684
15368WAT      O46345   0.766   6.141   2.325
15368WAT     H146346   0.806   6.227   2.293
15368WAT     H246347   0.801   6.121   2.416
15369WAT      O46348   0.045   6.668   6.738
15369WAT     H146349   0.129   6.664   6.792
15369WAT     H246350   0.013   6.574   6.720
15370WAT      O46351   2.923   4.319   3.387
15370WAT     H146352   3.004   4.283   3.434
15370WAT     H246353   2.889   4.398   3.437
15371WAT      O46354   6.616   2.578   1.385
15371WAT     H146355   6.634   2.664   1.336
15371WAT     H246356   6.546   2.593   1.454
15372WAT      O46357   6.362   6.871   0.170
15372WAT     H146358   6.363   6.964   0.134
15372WAT     H246359   6.429   6.863   0.243
15373WAT      O46360   3.540   4.382   3.930
15373WAT     H146361   3.625   4.435   3.940
15373WAT     H246362   3.555   4.307   3.866
15374WAT      O46363   5.637   8.716   4.331
15374WAT     H146364   5.606   8.797   4.381
15374WAT     H246365   5.602   8.634   4.376
15375WAT      O46366   4.952   8.455   1.542
15375WAT     H146367   4.976   8.407   1.458
15375WAT     H246368   4.880   8.522   1.523
15376WAT      O46369   0.968   9.113   1.035
15376WAT     H146370   0.982   9.036   0.973
15376WAT     H246371   0.879   9.155   1.017
15377WAT      O46372   5.697   8.105   6.782
15377WAT     H146373   5.615   8.054   6.808
15377WAT     H246374   5.720   8.170   6.854
15378WAT      O46375   3.592   0.818   9.550
15378WAT     H146376   3.572   0.899   9.606
15378WAT     H246377   3.624   0.744   9.609
15379WAT      O46378   0.280   6.245   4.630
15379WAT     H146379   0.238   6.328   4.667
15379WAT     H246380   0.210   6.188   4.588
15380WAT      O46381   5.652   4.408   2.932
15380WAT     H146382   5.662   4.454   2.844
15380WAT     H246383   5.647   4.475   3.006
15381WAT      O46384   2.688   7.006   6.469
15381WAT     H146385   2.636   6.933   6.514
15381WAT     H246386   2.645   7.094   6.488
15382WAT      O46387   9.166   7.712   1.991
15382WAT     H146388   9.090   7.725   1.927
15382WAT     H246389   9.211   7.625   1.972
15383WAT      O46390   6.365   1.981   1.635
15383WAT     H146391   6.453   2.024   1.652
15383WAT     H246392   6.365   1.888   1.673
15384WAT      O46393   2.828   7.024   6.236
15384WAT     H146394   2.894   7.098   6.250
15384WAT     H246395   2.765   7.021   6.313
15385WAT      O46396   4.943   8.390   0.972
15385WAT     H146397   4.850   8.422   0.991
15385WAT     H246398   5.008   8.461   0.996
15386WAT      O46399   3.884   9.583   8.569
15386WAT     H146400   3.899   9.601   8.472
15386WAT     H246401   3.833   9.659   8.609
15387WAT      O46402   7.668   5.796   4.537
15387WAT     H146403   7.731   5.771   4.464
15387WAT     H246404   7.669   5.724   4.607
15388WAT      O46405   6.610   0.969   3.598
15388WAT     H146406   6.694   0.950   3.649
15388WAT     H246407   6.596   1.068   3.592
15389WAT      O46408   4.779   6.921   4.330
15389WAT     H146409   4.802   6.924   4.427
15389WAT     H246410   4.798   7.009   4.288
15390WAT      O46411   4.338   3.056   8.457
15390WAT     H146412   4.241   3.060   8.432
15390WAT     H246413   4.379   3.147   8.446
15391WAT      O46414   6.239   9.004   9.763
15391WAT     H146415   6.275   9.036   9.850
15391WAT     H246416   6.277   9.060   9.689
15392WAT      O46417   0.019   0.431   7.300
15392WAT     H146418   0.109   0.445   7.341
15392WAT     H246419  -0.016   0.519   7.266
15393WAT      O46420   9.577   6.525   9.006
15393WAT     H146421   9.625   6.501   9.090
15393WAT     H246422   9.637   6.577   8.946
15394WAT      O46423   8.164   8.675   2.214
15394WAT     H146424   8.169   8.602   2.145
15394WAT     H246425   8.070   8.682   2.248
15395WAT      O46426   9.722   1.250   7.116
15395WAT     H146427   9.673   1.166   7.137
15395WAT     H246428   9.810   1.249   7.163
15396WAT      O46429   5.928   0.950   2.710
15396WAT     H146430   5.844   1.002   2.727
15396WAT     H246431   5.980   0.993   2.638
15397WAT      O46432   5.165   0.191   3.649
15397WAT     H146433   5.225   0.219   3.574
15397WAT     H246434   5.080   0.153   3.612
15398WAT      O46435   5.765   9.237   5.596
15398WAT     H146436   5.773   9.337   5.600
15398WAT     H246437   5.673   9.212   5.566
15399WAT      O46438   7.845   1.915   1.089
15399WAT     H146439   7.857   1.816   1.098
15399WAT     H246440   7.748   1.938   1.093
15400WAT      O46441   9.660   9.380   9.707
15400WAT     H146442   9.651   9.475   9.679
15400WAT     H246443   9.746   9.368   9.757
15401WAT      O46444   3.019   9.643   2.444
15401WAT     H146445   3.017   9.637   2.344
15401WAT     H246446   2.932   9.612   2.482
15402WAT      O46447   5.775   8.600   8.780
15402WAT     H146448   5.735   8.667   8.718
15402WAT     H246449   5.872   8.620   8.792
15403WAT      O46450   9.425   7.272   0.739
15403WAT     H146451   9.472   7.186   0.719
15403WAT     H246452   9.471   7.318   0.815
15404WAT      O46453   8.138   4.486   0.457
15404WAT     H146454   8.138   4.447   0.364
15404WAT     H246455   8.089   4.424   0.518
15405WAT      O46456   3.379   0.215   3.060
15405WAT     H146457   3.455   0.271   3.027
15405WAT     H246458   3.384   0.124   3.019
15406WAT      O46459   5.307   2.567   2.672
15406WAT     H146460   5.303   2.629   2.751
15406WAT     H246461   5.230   2.584   2.612
15407WAT      O46462   8.236   3.687   4.778
15407WAT     H146463   8.204   3.595   4.756
15407WAT     H246464   8.287   3.685   4.864
15408WAT      O46465   5.865   6.334   8.889
15408WAT     H146466   5.859   6.426   8.928
15408WAT     H246467   5.950   6.324   8.839
15409WAT      O46468   2.526   6.485   0.955
15409WAT     H146469   2.476   6.458   1.037
15409WAT     H246470   2.542   6.583   0.956
15410WAT      O46471   7.646   3.228   4.461
15410WAT     H146472   7.558   3.273   4.473
15410WAT     H246473   7.632   3.134   4.428
15411WAT      O46474   1.737   4.902   2.266
15411WAT     H146475   1.771   4.816   2.305
15411WAT     H246476   1.681   4.948   2.335
15412WAT      O46477   9.293   0.928   7.311
15412WAT     H146478   9.339   0.931   7.400
15412WAT     H246479   9.319   0.844   7.264
15413WAT      O46480   3.782   8.290   4.353
15413WAT     H146481   3.789   8.356   4.427
15413WAT     H246482   3.687   8.283   4.323
15414WAT      O46483   7.433   0.046   0.472
15414WAT     H146484   7.357   0.023   0.534
15414WAT     H246485   7.440  -0.024   0.401
15415WAT      O46486   1.221   0.103   6.713
15415WAT     H146487   1.164   0.124   6.793
15415WAT     H246488   1.255   0.188   6.673
15416WAT      O46489   6.176   4.203   7.383
15416WAT     H146490   6.171   4.231   7.288
15416WAT     H246491   6.084   4.182   7.417
15417WAT      O46492   8.577   1.742   6.340
15417WAT     H146493   8.504   1.678   6.361
15417WAT     H246494   8.606   1.789   6.424
15418WAT      O46495   1.074   5.952   5.336
15418WAT     H146496   0.984   5.973   5.376
15418WAT     H246497   1.141   5.942   5.409
15419WAT      O46498   2.417   6.875   9.630
15419WAT     H146499   2.391   6.838   9.719
15419WAT     H246500   2.446   6.971   9.641
15420WAT      O46501   7.185   8.940   6.178
15420WAT     H146502   7.226   9.006   6.115
15420WAT     H246503   7.112   8.984   6.229
15421WAT      O46504   7.255   7.292   6.745
15421WAT     H146505   7.185   7.317   6.812
15421WAT     H246506   7.292   7.202   6.769
15422WAT      O46507   4.276   0.162   8.280
15422WAT     H146508   4.361   0.134   8.236
15422WAT     H246509   4.233   0.082   8.322
15423WAT      O46510   3.577   5.837   0.811
15423WAT     H146511   3.483   5.814   0.834
15423WAT     H246512   3.585   5.853   0.712
15424WAT      O46513   7.418   8.387   3.245
15424WAT     H146514   7.338   8.379   3.305
15424WAT     H246515   7.465   8.298   3.240
15425WAT      O46516   4.325   1.376   0.516
15425WAT     H146517   4.413   1.355   0.557
15425WAT     H246518   4.322   1.473   0.490
15426WAT      O46519   1.149   1.377   3.674
15426WAT     H146520   1.223   1.356   3.609
15426WAT     H246521   1.062   1.343   3.637
15427WAT      O46522   3.253   2.539   4.202
15427WAT     H146523   3.161   2.533   4.242
15427WAT     H246524   3.290   2.631   4.218
15428WAT      O46525   7.113   1.815   4.350
15428WAT     H146526   7.210   1.809   4.373
15428WAT     H246527   7.099   1.891   4.287
15429WAT      O46528   6.400   0.575   7.742
15429WAT     H146529   6.421   0.666   7.778
15429WAT     H246530   6.482   0.536   7.701
15430WAT      O46531   1.174   5.102   9.235
15430WAT     H146532   1.199   5.038   9.163
15430WAT     H246533   1.091   5.152   9.207
15431WAT      O46534   6.008   5.554   7.486
15431WAT     H146535   5.951   5.520   7.561
15431WAT     H246536   6.030   5.479   7.423
15432WAT      O46537   9.565   7.423   9.281
15432WAT     H146538   9.660   7.414   9.251
15432WAT     H246539   9.504   7.416   9.202
15433WAT      O46540   3.227   0.536   7.188
15433WAT     H146541   3.230   0.437   7.171
15433WAT     H246542   3.244   0.584   7.102
15434WAT      O46543   9.164   0.873   7.049
15434WAT     H146544   9.239   0.830   7.000
15434WAT     H246545   9.196   0.908   7.137
15435WAT      O46546   6.998   7.954   8.384
15435WAT     H146547   6.921   8.001   8.341
15435WAT     H246548   7.083   7.984   8.341
15436WAT      O46549   1.419   4.144   2.295
15436WAT     H146550   1.412   4.049   2.265
15436WAT     H246551   1.512   4.162   2.327
15437WAT      O46552   1.852   3.470   0.340
15437WAT     H146553   1.815   3.486   0.431
15437WAT     H246554   1.940   3.423   0.347
15438WAT      O46555   1.631   0.283   2.943
15438WAT     H146556   1.675   0.206   2.989
15438WAT     H246557   1.660   0.286   2.847
15439WAT      O46558   3.359   6.323   6.541
15439WAT     H146559   3.431   6.275   6.491
15439WAT     H246560   3.401   6.391   6.601
15440WAT      O46561   8.723   3.956   3.563
15440WAT     H146562   8.797   3.986   3.502
15440WAT     H246563   8.658   3.901   3.511
15441WAT      O46564   2.613   2.398   6.262
15441WAT     H146565   2.691   2.433   6.211
15441WAT     H246566   2.641   2.379   6.357
15442WAT      O46567   7.094   3.511   5.887
15442WAT     H146568   7.193   3.529   5.886
15442WAT     H246569   7.045   3.597   5.877
15443WAT      O46570   7.306   3.602   6.739
15443WAT     H146571   7.323   3.697   6.713
15443WAT     H246572   7.212   3.577   6.715
15444WAT      O46573   6.481   3.068   5.850
15444WAT     H146574   6.402   3.117   5.887
15444WAT     H246575   6.451   2.981   5.810
15445WAT      O46576   7.056   8.901   1.281
15445WAT     H146577   7.137   8.956   1.263
15445WAT     H246578   7.081   8.819   1.332
15446WAT      O46579   6.600   1.295   6.216
15446WAT     H146580   6.510   1.332   6.193
15446WAT     H246581   6.671   1.356   6.182
15447WAT      O46582   3.660   5.388   8.011
15447WAT     H146583   3.641   5.334   7.930
15447WAT     H246584   3.578   5.441   8.035
15448WAT      O46585   6.071   4.447   4.696
15448WAT     H146586   6.085   4.426   4.599
15448WAT     H246587   5.993   4.395   4.730
15449WAT      O46588   2.375   8.581   7.974
15449WAT     H146589   2.427   8.495   7.976
15449WAT     H246590   2.425   8.649   7.920
15450WAT      O46591   7.942   3.555   2.378
15450WAT     H146592   7.872   3.617   2.415
15450WAT     H246593   8.011   3.537   2.449
15451WAT      O46594   8.000   7.840   5.241
15451WAT     H146595   7.990   7.918   5.178
15451WAT     H246596   8.051   7.869   5.321
15452WAT      O46597   4.914   0.500   7.815
15452WAT     H146598   5.008   0.523   7.788
15452WAT     H246599   4.904   0.401   7.819
15453WAT      O46600   8.842   2.137   3.247
15453WAT     H146601   8.894   2.193   3.182
15453WAT     H246602   8.745   2.140   3.223
15454WAT      O46603   2.807   8.648   2.633
15454WAT     H146604   2.837   8.733   2.591
15454WAT     H246605   2.860   8.572   2.595
15455WAT      O46606   9.139   9.809   5.747
15455WAT     H146607   9.136   9.753   5.830
15455WAT     H246608   9.076   9.770   5.679
15456WAT      O46609   5.032   0.450   0.562
15456WAT     H146610   5.089   0.375   0.530
15456WAT     H246611   4.939   0.440   0.525
15457WAT      O46612   5.649   1.219   4.111
15457WAT     H146613   5.569   1.159   4.106
15457WAT     H246614   5.640   1.293   4.044
15458WAT      O46615   7.106   9.391   6.402
15458WAT     H146616   7.158   9.339   6.335
15458WAT     H246617   7.150   9.383   6.491
15459WAT      O46618   7.913   3.472   1.757
15459WAT     H146619   7.888   3.451   1.662
15459WAT     H246620   8.008   3.504   1.760
15460WAT      O46621   5.660   9.319   4.802
15460WAT     H146622   5.645   9.389   4.872
15460WAT     H246623   5.691   9.234   4.846
15461WAT      O46624   1.823   4.651   7.353
15461WAT     H146625   1.893   4.662   7.282
15461WAT     H246626   1.868   4.647   7.443
15462WAT      O46627   3.472   2.167   5.472
15462WAT     H146628   3.378   2.131   5.477
15462WAT     H246629   3.498   2.202   5.562
15463WAT      O46630   2.923   8.775   1.345
15463WAT     H146631   2.889   8.731   1.428
15463WAT     H246632   2.947   8.870   1.365
15464WAT      O46633   3.164   8.214   3.465
15464WAT     H146634   3.257   8.177   3.469
15464WAT     H246635   3.112   8.179   3.543
15465WAT      O46636   7.671   1.200   9.191
15465WAT     H146637   7.603   1.217   9.119
15465WAT     H246638   7.641   1.242   9.276
15466WAT      O46639   2.198   6.019   1.920
15466WAT     H146640   2.156   5.998   1.832
15466WAT     H246641   2.289   6.058   1.905
15467WAT      O46642   5.664   2.007   2.429
15467WAT     H146643   5.601   2.081   2.451
15467WAT     H246644   5.641   1.926   2.484
15468WAT      O46645   0.680   0.030   5.178
15468WAT     H146646   0.730  -0.030   5.116
15468WAT     H246647   0.649   0.111   5.129
15469WAT      O46648   1.426   8.810   1.696
15469WAT     H146649   1.357   8.748   1.732
15469WAT     H246650   1.382   8.881   1.640
15470WAT      O46651   3.074   3.440   1.979
15470WAT     H146652   3.154   3.388   2.010
15470WAT     H246653   2.994   3.414   2.032
15471WAT      O46654   8.394   5.250   8.344
15471WAT     H146655   8.347   5.320   8.291
15471WAT     H246656   8.393   5.275   8.441
15472WAT      O46657   5.425   6.526   2.448
15472WAT     H146658   5.391   6.618   2.468
15472WAT     H246659   5.501   6.532   2.383
15473WAT      O46660   0.867   7.702   6.032
15473WAT     H146661   0.956   7.747   6.022
15473WAT     H246662   0.815   7.711   5.947
15474WAT      O46663   8.731   1.000   8.570
15474WAT     H146664   8.644   0.974   8.527
15474WAT     H246665   8.778   1.066   8.512
15475WAT      O46666   7.680   7.393   6.606
15475WAT     H146667   7.628   7.464   6.560
15475WAT     H246668   7.685   7.413   6.704
15476WAT      O46669   0.195   8.532   3.119
15476WAT     H146670   0.154   8.566   3.035
15476WAT     H246671   0.124   8.499   3.180
15477WAT      O46672   1.560   0.808   0.402
15477WAT     H146673   1.656   0.821   0.376
15477WAT     H246674   1.551   0.818   0.501
15478WAT      O46675   6.223   8.397   2.112
15478WAT     H146676   6.126   8.370   2.106
15478WAT     H246677   6.263   8.356   2.193
15479WAT      O46678   5.544   8.029   5.104
15479WAT     H146679   5.531   8.115   5.154
15479WAT     H246680   5.616   8.041   5.036
15480WAT      O46681   8.335   4.544   0.790
15480WAT     H146682   8.410   4.606   0.815
15480WAT     H246683   8.301   4.567   0.699
15481WAT      O46684   4.212   4.994   6.446
15481WAT     H146685   4.156   4.913   6.461
15481WAT     H246686   4.306   4.967   6.422
15482WAT      O46687   5.856   4.915   6.724
15482WAT     H146688   5.788   4.843   6.721
15482WAT     H246689   5.851   4.962   6.812
15483WAT      O46690   5.437   9.560   3.819
15483WAT     H146691   5.413   9.650   3.855
15483WAT     H246692   5.483   9.569   3.731
15484WAT      O46693   6.271   9.183   6.138
15484WAT     H146694   6.355   9.129   6.140
15484WAT     H246695   6.277   9.250   6.063
15485WAT      O46696   7.877   7.074   0.319
15485WAT     H146697   7.853   7.056   0.223
15485WAT     H246698   7.971   7.047   0.335
15486WAT      O46699   6.709   7.387   2.527
15486WAT     H146700   6.639   7.325   2.563
15486WAT     H246701   6.665   7.465   2.483
15487WAT      O46702   6.729   3.017   3.104
15487WAT     H146703   6.718   3.105   3.057
15487WAT     H246704   6.687   3.022   3.195
15488WAT      O46705   7.114   0.765   5.165
15488WAT     H146706   7.141   0.848   5.213
15488WAT     H246707   7.189   0.699   5.169
15489WAT      O46708   7.500   6.955   4.638
15489WAT     H146709   7.486   6.857   4.629
15489WAT     H246710   7.428   7.004   4.589
15490WAT      O46711   3.370   5.087   7.759
15490WAT     H146712   3.343   4.999   7.799
15490WAT     H246713   3.447   5.073   7.697
15491WAT      O46714   6.513   1.392   3.015
15491WAT     H146715   6.556   1.482   3.024
15491WAT     H246716   6.417   1.399   3.041
15492WAT      O46717   5.704   0.187   8.733
15492WAT     H146718   5.738   0.100   8.768
15492WAT     H246719   5.717   0.258   8.802
15493WAT      O46720   1.432   5.951   2.810
15493WAT     H146721   1.337   5.970   2.834
15493WAT     H246722   1.442   5.951   2.710
15494WAT      O46723   4.101   7.285   3.240
15494WAT     H146724   4.043   7.366   3.234
15494WAT     H246725   4.055   7.208   3.195
15495WAT      O46726   1.058   5.562   8.580
15495WAT     H146727   1.078   5.649   8.535
15495WAT     H246728   0.980   5.519   8.534
15496WAT      O46729   4.101   1.586   2.346
15496WAT     H146730   4.178   1.619   2.292
15496WAT     H246731   4.063   1.504   2.303
15497WAT      O46732   3.655   4.262   8.711
15497WAT     H146733   3.746   4.282   8.746
15497WAT     H246734   3.586   4.290   8.778
15498WAT      O46735   2.123   8.210   1.925
15498WAT     H146736   2.187   8.139   1.897
15498WAT     H246737   2.162   8.261   2.002
15499WAT      O46738   2.986   3.717   8.336
15499WAT     H146739   3.013   3.741   8.429
15499WAT     H246740   2.903   3.661   8.338
15500WAT      O46741   2.632   4.702   0.765
15500WAT     H146742   2.636   4.705   0.665
15500WAT     H246743   2.581   4.622   0.795
15501WAT      O46744   8.566   8.019   6.030
15501WAT     H146745   8.663   8.015   6.006
15501WAT     H246746   8.543   7.941   6.088
15502WAT      O46747   5.700   1.999   7.091
15502WAT     H146748   5.642   1.941   7.147
15502WAT     H246749   5.643   2.064   7.039
15503WAT      O46750   1.754   6.018   4.767
15503WAT     H146751   1.813   6.093   4.797
15503WAT     H246752   1.776   5.935   4.818
15504WAT      O46753   5.003   3.700   6.795
15504WAT     H146754   4.925   3.684   6.734
15504WAT     H246755   4.972   3.750   6.876
15505WAT      O46756   8.297   4.918   6.809
15505WAT     H146757   8.332   4.976   6.883
15505WAT     H246758   8.215   4.870   6.840
15506WAT      O46759   9.325   5.552   8.542
15506WAT     H146760   9.255   5.621   8.562
15506WAT     H246761   9.292   5.462   8.572
15507WAT      O46762   2.024   6.518   6.794
15507WAT     H146763   1.981   6.428   6.800
15507WAT     H246764   2.111   6.510   6.745
15508WAT      O46765   4.295   5.909   2.106
15508WAT     H146766   4.330   5.989   2.058
15508WAT     H246767   4.292   5.928   2.204
15509WAT      O46768   4.088   3.172   7.820
15509WAT     H146769   4.116   3.107   7.890
15509WAT     H246770   4.025   3.239   7.860
15510WAT      O46771   4.220   1.590   0.860
15510WAT     H146772   4.222   1.491   0.875
15510WAT     H246773   4.209   1.637   0.947
15511WAT      O46774   7.628   0.719   5.168
15511WAT     H146775   7.552   0.773   5.206
15511WAT     H246776   7.715   0.759   5.197
15512WAT      O46777   0.646   7.115   9.539
15512WAT     H146778   0.643   7.213   9.518
15512WAT     H246779   0.725   7.074   9.493
15513WAT      O46780   4.033   1.292   0.608
15513WAT     H146781   3.976   1.295   0.690
15513WAT     H246782   4.106   1.359   0.616
15514WAT      O46783   5.768   2.667   3.988
15514WAT     H146784   5.777   2.619   4.075
15514WAT     H246785   5.736   2.760   4.004
15515WAT      O46786   8.069   3.508   6.464
15515WAT     H146787   7.990   3.459   6.426
15515WAT     H246788   8.117   3.449   6.529
15516WAT      O46789   7.627   0.268   9.732
15516WAT     H146790   7.700   0.201   9.744
15516WAT     H246791   7.643   0.347   9.791
15517WAT      O46792   2.260   8.711   1.782
15517WAT     H146793   2.185   8.776   1.769
15517WAT     H246794   2.337   8.738   1.723
15518WAT      O46795   0.381   7.718   3.397
15518WAT     H146796   0.413   7.737   3.490
15518WAT     H246797   0.456   7.732   3.332
15519WAT      O46798   7.894   8.353   9.095
15519WAT     H146799   7.914   8.270   9.042
15519WAT     H246800   7.884   8.430   9.032
15520WAT      O46801   2.441   7.995   5.232
15520WAT     H146802   2.448   7.977   5.330
15520WAT     H246803   2.448   7.909   5.182
15521WAT      O46804   1.330   8.044   9.420
15521WAT     H146805   1.410   8.037   9.360
15521WAT     H246806   1.281   7.957   9.422
15522WAT      O46807   0.744   4.937   4.830
15522WAT     H146808   0.760   4.918   4.927
15522WAT     H246809   0.794   5.019   4.804
15523WAT      O46810   4.312   4.895   2.009
15523WAT     H146811   4.230   4.929   2.054
15523WAT     H246812   4.351   4.967   1.951
15524WAT      O46813   2.496   7.653   0.721
15524WAT     H146814   2.460   7.745   0.712
15524WAT     H246815   2.593   7.657   0.748
15525WAT      O46816   1.486   6.930   5.917
15525WAT     H146817   1.556   6.912   5.987
15525WAT     H246818   1.433   6.846   5.902
15526WAT      O46819   0.622   0.506   9.271
15526WAT     H146820   0.565   0.487   9.351
15526WAT     H246821   0.592   0.592   9.229
15527WAT      O46822   5.294   4.849   8.250
15527WAT     H146823   5.393   4.835   8.245
15527WAT     H246824   5.267   4.923   8.189
15528WAT      O46825   5.231   0.671   1.705
15528WAT     H146826   5.175   0.722   1.639
15528WAT     H246827   5.278   0.597   1.658
15529WAT      O46828   5.031   0.344   3.262
15529WAT     H146829   5.038   0.443   3.251
15529WAT     H246830   5.028   0.301   3.172
15530WAT      O46831   1.593   6.269   3.899
15530WAT     H146832   1.505   6.244   3.860
15530WAT     H246833   1.634   6.189   3.944
15531WAT      O46834   7.579   7.306   8.641
15531WAT     H146835   7.546   7.304   8.546
15531WAT     H246836   7.675   7.335   8.642
15532WAT      O46837   1.344   1.301   3.873
15532WAT     H146838   1.397   1.356   3.937
15532WAT     H246839   1.280   1.360   3.823
15533WAT      O46840   6.538   0.166   7.677
15533WAT     H146841   6.631   0.147   7.707
15533WAT     H246842   6.483   0.196   7.755
15534WAT      O46843   4.911   5.958   0.569
15534WAT     H146844   4.843   5.932   0.501
15534WAT     H246845   4.871   6.025   0.632
15535WAT      O46846   4.291   7.864   5.988
15535WAT     H146847   4.282   7.880   6.086
15535WAT     H246848   4.201   7.843   5.949
15536WAT      O46849   0.152   3.400   3.062
15536WAT     H146850   0.188   3.326   3.006
15536WAT     H246851   0.069   3.370   3.109
15537WAT      O46852   1.797   2.958   5.981
15537WAT     H146853   1.780   3.000   6.070
15537WAT     H246854   1.711   2.951   5.930
15538WAT      O46855   8.653   1.388   7.417
15538WAT     H146856   8.694   1.479   7.414
15538WAT     H246857   8.590   1.378   7.340
15539WAT      O46858   1.762   6.281   1.366
15539WAT     H146859   1.848   6.240   1.335
15539WAT     H246860   1.780   6.375   1.396
15540WAT      O46861   8.966   4.047   1.190
15540WAT     H146862   8.889   3.983   1.188
15540WAT     H246863   8.971   4.097   1.103
15541WAT      O46864   1.048   5.544   9.078
15541WAT     H146865   1.106   5.582   9.149
15541WAT     H246866   1.078   5.577   8.988
15542WAT      O46867   7.036   2.537   7.095
15542WAT     H146868   7.033   2.635   7.079
15542WAT     H246869   7.077   2.519   7.184
15543WAT      O46870   6.672   8.718   9.423
15543WAT     H146871   6.634   8.807   9.396
15543WAT     H246872   6.723   8.729   9.508
15544WAT      O46873   8.308   7.647   4.647
15544WAT     H146874   8.213   7.615   4.641
15544WAT     H246875   8.363   7.601   4.577
15545WAT      O46876   5.588   2.133   9.156
15545WAT     H146877   5.583   2.133   9.056
15545WAT     H246878   5.495   2.138   9.194
15546WAT      O46879   0.195   6.783   0.197
15546WAT     H146880   0.189   6.882   0.212
15546WAT     H246881   0.114   6.738   0.233
15547WAT      O46882   1.481   6.255   4.424
15547WAT     H146883   1.527   6.262   4.513
15547WAT     H246884   1.454   6.346   4.393
15548WAT      O46885   4.596   9.529   6.329
15548WAT     H146886   4.658   9.605   6.308
15548WAT     H246887   4.647   9.457   6.377
15549WAT      O46888   9.291   7.550   2.610
15549WAT     H146889   9.209   7.573   2.558
15549WAT     H246890   9.356   7.503   2.550
15550WAT      O46891   2.324   3.919   3.086
15550WAT     H146892   2.297   3.959   2.998
15550WAT     H246893   2.323   3.989   3.157
15551WAT      O46894   3.737   4.203   9.545
15551WAT     H146895   3.830   4.211   9.509
15551WAT     H246896   3.726   4.115   9.591
15552WAT      O46897   2.069   8.441   5.438
15552WAT     H146898   2.143   8.503   5.411
15552WAT     H246899   1.984   8.492   5.446
15553WAT      O46900   8.822   5.975   2.042
15553WAT     H146901   8.807   5.903   1.973
15553WAT     H246902   8.757   5.962   2.117
15554WAT      O46903   5.339   0.490   4.023
15554WAT     H146904   5.271   0.485   3.949
15554WAT     H246905   5.429   0.469   3.986
15555WAT      O46906   5.793   9.334   7.469
15555WAT     H146907   5.770   9.282   7.551
15555WAT     H246908   5.784   9.274   7.389
15556WAT      O46909   6.763   3.357   0.181
15556WAT     H146910   6.707   3.281   0.215
15556WAT     H246911   6.849   3.359   0.232
15557WAT      O46912   3.717   1.383   7.438
15557WAT     H146913   3.761   1.377   7.527
15557WAT     H246914   3.771   1.331   7.370
15558WAT      O46915   9.648   7.119   8.864
15558WAT     H146916   9.712   7.094   8.792
15558WAT     H246917   9.586   7.043   8.881
15559WAT      O46918   2.114   6.416   9.629
15559WAT     H146919   2.075   6.488   9.571
15559WAT     H246920   2.126   6.451   9.722
15560WAT      O46921   8.369   6.387   6.436
15560WAT     H146922   8.367   6.414   6.339
15560WAT     H246923   8.437   6.442   6.484
15561WAT      O46924   2.493   8.008   6.248
15561WAT     H146925   2.453   8.012   6.339
15561WAT     H246926   2.588   8.039   6.251
15562WAT      O46927   3.918   1.418   3.354
15562WAT     H146928   3.933   1.492   3.288
15562WAT     H246929   3.821   1.391   3.352
15563WAT      O46930   6.648   0.127   3.874
15563WAT     H146931   6.727   0.155   3.819
15563WAT     H246932   6.580   0.201   3.874
15564WAT      O46933   3.225   9.407   5.732
15564WAT     H146934   3.311   9.457   5.720
15564WAT     H246935   3.221   9.332   5.667
15565WAT      O46936   2.119   7.644   3.667
15565WAT     H146937   2.198   7.600   3.623
15565WAT     H246938   2.109   7.608   3.759
15566WAT      O46939   3.448   7.103   1.316
15566WAT     H146940   3.475   7.037   1.246
15566WAT     H246941   3.374   7.160   1.281
15567WAT      O46942   4.489   2.165   5.833
15567WAT     H146943   4.398   2.131   5.854
15567WAT     H246944   4.485   2.264   5.814
15568WAT      O46945   8.232   3.228   9.452
15568WAT     H146946   8.219   3.324   9.426
15568WAT     H246947   8.155   3.174   9.417
15569WAT      O46948   7.558   8.805   0.421
15569WAT     H146949   7.484   8.828   0.484
15569WAT     H246950   7.606   8.888   0.394
15570WAT      O46951   9.379   0.083   4.611
15570WAT     H146952   9.409   0.142   4.536
15570WAT     H246953   9.306   0.023   4.578
15571WAT      O46954   0.211   0.673   3.705
15571WAT     H146955   0.257   0.650   3.790
15571WAT     H246956   0.127   0.723   3.726
15572WAT      O46957   5.970   9.249   2.950
15572WAT     H146958   5.975   9.154   2.920
15572WAT     H246959   6.008   9.257   3.042
15573WAT      O46960   4.050   3.439   9.144
15573WAT     H146961   4.121   3.457   9.213
15573WAT     H246962   4.046   3.516   9.080
15574WAT      O46963   8.727   9.328   0.875
15574WAT     H146964   8.755   9.398   0.941
15574WAT     H246965   8.651   9.362   0.820
15575WAT      O46966   2.788   6.278   1.181
15575WAT     H146967   2.739   6.315   1.260
15575WAT     H246968   2.798   6.349   1.112
15576WAT      O46969   4.336   1.677   2.223
15576WAT     H146970   4.368   1.615   2.151
15576WAT     H246971   4.364   1.771   2.201
15577WAT      O46972   9.649   4.473   1.385
15577WAT     H146973   9.727   4.424   1.345
15577WAT     H246974   9.638   4.446   1.480
15578WAT      O46975   6.460   5.715   2.787
15578WAT     H146976   6.372   5.702   2.742
15578WAT     H246977   6.508   5.792   2.745
15579WAT      O46978   9.870   0.372   1.388
15579WAT     H146979   9.907   0.452   1.341
15579WAT     H246980   9.846   0.396   1.482
15580WAT      O46981   5.200   5.895   9.740
15580WAT     H146982   5.169   5.985   9.771
15580WAT     H246983   5.249   5.849   9.813
15581WAT      O46984   6.151   0.454   8.694
15581WAT     H146985   6.197   0.522   8.638
15581WAT     H246986   6.201   0.368   8.691
15582WAT      O46987   9.038   6.049   5.301
15582WAT     H146988   9.101   6.046   5.223
15582WAT     H246989   9.046   5.964   5.353
15583WAT      O46990   8.889   8.944   8.121
15583WAT     H146991   8.908   8.932   8.024
15583WAT     H246992   8.963   8.905   8.176
15584WAT      O46993   3.694   6.140   0.833
15584WAT     H146994   3.738   6.054   0.861
15584WAT     H246995   3.746   6.182   0.759
15585WAT      O46996   7.536   5.886   2.797
15585WAT     H146997   7.439   5.864   2.787
15585WAT     H246998   7.580   5.880   2.707
15586WAT      O46999   8.763   3.426   9.036
15586WAT     H147000   8.808   3.506   8.995
15586WAT     H247001   8.803   3.406   9.125
15587WAT      O47002   2.771   6.462   9.581
15587WAT     H147003   2.801   6.431   9.671
15587WAT     H247004   2.680   6.502   9.588
15588WAT      O47005   5.996   1.959   4.433
15588WAT     H147006   5.972   1.984   4.527
15588WAT     H247007   6.023   2.041   4.382
15589WAT      O47008   4.453   2.824   1.289
15589WAT     H147009   4.541   2.836   1.242
15589WAT     H247010   4.399   2.907   1.279
15590WAT      O47011   2.304   1.735   6.622
15590WAT     H147012   2.239   1.808   6.642
15590WAT     H247013   2.306   1.671   6.698
15591WAT      O47014   3.527   1.602   7.068
15591WAT     H147015   3.520   1.566   6.975
15591WAT     H247016   3.457   1.559   7.126
15592WAT      O47017   6.477   5.507   8.967
15592WAT     H147018   6.574   5.526   8.983
15592WAT     H247019   6.465   5.409   8.951
15593WAT      O47020   7.205   6.512   3.307
15593WAT     H147021   7.149   6.543   3.230
15593WAT     H247022   7.205   6.581   3.379
15594WAT      O47023   5.411   7.092   3.537
15594WAT     H147024   5.436   7.095   3.440
15594WAT     H247025   5.318   7.055   3.546
15595WAT      O47026   7.406   0.565   7.947
15595WAT     H147027   7.338   0.499   7.979
15595WAT     H247028   7.464   0.522   7.878
15596WAT      O47029   5.289   6.653   4.108
15596WAT     H147030   5.286   6.743   4.152
15596WAT     H247031   5.365   6.600   4.147
15597WAT      O47032   0.075   4.539   7.868
15597WAT     H147033   0.112   4.519   7.778
15597WAT     H247034   0.074   4.638   7.882
15598WAT      O47035   9.586   9.539   4.065
15598WAT     H147036   9.621   9.588   4.145
15598WAT     H247037   9.501   9.494   4.089
15599WAT      O47038   6.133   3.156   2.117
15599WAT     H147039   6.079   3.127   2.038
15599WAT     H247040   6.214   3.097   2.125
15600WAT      O47041   8.399   5.084   4.972
15600WAT     H147042   8.358   5.123   4.889
15600WAT     H247043   8.468   5.147   5.007
15601WAT      O47044   0.189   9.340   8.752
15601WAT     H147045   0.106   9.382   8.790
15601WAT     H247046   0.188   9.242   8.770
15602WAT      O47047   2.452   5.670   2.446
15602WAT     H147048   2.420   5.693   2.538
15602WAT     H247049   2.399   5.722   2.378
15603WAT      O47050   0.239   3.972   4.778
15603WAT     H147051   0.196   3.947   4.864
15603WAT     H247052   0.203   4.060   4.747
15604WAT      O47053   6.497   1.403   8.992
15604WAT     H147054   6.541   1.409   8.902
15604WAT     H247055   6.401   1.381   8.980
15605WAT      O47056   9.493   7.065   2.924
15605WAT     H147057   9.482   7.078   3.023
15605WAT     H247058   9.481   6.968   2.902
15606WAT      O47059   6.823   3.961   3.210
15606WAT     H147060   6.892   4.027   3.240
15606WAT     H247061   6.785   3.989   3.122
15607WAT      O47062   3.367   1.220   1.261
15607WAT     H147063   3.385   1.298   1.321
15607WAT     H247064   3.416   1.232   1.174
15608WAT      O47065   6.867   5.374   0.834
15608WAT     H147066   6.852   5.276   0.817
15608WAT     H247067   6.896   5.418   0.750
15609WAT      O47068   7.015   6.759   5.626
15609WAT     H147069   7.007   6.856   5.601
15609WAT     H247070   7.087   6.749   5.696
15610WAT      O47071   9.437   3.683   9.819
15610WAT     H147072   9.452   3.585   9.832
15610WAT     H247073   9.340   3.699   9.797
15611WAT      O47074   6.303   5.151   9.158
15611WAT     H147075   6.245   5.070   9.144
15611WAT     H247076   6.375   5.153   9.089
15612WAT      O47077   7.724   4.162   5.428
15612WAT     H147078   7.803   4.187   5.484
15612WAT     H247079   7.640   4.195   5.473
15613WAT      O47080   6.400   2.928   4.740
15613WAT     H147081   6.398   2.995   4.814
15613WAT     H247082   6.326   2.862   4.752
15614WAT      O47083   1.169   0.940   9.748
15614WAT     H147084   1.193   0.987   9.663
15614WAT     H247085   1.205   0.846   9.746
15615WAT      O47086   7.224   5.673   3.266
15615WAT     H147087   7.247   5.582   3.231
15615WAT     H247088   7.149   5.711   3.212
15616WAT      O47089   9.629   9.012   2.976
15616WAT     H147090   9.725   9.016   3.004
15616WAT     H247091   9.624   9.001   2.877
15617WAT      O47092   8.339   4.074   6.644
15617WAT     H147093   8.319   4.169   6.668
15617WAT     H247094   8.256   4.019   6.657
15618WAT      O47095   8.340   6.257   9.755
15618WAT     H147096   8.304   6.210   9.835
15618WAT     H247097   8.304   6.350   9.750
15619WAT      O47098   5.970   0.811   5.755
15619WAT     H147099   5.913   0.888   5.726
15619WAT     H247100   5.949   0.788   5.850
15620WAT      O47101   3.347   8.214   2.071
15620WAT     H147102   3.337   8.261   1.983
15620WAT     H247103   3.418   8.143   2.063
15621WAT      O47104   7.363   1.790   5.240
15621WAT     H147105   7.378   1.723   5.167
15621WAT     H247106   7.278   1.840   5.221
15622WAT      O47107   1.779   0.403   7.534
15622WAT     H147108   1.690   0.416   7.489
15622WAT     H247109   1.784   0.311   7.573
15623WAT      O47110   7.234   7.280   9.829
15623WAT     H147111   7.303   7.277   9.901
15623WAT     H247112   7.259   7.350   9.762
15624WAT      O47113   9.536   2.438   4.323
15624WAT     H147114   9.448   2.407   4.287
15624WAT     H247115   9.526   2.461   4.420
15625WAT      O47116   5.057   5.290   6.736
15625WAT     H147117   5.072   5.222   6.808
15625WAT     H247118   4.967   5.277   6.695
15626WAT      O47119   8.657   2.907   1.909
15626WAT     H147120   8.729   2.962   1.952
15626WAT     H247121   8.582   2.967   1.881
15627WAT      O47122   2.015   8.118   1.303
15627WAT     H147123   1.946   8.119   1.374
15627WAT     H247124   2.087   8.184   1.324
15628WAT      O47125   5.189   1.809   6.349
15628WAT     H147126   5.286   1.801   6.328
15628WAT     H247127   5.177   1.830   6.446
15629WAT      O47128   0.693   4.445   7.324
15629WAT     H147129   0.744   4.359   7.323
15629WAT     H247130   0.756   4.522   7.320
15630WAT      O47131   1.665   9.365   3.191
15630WAT     H147132   1.741   9.400   3.245
15630WAT     H247133   1.691   9.363   3.094
15631WAT      O47134   5.156   6.035   2.124
15631WAT     H147135   5.165   6.093   2.206
15631WAT     H247136   5.073   6.061   2.075
15632WAT      O47137   7.007   0.819   3.090
15632WAT     H147138   7.061   0.899   3.067
15632WAT     H247139   6.924   0.818   3.033
15633WAT      O47140   0.872   3.704   1.810
15633WAT     H147141   0.875   3.728   1.713
15633WAT     H247142   0.922   3.619   1.824
15634WAT      O47143   2.772   3.134   2.694
15634WAT     H147144   2.846   3.191   2.659
15634WAT     H247145   2.777   3.130   2.794
15635WAT      O47146   1.837   7.480   6.753
15635WAT     H147147   1.922   7.436   6.783
15635WAT     H247148   1.855   7.576   6.731
15636WAT      O47149   9.444   3.112   4.700
15636WAT     H147150   9.451   3.170   4.618
15636WAT     H247151   9.395   3.028   4.678
15637WAT      O47152   1.640   1.370   9.660
15637WAT     H147153   1.695   1.371   9.744
15637WAT     H247154   1.674   1.298   9.599
15638WAT      O47155   7.633   9.366   4.000
15638WAT     H147156   7.657   9.270   3.986
15638WAT     H247157   7.703   9.424   3.958
15639WAT      O47158   6.005   8.507   1.292
15639WAT     H147159   5.936   8.464   1.350
15639WAT     H247160   5.977   8.601   1.271
15640WAT      O47161   4.602   8.215   0.335
15640WAT     H147162   4.515   8.181   0.299
15640WAT     H247163   4.595   8.314   0.350
15641WAT      O47164   3.357   7.847   4.247
15641WAT     H147165   3.264   7.845   4.211
15641WAT     H247166   3.356   7.881   4.341
15642WAT      O47167   6.194   0.338   1.830
15642WAT     H147168   6.160   0.272   1.763
15642WAT     H247169   6.211   0.291   1.917
15643WAT      O47170   4.257   8.264   6.514
15643WAT     H147171   4.178   8.325   6.516
15643WAT     H247172   4.249   8.196   6.587
15644WAT      O47173   5.849   3.205   1.311
15644WAT     H147174   5.902   3.280   1.272
15644WAT     H247175   5.837   3.220   1.410
15645WAT      O47176   7.822   7.704   6.707
15645WAT     H147177   7.799   7.608   6.692
15645WAT     H247178   7.738   7.757   6.719
15646WAT      O47179   0.801   8.659   0.690
15646WAT     H147180   0.815   8.571   0.735
15646WAT     H247181   0.844   8.658   0.600
15647WAT      O47182   1.610   6.102   5.883
15647WAT     H147183   1.703   6.079   5.856
15647WAT     H247184   1.576   6.178   5.827
15648WAT      O47185   3.685   6.152   6.536
15648WAT     H147186   3.770   6.116   6.496
15648WAT     H247187   3.623   6.180   6.462
15649WAT      O47188   2.075   3.367   9.653
15649WAT     H147189   2.169   3.336   9.660
15649WAT     H247190   2.061   3.416   9.567
15650WAT      O47191   2.867   4.543   5.909
15650WAT     H147192   2.840   4.479   5.980
15650WAT     H247193   2.797   4.545   5.837
15651WAT      O47194   1.861   2.722   5.709
15651WAT     H147195   1.902   2.650   5.764
15651WAT     H247196   1.926   2.797   5.698
15652WAT      O47197   3.185   7.970   0.677
15652WAT     H147198   3.254   8.031   0.638
15652WAT     H247199   3.183   7.885   0.625
15653WAT      O47200   8.709   2.858   8.695
15653WAT     H147201   8.632   2.795   8.699
15653WAT     H247202   8.684   2.944   8.739
15654WAT      O47203   3.287   3.893   4.082
15654WAT     H147204   3.320   3.976   4.127
15654WAT     H247205   3.354   3.820   4.093
15655WAT      O47206   7.347   4.319   3.310
15655WAT     H147207   7.384   4.315   3.217
15655WAT     H247208   7.419   4.352   3.372
15656WAT      O47209   9.732   5.178   5.237
15656WAT     H147210   9.690   5.089   5.220
15656WAT     H247211   9.772   5.178   5.329
15657WAT      O47212   2.521   9.145   9.752
15657WAT     H147213   2.594   9.104   9.698
15657WAT     H247214   2.469   9.073   9.798
15658WAT      O47215   7.525   0.851   9.390
15658WAT     H147216   7.488   0.906   9.315
15658WAT     H247217   7.497   0.890   9.478
15659WAT      O47218   8.736   9.745   0.249
15659WAT     H147219   8.831   9.717   0.259
15659WAT     H247220   8.714   9.814   0.318
15660WAT      O47221   4.998   9.472   8.450
15660WAT     H147222   5.086   9.495   8.491
15660WAT     H247223   4.959   9.554   8.406
15661WAT      O47224   7.724   2.347   7.125
15661WAT     H147225   7.806   2.327   7.071
15661WAT     H247226   7.751   2.391   7.211
15662WAT      O47227   6.426   6.099   5.295
15662WAT     H147228   6.348   6.063   5.346
15662WAT     H247229   6.402   6.188   5.256
15663WAT      O47230   5.320   2.268   4.414
15663WAT     H147231   5.238   2.325   4.407
15663WAT     H247232   5.385   2.311   4.477
15664WAT      O47233   3.067   2.554   6.788
15664WAT     H147234   3.002   2.545   6.863
15664WAT     H247235   3.160   2.539   6.822
15665WAT      O47236   9.736   4.602   3.023
15665WAT     H147237   9.698   4.694   3.018
15665WAT     H247238   9.826   4.605   3.067
15666WAT      O47239   6.313   3.175   6.583
15666WAT     H147240   6.251   3.128   6.647
15666WAT     H247241   6.378   3.230   6.635
15667WAT      O47242   1.919   8.916   7.759
15667WAT     H147243   1.829   8.959   7.764
15667WAT     H247244   1.972   8.938   7.841
15668WAT      O47245   4.369   9.469   0.455
15668WAT     H147246   4.279   9.481   0.496
15668WAT     H247247   4.418   9.557   0.456
15669WAT      O47248   4.304   9.048   6.775
15669WAT     H147249   4.361   8.969   6.753
15669WAT     H247250   4.212   9.034   6.738
15670WAT      O47251   2.938   3.314   7.713
15670WAT     H147252   2.936   3.215   7.721
15670WAT     H247253   2.966   3.340   7.620
15671WAT      O47254   1.015   9.347   0.353
15671WAT     H147255   0.920   9.366   0.331
15671WAT     H247256   1.072   9.369   0.274
15672WAT      O47257   9.729   4.888   9.282
15672WAT     H147258   9.786   4.826   9.336
15672WAT     H247259   9.719   4.852   9.189
15673WAT      O47260   4.966   9.183   9.016
15673WAT     H147261   4.872   9.153   9.032
15673WAT     H247262   5.028   9.106   9.029
15674WAT      O47263   1.631   0.155   1.317
15674WAT     H147264   1.683   0.126   1.398
15674WAT     H247265   1.629   0.081   1.250
15675WAT      O47266   1.019   7.626   1.958
15675WAT     H147267   1.076   7.659   2.033
15675WAT     H247268   1.029   7.527   1.949
15676WAT      O47269   8.554   6.733   1.842
15676WAT     H147270   8.479   6.796   1.861
15676WAT     H247271   8.641   6.773   1.871
15677WAT      O47272   5.574   7.318   1.284
15677WAT     H147273   5.618   7.393   1.235
15677WAT     H247274   5.641   7.275   1.345
15678WAT      O47275   5.967   5.715   3.909
15678WAT     H147276   5.877   5.706   3.952
15678WAT     H247277   6.002   5.807   3.923
15679WAT      O47278   7.328   2.186   1.936
15679WAT     H147279   7.424   2.210   1.921
15679WAT     H247280   7.278   2.192   1.850
15680WAT      O47281   2.660   7.545   8.876
15680WAT     H147282   2.635   7.621   8.816
15680WAT     H247283   2.591   7.472   8.868
15681WAT      O47284   8.452   8.496   9.247
15681WAT     H147285   8.412   8.468   9.160
15681WAT     H247286   8.423   8.589   9.268
15682WAT      O47287   1.763   1.985   5.447
15682WAT     H147288   1.839   1.921   5.457
15682WAT     H247289   1.789   2.075   5.481
15683WAT      O47290   2.826   3.647   8.027
15683WAT     H147291   2.897   3.584   8.060
15683WAT     H247292   2.749   3.594   7.992
15684WAT      O47293   8.346   2.441   4.702
15684WAT     H147294   8.374   2.519   4.758
15684WAT     H247295   8.392   2.359   4.736
15685WAT      O47296   0.433   2.778   6.909
15685WAT     H147297   0.382   2.695   6.932
15685WAT     H247298   0.462   2.825   6.992
15686WAT      O47299   4.305   8.892   8.189
15686WAT     H147300   4.366   8.878   8.111
15686WAT     H247301   4.282   8.989   8.197
15687WAT      O47302   1.994   8.179   3.237
15687WAT     H147303   1.910   8.233   3.228
15687WAT     H247304   2.069   8.226   3.190
15688WAT      O47305   6.298   4.356   5.926
15688WAT     H147306   6.263   4.325   5.837
15688WAT     H247307   6.248   4.311   6.000
15689WAT      O47308   5.352   9.580   6.496
15689WAT     H147309   5.299   9.513   6.549
15689WAT     H247310   5.444   9.586   6.533
15690WAT      O47311   2.946   8.285   1.228
15690WAT     H147312   2.925   8.216   1.159
15690WAT     H247313   2.949   8.375   1.185
15691WAT      O47314   5.991   3.018   9.218
15691WAT     H147315   6.072   3.048   9.168
15691WAT     H247316   5.992   2.919   9.228
15692WAT      O47317   5.417   6.440   9.527
15692WAT     H147318   5.512   6.419   9.550
15692WAT     H247319   5.378   6.367   9.472
15693WAT      O47320   7.168   8.541   7.498
15693WAT     H147321   7.248   8.494   7.535
15693WAT     H247322   7.190   8.638   7.485
15694WAT      O47323   5.423   5.671   8.757
15694WAT     H147324   5.389   5.613   8.684
15694WAT     H247325   5.521   5.689   8.743
15695WAT      O47326   6.829   5.428   1.789
15695WAT     H147327   6.745   5.472   1.755
15695WAT     H247328   6.895   5.421   1.714
15696WAT      O47329   6.979   1.253   6.192
15696WAT     H147330   7.065   1.204   6.209
15696WAT     H247331   6.920   1.246   6.273
15697WAT      O47332   1.009   7.587   5.644
15697WAT     H147333   1.074   7.613   5.715
15697WAT     H247334   0.953   7.511   5.676
15698WAT      O47335   2.251   7.200   1.837
15698WAT     H147336   2.280   7.214   1.932
15698WAT     H247337   2.179   7.265   1.814
15699WAT      O47338   0.752   5.992   3.422
15699WAT     H147339   0.695   5.930   3.366
15699WAT     H247340   0.848   5.974   3.404
15700WAT      O47341   1.873   8.657   0.779
15700WAT     H147342   1.798   8.591   0.776
15700WAT     H247343   1.885   8.689   0.873
15701WAT      O47344   2.979   8.496   2.470
15701WAT     H147345   2.989   8.436   2.550
15701WAT     H247346   2.928   8.448   2.399
15702WAT      O47347   1.563   9.464   6.510
15702WAT     H147348   1.517   9.469   6.421
15702WAT     H247349   1.581   9.557   6.543
15703WAT      O47350   7.266   1.109   8.441
15703WAT     H147351   7.323   1.027   8.433
15703WAT     H247352   7.193   1.093   8.507
15704WAT      O47353   8.288   4.136   0.646
15704WAT     H147354   8.242   4.166   0.563
15704WAT     H247355   8.260   4.194   0.723
15705WAT      O47356   6.226   5.948   4.111
15705WAT     H147357   6.302   5.995   4.155
15705WAT     H247358   6.141   5.995   4.132
15706WAT      O47359   6.021   8.266   2.418
15706WAT     H147360   5.974   8.179   2.403
15706WAT     H247361   5.986   8.334   2.353
15707WAT      O47362   1.938   4.644   7.596
15707WAT     H147363   2.004   4.719   7.599
15707WAT     H247364   1.984   4.558   7.618
15708WAT      O47365   7.024   8.977   0.799
15708WAT     H147366   7.105   8.925   0.773
15708WAT     H247367   6.994   8.951   0.890
15709WAT      O47368   6.089   8.081   9.240
15709WAT     H147369   6.113   8.050   9.332
15709WAT     H247370   6.131   8.170   9.222
15710WAT      O47371   7.347   9.178   2.370
15710WAT     H147372   7.358   9.090   2.417
15710WAT     H247373   7.367   9.253   2.434
15711WAT      O47374   6.658   4.325   1.066
15711WAT     H147375   6.752   4.355   1.048
15711WAT     H247376   6.658   4.228   1.089
15712WAT      O47377   1.752   6.082   9.731
15712WAT     H147378   1.813   6.159   9.709
15712WAT     H247379   1.737   6.028   9.649
15713WAT      O47380   2.446   5.722   7.852
15713WAT     H147381   2.442   5.626   7.881
15713WAT     H247382   2.448   5.726   7.752
15714WAT      O47383   5.795   5.634   4.786
15714WAT     H147384   5.734   5.690   4.729
15714WAT     H247385   5.756   5.543   4.797
15715WAT      O47386   7.750   8.032   4.396
15715WAT     H147387   7.743   8.053   4.298
15715WAT     H247388   7.823   8.087   4.436
15716WAT      O47389   1.244   7.609   0.499
15716WAT     H147390   1.164   7.553   0.521
15716WAT     H247391   1.250   7.620   0.400
15717WAT      O47392   8.041   1.634   1.764
15717WAT     H147393   8.076   1.573   1.835
15717WAT     H247394   8.028   1.726   1.802
15718WAT      O47395   4.646   5.106   1.884
15718WAT     H147396   4.641   5.087   1.786
15718WAT     H247397   4.719   5.052   1.925
15719WAT      O47398   5.111   2.559   9.620
15719WAT     H147399   5.173   2.485   9.643
15719WAT     H247400   5.157   2.624   9.559
15720WAT      O47401   0.714   7.528   3.162
15720WAT     H147402   0.701   7.440   3.208
15720WAT     H247403   0.805   7.530   3.121
15721WAT      O47404   0.556   6.795   2.332
15721WAT     H147405   0.581   6.870   2.270
15721WAT     H247406   0.635   6.769   2.387
15722WAT      O47407   3.788   2.712   6.643
15722WAT     H147408   3.706   2.711   6.586
15722WAT     H247409   3.762   2.728   6.738
15723WAT      O47410   2.130   8.653   9.108
15723WAT     H147411   2.204   8.634   9.044
15723WAT     H247412   2.072   8.725   9.071
15724WAT      O47413   0.070   9.109   8.528
15724WAT     H147414   0.025   9.089   8.615
15724WAT     H247415   0.047   9.038   8.462
15725WAT      O47416   5.020   5.887   6.997
15725WAT     H147417   5.110   5.845   6.985
15725WAT     H247418   5.025   5.983   6.970
15726WAT      O47419   0.558   3.863   6.516
15726WAT     H147420   0.601   3.953   6.518
15726WAT     H247421   0.625   3.794   6.545
15727WAT      O47422   5.821   0.682   6.993
15727WAT     H147423   5.721   0.679   6.995
15727WAT     H247424   5.853   0.746   7.063
15728WAT      O47425   8.368   6.637   2.961
15728WAT     H147426   8.424   6.706   2.915
15728WAT     H247427   8.396   6.546   2.931
15729WAT      O47428   3.317   5.105   8.364
15729WAT     H147429   3.301   5.198   8.329
15729WAT     H247430   3.412   5.096   8.392
15730WAT      O47431   8.941   3.558   0.814
15730WAT     H147432   8.990   3.480   0.776
15730WAT     H247433   9.001   3.610   0.875
15731WAT      O47434   8.481   6.239   7.430
15731WAT     H147435   8.486   6.333   7.396
15731WAT     H247436   8.415   6.234   7.505
15732WAT      O47437   0.888   3.521   1.332
15732WAT     H147438   0.897   3.485   1.239
15732WAT     H247439   0.850   3.450   1.391
15733WAT      O47440   4.440   5.119   7.027
15733WAT     H147441   4.392   5.132   7.113
15733WAT     H247442   4.385   5.063   6.966
15734WAT      O47443   1.877   1.716   9.830
15734WAT     H147444   1.853   1.770   9.910
15734WAT     H247445   1.962   1.749   9.791
15735WAT      O47446   1.463   0.316   8.395
15735WAT     H147447   1.422   0.225   8.408
15735WAT     H247448   1.437   0.376   8.470
15736WAT      O47449   3.647   5.939   1.556
15736WAT     H147450   3.566   5.929   1.499
15736WAT     H247451   3.637   5.883   1.638
15737WAT      O47452   0.701   1.890   2.762
15737WAT     H147453   0.692   1.871   2.860
15737WAT     H247454   0.610   1.900   2.722
15738WAT      O47455   7.024   8.791   4.459
15738WAT     H147456   6.946   8.773   4.519
15738WAT     H247457   7.067   8.705   4.433
15739WAT      O47458   8.676   6.388   4.511
15739WAT     H147459   8.629   6.331   4.578
15739WAT     H247460   8.652   6.484   4.526
15740WAT      O47461   8.720   1.254   3.614
15740WAT     H147462   8.687   1.301   3.695
15740WAT     H247463   8.715   1.315   3.535
15741WAT      O47464   1.185   7.143   6.031
15741WAT     H147465   1.165   7.073   6.100
15741WAT     H247466   1.283   7.160   6.028
15742WAT      O47467   9.633   1.845   2.254
15742WAT     H147468   9.537   1.862   2.229
15742WAT     H247469   9.637   1.803   2.344
15743WAT      O47470   4.943   9.381   5.739
15743WAT     H147471   4.878   9.422   5.674
15743WAT     H247472   5.011   9.448   5.766
15744WAT      O47473   3.927   2.988   2.172
15744WAT     H147474   3.828   2.997   2.180
15744WAT     H247475   3.968   3.078   2.154
15745WAT      O47476   5.733   0.023   1.940
15745WAT     H147477   5.747   0.064   2.030
15745WAT     H247478   5.735   0.095   1.871
15746WAT      O47479   5.507   3.062   4.579
15746WAT     H147480   5.589   3.031   4.626
15746WAT     H247481   5.461   3.132   4.634
15747WAT      O47482   6.236   1.970   9.744
15747WAT     H147483   6.211   1.970   9.647
15747WAT     H247484   6.233   1.877   9.779
15748WAT      O47485   9.812   1.666   6.197
15748WAT     H147486   9.751   1.603   6.148
15748WAT     H247487   9.868   1.716   6.130
15749WAT      O47488   0.505   8.320   8.946
15749WAT     H147489   0.562   8.358   9.019
15749WAT     H247490   0.546   8.236   8.911
15750WAT      O47491   9.880   8.536   8.912
15750WAT     H147492   9.824   8.467   8.957
15750WAT     H247493   9.954   8.491   8.862
15751WAT      O47494   0.126   5.442   2.386
15751WAT     H147495   0.077   5.448   2.473
15751WAT     H247496   0.133   5.346   2.358
15752WAT      O47497   3.640   5.108   5.367
15752WAT     H147498   3.620   5.010   5.363
15752WAT     H247499   3.713   5.130   5.303
15753WAT      O47500   5.130   4.849   9.026
15753WAT     H147501   5.108   4.841   8.929
15753WAT     H247502   5.228   4.832   9.039
15754WAT      O47503   6.062   3.476   2.689
15754WAT     H147504   6.120   3.448   2.765
15754WAT     H247505   6.078   3.572   2.667
15755WAT      O47506   8.323   6.424   1.743
15755WAT     H147507   8.239   6.381   1.778
15755WAT     H247508   8.344   6.388   1.653
15756WAT      O47509   8.462   3.816   3.096
15756WAT     H147510   8.485   3.913   3.103
15756WAT     H247511   8.490   3.782   3.006
15757WAT      O47512   3.359   1.638   3.280
15757WAT     H147513   3.308   1.724   3.279
15757WAT     H247514   3.334   1.586   3.362
15758WAT      O47515   6.837   1.459   3.403
15758WAT     H147516   6.829   1.425   3.497
15758WAT     H247517   6.748   1.453   3.357
15759WAT      O47518   9.680   7.886   1.738
15759WAT     H147519   9.643   7.944   1.666
15759WAT     H247520   9.611   7.820   1.767
15760WAT      O47521   9.140   8.713   7.827
15760WAT     H147522   9.085   8.639   7.865
15760WAT     H247523   9.205   8.746   7.895
15761WAT      O47524   0.445   0.423   9.483
15761WAT     H147525   0.421   0.345   9.541
15761WAT     H247526   0.373   0.436   9.415
15762WAT      O47527   1.371   1.223   4.931
15762WAT     H147528   1.309   1.280   4.985
15762WAT     H247529   1.409   1.150   4.989
15763WAT      O47530   3.916   5.175   3.147
15763WAT     H147531   3.828   5.128   3.154
15763WAT     H247532   3.945   5.176   3.051
15764WAT      O47533   6.803   6.562   6.004
15764WAT     H147534   6.760   6.474   6.020
15764WAT     H247535   6.799   6.617   6.087
15765WAT      O47536   6.139   1.292   4.222
15765WAT     H147537   6.133   1.390   4.240
15765WAT     H247538   6.049   1.256   4.199
15766WAT      O47539   0.216   3.182   6.709
15766WAT     H147540   0.277   3.103   6.713
15766WAT     H247541   0.126   3.156   6.746
15767WAT      O47542   0.468   4.418   2.766
15767WAT     H147543   0.416   4.356   2.707
15767WAT     H247544   0.406   4.485   2.806
15768WAT      O47545   4.845   8.708   7.624
15768WAT     H147546   4.758   8.682   7.666
15768WAT     H247547   4.919   8.655   7.665
15769WAT      O47548   6.935   4.607   0.794
15769WAT     H147549   7.026   4.609   0.753
15769WAT     H247550   6.866   4.623   0.723
15770WAT      O47551   0.482   4.959   5.320
15770WAT     H147552   0.460   4.990   5.413
15770WAT     H247553   0.412   4.991   5.257
15771WAT      O47554   5.362   7.087   0.349
15771WAT     H147555   5.327   7.123   0.263
15771WAT     H247556   5.329   7.144   0.425
15772WAT      O47557   1.433   5.658   5.839
15772WAT     H147558   1.353   5.623   5.888
15772WAT     H247559   1.469   5.587   5.778
15773WAT      O47560   2.318   2.643   7.998
15773WAT     H147561   2.279   2.611   8.085
15773WAT     H247562   2.383   2.575   7.964
15774WAT      O47563   7.657   6.723   7.904
15774WAT     H147564   7.741   6.702   7.855
15774WAT     H247565   7.657   6.675   7.992
15775WAT      O47566   2.271   1.986   9.221
15775WAT     H147567   2.179   2.016   9.249
15775WAT     H247568   2.334   2.062   9.229
15776WAT      O47569   9.597   7.647   7.310
15776WAT     H147570   9.573   7.550   7.303
15776WAT     H247571   9.619   7.682   7.218
15777WAT      O47572   4.900   5.759   9.699
15777WAT     H147573   4.861   5.739   9.609
15777WAT     H247574   4.860   5.843   9.735
15778WAT      O47575   2.561   2.562   8.500
15778WAT     H147576   2.505   2.481   8.481
15778WAT     H247577   2.553   2.586   8.597
15779WAT      O47578   9.884   7.360   6.836
15779WAT     H147579   9.828   7.409   6.903
15779WAT     H247580   9.958   7.312   6.883
15780WAT      O47581   1.950   9.271   5.715
15780WAT     H147582   1.896   9.353   5.735
15780WAT     H247583   1.903   9.190   5.751
15781WAT      O47584   5.347   8.363   0.672
15781WAT     H147585   5.382   8.354   0.765
15781WAT     H247586   5.268   8.303   0.660
15782WAT      O47587   2.252   0.639   0.342
15782WAT     H147588   2.321   0.587   0.390
15782WAT     H247589   2.201   0.696   0.407
15783WAT      O47590   0.687   2.979   3.068
15783WAT     H147591   0.725   3.034   3.142
15783WAT     H247592   0.751   2.906   3.043
15784WAT      O47593   1.537   6.706   3.438
15784WAT     H147594   1.615   6.767   3.423
15784WAT     H247595   1.567   6.623   3.484
15785WAT      O47596   8.107   7.090   2.687
15785WAT     H147597   8.104   7.159   2.760
15785WAT     H247598   8.016   7.080   2.647
15786WAT      O47599   8.031   2.771   7.413
15786WAT     H147600   8.029   2.684   7.363
15786WAT     H247601   7.938   2.799   7.434
15787WAT      O47602   8.865   5.035   3.071
15787WAT     H147603   8.773   5.066   3.044
15787WAT     H247604   8.904   5.101   3.135
15788WAT      O47605   2.855   8.166   5.965
15788WAT     H147606   2.890   8.144   5.874
15788WAT     H247607   2.828   8.262   5.968
15789WAT      O47608   5.533   4.744   1.197
15789WAT     H147609   5.627   4.776   1.197
15789WAT     H247610   5.531   4.644   1.203
15790WAT      O47611   7.277   8.523   6.060
15790WAT     H147612   7.348   8.477   6.113
15790WAT     H247613   7.224   8.456   6.009
15791WAT      O47614   5.785   2.714   9.057
15791WAT     H147615   5.748   2.622   9.045
15791WAT     H247616   5.872   2.722   9.008
15792WAT      O47617   0.430   4.338   1.038
15792WAT     H147618   0.522   4.325   1.076
15792WAT     H247619   0.426   4.426   0.991
15793WAT      O47620   9.704   0.071   6.173
15793WAT     H147621   9.759   0.008   6.118
15793WAT     H247622   9.757   0.153   6.193
15794WAT      O47623   0.463   6.172   7.805
15794WAT     H147624   0.466   6.257   7.858
15794WAT     H247625   0.505   6.186   7.716
15795WAT      O47626   1.045   3.489   2.358
15795WAT     H147627   1.116   3.516   2.423
15795WAT     H247628   1.054   3.543   2.274
15796WAT      O47629   7.856   9.495   9.054
15796WAT     H147630   7.935   9.442   9.084
15796WAT     H247631   7.778   9.434   9.041
15797WAT      O47632   7.885   9.642   1.935
15797WAT     H147633   7.981   9.662   1.915
15797WAT     H247634   7.860   9.682   2.023
15798WAT      O47635   2.192   3.412   4.082
15798WAT     H147636   2.230   3.379   3.996
15798WAT     H247637   2.107   3.462   4.065
15799WAT      O47638   7.883   4.640   2.860
15799WAT     H147639   7.852   4.623   2.954
15799WAT     H247640   7.803   4.655   2.802
15800WAT      O47641   0.220   7.336   7.251
15800WAT     H147642   0.242   7.426   7.289
15800WAT     H247643   0.290   7.271   7.279
15801WAT      O47644   6.199   3.555   3.199
15801WAT     H147645   6.186   3.536   3.297
15801WAT     H247646   6.274   3.620   3.188
15802WAT      O47647   4.044   2.393   0.272
15802WAT     H147648   4.049   2.465   0.342
15802WAT     H247649   3.961   2.339   0.286
15803WAT      O47650   7.914   9.422   0.064
15803WAT     H147651   7.903   9.336   0.014
15803WAT     H247652   7.993   9.417   0.124
15804WAT      O47653   7.890   6.483   2.208
15804WAT     H147654   7.847   6.450   2.124
15804WAT     H247655   7.832   6.552   2.250
15805WAT      O47656   3.558   1.799   8.574
15805WAT     H147657   3.506   1.738   8.634
15805WAT     H247658   3.622   1.852   8.628
15806WAT      O47659   9.022   3.902   7.038
15806WAT     H147660   9.061   3.969   6.974
15806WAT     H247661   8.984   3.826   6.986
15807WAT      O47662   8.415   0.066   3.562
15807WAT     H147663   8.333   0.105   3.520
15807WAT     H247664   8.430   0.109   3.651
15808WAT      O47665   3.135   5.792   9.428
15808WAT     H147666   3.123   5.886   9.460
15808WAT     H247667   3.107   5.785   9.333
15809WAT      O47668   3.820   9.430   4.031
15809WAT     H147669   3.795   9.505   4.091
15809WAT     H247670   3.791   9.451   3.937
15810WAT      O47671   8.631   5.345   2.070
15810WAT     H147672   8.627   5.280   2.146
15810WAT     H247673   8.619   5.297   1.984
15811WAT      O47674   4.150   1.506   0.207
15811WAT     H147675   4.137   1.551   0.118
15811WAT     H247676   4.204   1.423   0.194
15812WAT      O47677   1.492   6.135   8.155
15812WAT     H147678   1.494   6.231   8.129
15812WAT     H247679   1.501   6.126   8.254
15813WAT      O47680   7.259   6.448   7.779
15813WAT     H147681   7.296   6.361   7.811
15813WAT     H247682   7.169   6.463   7.821
15814WAT      O47683   5.366   4.959   7.104
15814WAT     H147684   5.408   4.950   7.194
15814WAT     H247685   5.435   4.940   7.033
15815WAT      O47686   1.652   8.937   7.574
15815WAT     H147687   1.667   8.848   7.615
15815WAT     H247688   1.641   9.006   7.646
15816WAT      O47689   7.094   3.627   5.561
15816WAT     H147690   7.102   3.541   5.612
15816WAT     H247691   7.183   3.652   5.523
15817WAT      O47692   6.198   9.778   8.212
15817WAT     H147693   6.247   9.797   8.127
15817WAT     H247694   6.262   9.753   8.283
15818WAT      O47695   5.517   8.466   2.546
15818WAT     H147696   5.547   8.398   2.613
15818WAT     H247697   5.463   8.536   2.592
15819WAT      O47698   1.941   7.771   5.291
15819WAT     H147699   2.029   7.766   5.244
15819WAT     H247700   1.952   7.745   5.387
15820WAT      O47701   7.299   2.550   7.594
15820WAT     H147702   7.373   2.483   7.604
15820WAT     H247703   7.222   2.524   7.652
15821WAT      O47704   2.938   9.813   3.145
15821WAT     H147705   2.973   9.755   3.071
15821WAT     H247706   2.970   9.777   3.233
15822WAT      O47707   4.455   0.713   0.804
15822WAT     H147708   4.395   0.759   0.870
15822WAT     H247709   4.518   0.780   0.764
15823WAT      O47710   2.994   2.856   3.795
15823WAT     H147711   2.951   2.903   3.718
15823WAT     H247712   2.963   2.898   3.881
15824WAT      O47713   8.492   1.309   6.189
15824WAT     H147714   8.577   1.263   6.160
15824WAT     H247715   8.432   1.321   6.109
15825WAT      O47716   8.724   9.787   5.246
15825WAT     H147717   8.686   9.880   5.240
15825WAT     H247718   8.807   9.789   5.303
15826WAT      O47719   5.487   7.250   2.582
15826WAT     H147720   5.467   7.345   2.559
15826WAT     H247721   5.441   7.189   2.517
15827WAT      O47722   1.463   8.347   4.557
15827WAT     H147723   1.555   8.310   4.571
15827WAT     H247724   1.455   8.434   4.606
15828WAT      O47725   6.204   2.207   6.729
15828WAT     H147726   6.147   2.150   6.787
15828WAT     H247727   6.235   2.287   6.781
15829WAT      O47728   6.576   1.343   7.642
15829WAT     H147729   6.560   1.366   7.546
15829WAT     H247730   6.674   1.333   7.657
15830WAT      O47731   9.824   0.546   0.643
15830WAT     H147732   9.773   0.607   0.703
15830WAT     H247733   9.857   0.467   0.696
15831WAT      O47734   1.393   1.984   6.652
15831WAT     H147735   1.341   2.051   6.706
15831WAT     H247736   1.486   1.979   6.687
15832WAT      O47737   2.134   8.338   5.905
15832WAT     H147738   2.071   8.359   5.830
15832WAT     H247739   2.224   8.316   5.869
15833WAT      O47740   1.519   4.504   0.980
15833WAT     H147741   1.576   4.538   0.905
15833WAT     H247742   1.425   4.534   0.967
15834WAT      O47743   8.452   3.477   4.658
15834WAT     H147744   8.387   3.494   4.584
15834WAT     H247745   8.502   3.561   4.679
15835WAT      O47746   4.137   6.927   0.391
15835WAT     H147747   4.095   6.923   0.481
15835WAT     H247748   4.158   6.835   0.360
15836WAT      O47749   2.975   3.911   7.002
15836WAT     H147750   2.944   3.995   6.959
15836WAT     H247751   3.006   3.929   7.095
15837WAT      O47752   9.483   6.878   5.869
15837WAT     H147753   9.501   6.780   5.859
15837WAT     H247754   9.505   6.925   5.784
15838WAT      O47755   9.432   4.246   8.754
15838WAT     H147756   9.520   4.223   8.795
15838WAT     H247757   9.440   4.331   8.704
15839WAT      O47758   7.004   4.063   5.309
15839WAT     H147759   7.067   4.139   5.324
15839WAT     H247760   7.019   3.993   5.379
15840WAT      O47761   1.416   4.650   1.699
15840WAT     H147762   1.342   4.688   1.644
15840WAT     H247763   1.500   4.700   1.682
15841WAT      O47764   3.922   2.356   2.057
15841WAT     H147765   4.011   2.332   2.097
15841WAT     H247766   3.886   2.437   2.102
15842WAT      O47767   8.760   3.803   0.877
15842WAT     H147768   8.772   3.704   0.872
15842WAT     H247769   8.797   3.845   0.794
15843WAT      O47770   0.788   8.399   9.734
15843WAT     H147771   0.746   8.465   9.672
15843WAT     H247772   0.758   8.417   9.828
15844WAT      O47773   2.199   3.172   8.714
15844WAT     H147774   2.200   3.072   8.704
15844WAT     H247775   2.139   3.198   8.789
15845WAT      O47776   5.253   5.943   8.116
15845WAT     H147777   5.298   5.855   8.131
15845WAT     H247778   5.257   5.997   8.200
15846WAT      O47779   4.997   0.764   7.564
15846WAT     H147780   4.944   0.769   7.648
15846WAT     H247781   4.979   0.846   7.509
15847WAT      O47782   7.830   5.248   6.462
15847WAT     H147783   7.840   5.275   6.366
15847WAT     H247784   7.733   5.236   6.483
15848WAT      O47785   4.845   3.468   8.115
15848WAT     H147786   4.806   3.448   8.025
15848WAT     H247787   4.942   3.444   8.115
15849WAT      O47788   3.015   5.332   8.919
15849WAT     H147789   3.079   5.402   8.887
15849WAT     H247790   3.042   5.243   8.883
15850WAT      O47791   5.582   1.402   3.428
15850WAT     H147792   5.552   1.412   3.523
15850WAT     H247793   5.680   1.417   3.422
15851WAT      O47794   3.455   2.684   2.361
15851WAT     H147795   3.548   2.717   2.376
15851WAT     H247796   3.407   2.681   2.448
15852WAT      O47797   9.773   6.356   1.462
15852WAT     H147798   9.859   6.318   1.430
15852WAT     H247799   9.713   6.375   1.384
15853WAT      O47800   7.913   5.057   5.559
15853WAT     H147801   7.828   5.096   5.525
15853WAT     H247802   7.972   5.130   5.594
15854WAT      O47803   4.080   8.354   2.686
15854WAT     H147804   4.171   8.313   2.688
15854WAT     H247805   4.019   8.303   2.747
15855WAT      O47806   5.043   1.735   4.694
15855WAT     H147807   5.092   1.692   4.769
15855WAT     H247808   4.952   1.763   4.725
15856WAT      O47809   1.287   2.750   3.480
15856WAT     H147810   1.239   2.701   3.407
15856WAT     H247811   1.264   2.710   3.568
15857WAT      O47812   6.488   4.300   7.118
15857WAT     H147813   6.527   4.290   7.026
15857WAT     H247814   6.447   4.213   7.145
15858WAT      O47815   4.824   9.399   7.506
15858WAT     H147816   4.822   9.376   7.408
15858WAT     H247817   4.898   9.349   7.551
15859WAT      O47818   0.042   1.820   5.407
15859WAT     H147819  -0.056   1.804   5.422
15859WAT     H247820   0.056   1.870   5.322
15860WAT      O47821   8.395   7.135   7.340
15860WAT     H147822   8.430   7.044   7.320
15860WAT     H247823   8.296   7.131   7.350
15861WAT      O47824   7.046   1.759   0.872
15861WAT     H147825   7.141   1.786   0.883
15861WAT     H247826   6.998   1.771   0.959
15862WAT      O47827   3.888   4.107   5.575
15862WAT     H147828   3.910   4.014   5.543
15862WAT     H247829   3.805   4.104   5.630
15863WAT      O47830   2.077   3.844   4.536
15863WAT     H147831   2.120   3.754   4.529
15863WAT     H247832   2.146   3.913   4.558
15864WAT      O47833   4.268   5.093   7.262
15864WAT     H147834   4.346   5.125   7.316
15864WAT     H247835   4.254   4.995   7.280
15865WAT      O47836   2.024   6.655   2.559
15865WAT     H147837   2.028   6.621   2.465
15865WAT     H247838   2.061   6.748   2.562
15866WAT      O47839   8.804   1.151   4.033
15866WAT     H147840   8.782   1.054   4.032
15866WAT     H247841   8.747   1.200   3.968
15867WAT      O47842   4.762   4.737   1.272
15867WAT     H147843   4.791   4.770   1.182
15867WAT     H247844   4.818   4.658   1.298
15868WAT      O47845   1.719   6.123   7.951
15868WAT     H147846   1.769   6.171   7.879
15868WAT     H247847   1.780   6.055   7.993
15869WAT      O47848   0.478   1.236   6.080
15869WAT     H147849   0.544   1.267   6.148
15869WAT     H247850   0.523   1.226   5.992
15870WAT      O47851   4.728   2.618   9.220
15870WAT     H147852   4.731   2.674   9.302
15870WAT     H247853   4.685   2.530   9.240
15871WAT      O47854   0.565   6.369   4.600
15871WAT     H147855   0.560   6.433   4.676
15871WAT     H247856   0.473   6.342   4.573
15872WAT      O47857   4.113   1.895   6.126
15872WAT     H147858   4.032   1.928   6.078
15872WAT     H247859   4.174   1.850   6.061
15873WAT      O47860   0.193   0.599   1.421
15873WAT     H147861   0.180   0.650   1.506
15873WAT     H247862   0.287   0.565   1.416
15874WAT      O47863   5.697   5.918   1.755
15874WAT     H147864   5.737   6.009   1.765
15874WAT     H247865   5.662   5.887   1.843
15875WAT      O47866   1.845   5.939   4.490
15875WAT     H147867   1.800   5.853   4.517
15875WAT     H247868   1.832   6.007   4.562
15876WAT      O47869   6.278   4.172   2.047
15876WAT     H147870   6.282   4.261   2.094
15876WAT     H247871   6.186   4.134   2.056
15877WAT      O47872   9.656   9.189   7.350
15877WAT     H147873   9.711   9.107   7.366
15877WAT     H247874   9.611   9.216   7.435
15878WAT      O47875   0.988   0.316   5.027
15878WAT     H147876   1.076   0.360   5.010
15878WAT     H247877   0.967   0.253   4.951
15879WAT      O47878   8.896   2.969   6.517
15879WAT     H147879   8.971   3.028   6.487
15879WAT     H247880   8.835   3.021   6.577
15880WAT      O47881   5.631   6.371   3.586
15880WAT     H147882   5.692   6.404   3.514
15880WAT     H247883   5.679   6.303   3.642
15881WAT      O47884   4.614   5.710   0.480
15881WAT     H147885   4.517   5.713   0.506
15881WAT     H247886   4.662   5.645   0.538
15882WAT      O47887   8.163   4.581   6.153
15882WAT     H147888   8.133   4.525   6.077
15882WAT     H247889   8.262   4.574   6.164
15883WAT      O47890   7.132   5.362   1.905
15883WAT     H147891   7.081   5.283   1.870
15883WAT     H247892   7.209   5.381   1.845
15884WAT      O47893   4.682   6.166   6.800
15884WAT     H147894   4.594   6.160   6.848
15884WAT     H247895   4.690   6.089   6.736
15885WAT      O47896   9.444   1.566   0.051
15885WAT     H147897   9.485   1.657   0.048
15885WAT     H247898   9.355   1.568   0.008
15886WAT      O47899   4.750   2.736   3.686
15886WAT     H147900   4.683   2.806   3.663
15886WAT     H247901   4.737   2.705   3.780
15887WAT      O47902   4.786   4.595   9.008
15887WAT     H147903   4.852   4.576   8.936
15887WAT     H247904   4.694   4.578   8.974
15888WAT      O47905   2.766   8.518   9.547
15888WAT     H147906   2.677   8.561   9.558
15888WAT     H247907   2.755   8.429   9.502
15889WAT      O47908   6.543   5.596   7.016
15889WAT     H147909   6.577   5.547   7.097
15889WAT     H247910   6.443   5.595   7.017
15890WAT      O47911   7.609   3.869   2.915
15890WAT     H147912   7.662   3.784   2.919
15890WAT     H247913   7.660   3.938   2.864
15891WAT      O47914   2.283   9.166   5.266
15891WAT     H147915   2.240   9.088   5.220
15891WAT     H247916   2.349   9.208   5.205
15892WAT      O47917   0.581   0.740   5.392
15892WAT     H147918   0.647   0.744   5.317
15892WAT     H247919   0.604   0.810   5.461
15893WAT      O47920   0.809   7.168   5.189
15893WAT     H147921   0.874   7.236   5.223
15893WAT     H247922   0.764   7.124   5.266
15894WAT      O47923   4.374   4.381   0.927
15894WAT     H147924   4.359   4.475   0.897
15894WAT     H247925   4.318   4.362   1.007
15895WAT      O47926   2.983   8.095   3.240
15895WAT     H147927   3.062   8.132   3.290
15895WAT     H247928   2.900   8.145   3.267
15896WAT      O47929   5.682   2.716   6.161
15896WAT     H147930   5.762   2.738   6.106
15896WAT     H247931   5.671   2.785   6.233
15897WAT      O47932   8.691   4.867   0.634
15897WAT     H147933   8.645   4.821   0.558
15897WAT     H247934   8.771   4.917   0.600
15898WAT      O47935   4.425   2.023   9.400
15898WAT     H147936   4.455   1.936   9.439
15898WAT     H247937   4.475   2.098   9.443
15899WAT      O47938   5.361   2.166   0.250
15899WAT     H147939   5.442   2.196   0.300
15899WAT     H247940   5.360   2.066   0.246
15900WAT      O47941   6.839   5.226   8.035
15900WAT     H147942   6.860   5.189   8.125
15900WAT     H247943   6.838   5.326   8.038
15901WAT      O47944   3.279   9.189   8.187
15901WAT     H147945   3.251   9.093   8.178
15901WAT     H247946   3.366   9.194   8.235
15902WAT      O47947   7.098   2.991   4.597
15902WAT     H147948   7.173   3.052   4.621
15902WAT     H247949   7.134   2.900   4.578
15903WAT      O47950   9.391   2.121   4.982
15903WAT     H147951   9.366   2.129   4.885
15903WAT     H247952   9.490   2.112   4.990
15904WAT      O47953   8.700   4.809   8.281
15904WAT     H147954   8.624   4.868   8.308
15904WAT     H247955   8.767   4.863   8.231
15905WAT      O47956   6.936   3.087   7.050
15905WAT     H147957   6.983   3.058   7.133
15905WAT     H247958   6.973   3.174   7.019
15906WAT      O47959   4.901   5.141   5.785
15906WAT     H147960   4.837   5.216   5.800
15906WAT     H247961   4.852   5.063   5.747
15907WAT      O47962   5.145   2.111   5.316
15907WAT     H147963   5.148   2.180   5.389
15907WAT     H247964   5.201   2.142   5.239
15908WAT      O47965   0.602   8.054   3.338
15908WAT     H147966   0.694   8.087   3.357
15908WAT     H247967   0.605   7.957   3.315
15909WAT      O47968   1.985   9.188   1.500
15909WAT     H147969   2.010   9.226   1.411
15909WAT     H247970   2.010   9.253   1.572
15910WAT      O47971   4.601   2.413   1.366
15910WAT     H147972   4.529   2.371   1.422
15910WAT     H247973   4.563   2.437   1.276
15911WAT      O47974   1.415   9.597   0.418
15911WAT     H147975   1.514   9.589   0.410
15911WAT     H247976   1.375   9.505   0.417
15912WAT      O47977   3.501   4.935   6.769
15912WAT     H147978   3.534   5.013   6.716
15912WAT     H247979   3.471   4.863   6.707
15913WAT      O47980   6.253   4.259   2.873
15913WAT     H147981   6.345   4.222   2.885
15913WAT     H247982   6.248   4.309   2.786
15914WAT      O47983   3.483   1.069   5.418
15914WAT     H147984   3.466   1.040   5.324
15914WAT     H247985   3.574   1.109   5.425
15915WAT      O47986   1.760   8.762   6.804
15915WAT     H147987   1.681   8.702   6.815
15915WAT     H247988   1.788   8.764   6.708
15916WAT      O47989   4.962   5.476   9.136
15916WAT     H147990   5.029   5.524   9.079
15916WAT     H247991   5.011   5.420   9.203
15917WAT      O47992   9.558   4.889   7.576
15917WAT     H147993   9.652   4.887   7.611
15917WAT     H247994   9.544   4.811   7.515
15918WAT      O47995   9.113   5.283   2.347
15918WAT     H147996   9.137   5.223   2.424
15918WAT     H247997   9.195   5.304   2.294
15919WAT      O47998   9.513   8.284   6.912
15919WAT     H147999   9.584   8.352   6.933
15919WAT     H248000   9.552   8.212   6.854
15920WAT      O48001   6.232   4.852   4.840
15920WAT     H148002   6.161   4.913   4.877
15920WAT     H248003   6.313   4.857   4.898
15921WAT      O48004   0.430   9.063   5.179
15921WAT     H148005   0.339   9.101   5.161
15921WAT     H248006   0.493   9.092   5.107
15922WAT      O48007   2.878   3.481   0.189
15922WAT     H148008   2.866   3.538   0.107
15922WAT     H248009   2.843   3.530   0.269
15923WAT      O48010   3.382   6.502   8.488
15923WAT     H148011   3.336   6.415   8.466
15923WAT     H248012   3.314   6.567   8.523
15924WAT      O48013   8.768   6.214   8.823
15924WAT     H148014   8.757   6.222   8.922
15924WAT     H248015   8.865   6.207   8.800
15925WAT      O48016   9.176   4.341   5.908
15925WAT     H148017   9.096   4.352   5.968
15925WAT     H248018   9.149   4.360   5.813
15926WAT      O48019   4.397   5.792   7.303
15926WAT     H148020   4.490   5.830   7.299
15926WAT     H248021   4.396   5.714   7.366
15927WAT      O48022   3.037   3.503   8.997
15927WAT     H148023   2.985   3.546   9.071
15927WAT     H248024   3.071   3.414   9.028
15928WAT      O48025   3.144   6.353   2.580
15928WAT     H148026   3.148   6.444   2.619
15928WAT     H248027   3.175   6.356   2.484
15929WAT      O48028   6.828   1.806   6.527
15929WAT     H148029   6.854   1.744   6.453
15929WAT     H248030   6.911   1.841   6.572
15930WAT      O48031   5.969   4.176   4.455
15930WAT     H148032   6.055   4.148   4.498
15930WAT     H248033   5.982   4.264   4.409
15931WAT      O48034   9.473   1.299   3.469
15931WAT     H148035   9.483   1.267   3.563
15931WAT     H248036   9.523   1.238   3.408
15932WAT      O48037   7.128   4.373   8.796
15932WAT     H148038   7.059   4.434   8.757
15932WAT     H248039   7.216   4.419   8.798
15933WAT      O48040   8.996   9.837   7.132
15933WAT     H148041   9.021   9.755   7.185
15933WAT     H248042   9.014   9.919   7.188
15934WAT      O48043   8.513   3.219   7.814
15934WAT     H148044   8.502   3.150   7.743
15934WAT     H248045   8.425   3.232   7.861
15935WAT      O48046   0.133   1.501   6.271
15935WAT     H148047   0.070   1.579   6.271
15935WAT     H248048   0.081   1.416   6.277
15936WAT      O48049   1.199   5.694   9.249
15936WAT     H148050   1.142   5.743   9.316
15936WAT     H248051   1.262   5.758   9.206
15937WAT      O48052   2.813   1.662   6.751
15937WAT     H148053   2.823   1.748   6.801
15937WAT     H248054   2.903   1.620   6.740
15938WAT      O48055   6.632   7.772   0.995
15938WAT     H148056   6.649   7.870   1.009
15938WAT     H248057   6.672   7.720   1.071
15939WAT      O48058   4.134   0.454   6.644
15939WAT     H148059   4.211   0.467   6.580
15939WAT     H248060   4.157   0.382   6.709
15940WAT      O48061   1.984   5.621   4.994
15940WAT     H148062   2.021   5.681   4.923
15940WAT     H248063   2.060   5.576   5.041
15941WAT      O48064   2.630   0.681   2.471
15941WAT     H148065   2.562   0.721   2.533
15941WAT     H248066   2.700   0.635   2.526
15942WAT      O48067   5.634   4.125   0.505
15942WAT     H148068   5.681   4.191   0.447
15942WAT     H248069   5.688   4.041   0.511
15943WAT      O48070   9.216   8.802   6.836
15943WAT     H148071   9.274   8.808   6.754
15943WAT     H248072   9.248   8.868   6.904
15944WAT      O48073   2.000   5.003   9.358
15944WAT     H148074   2.011   5.054   9.273
15944WAT     H248075   2.090   4.977   9.393
15945WAT      O48076   7.079   2.719   4.894
15945WAT     H148077   7.114   2.708   4.988
15945WAT     H248078   7.013   2.646   4.875
15946WAT      O48079   3.921   6.714   5.734
15946WAT     H148080   4.012   6.671   5.734
15946WAT     H248081   3.891   6.726   5.829
15947WAT      O48082   3.435   2.673   5.298
15947WAT     H148083   3.492   2.704   5.374
15947WAT     H248084   3.346   2.717   5.303
15948WAT      O48085   8.283   8.867   2.655
15948WAT     H148086   8.349   8.923   2.605
15948WAT     H248087   8.224   8.820   2.591
15949WAT      O48088   5.923   5.961   1.122
15949WAT     H148089   6.009   5.953   1.173
15949WAT     H248090   5.869   5.878   1.135
15950WAT      O48091   1.613   3.692   7.523
15950WAT     H148092   1.672   3.771   7.542
15950WAT     H248093   1.669   3.611   7.505
15951WAT      O48094   6.111   8.581   3.341
15951WAT     H148095   6.208   8.568   3.324
15951WAT     H248096   6.059   8.538   3.267
15952WAT      O48097   0.072   3.227   8.676
15952WAT     H148098   0.114   3.239   8.766
15952WAT     H248099   0.144   3.223   8.607
15953WAT      O48100   3.312   7.157   9.265
15953WAT     H148101   3.358   7.160   9.354
15953WAT     H248102   3.294   7.250   9.234
15954WAT      O48103   4.440   1.780   5.616
15954WAT     H148104   4.433   1.708   5.547
15954WAT     H248105   4.382   1.757   5.694
15955WAT      O48106   8.336   1.175   5.630
15955WAT     H148107   8.410   1.227   5.672
15955WAT     H248108   8.253   1.183   5.686
15956WAT      O48109   2.983   9.254   3.821
15956WAT     H148110   2.909   9.230   3.885
15956WAT     H248111   3.019   9.345   3.844
15957WAT      O48112   8.016   3.725   1.620
15957WAT     H148113   7.953   3.698   1.693
15957WAT     H248114   8.082   3.791   1.657
15958WAT      O48115   9.673   7.129   7.516
15958WAT     H148116   9.588   7.181   7.513
15958WAT     H248117   9.706   7.113   7.423
15959WAT      O48118   5.071   9.088   2.500
15959WAT     H148119   5.033   9.179   2.517
15959WAT     H248120   5.009   9.019   2.535
15960WAT      O48121   1.055   5.154   5.757
15960WAT     H148122   0.984   5.167   5.688
15960WAT     H248123   1.140   5.197   5.726
15961WAT      O48124   8.655   3.904   7.381
15961WAT     H148125   8.613   3.977   7.326
15961WAT     H248126   8.656   3.932   7.477
15962WAT      O48127   4.498   4.849   0.431
15962WAT     H148128   4.473   4.860   0.335
15962WAT     H248129   4.582   4.901   0.450
15963WAT      O48130   2.357   9.701   1.845
15963WAT     H148131   2.406   9.708   1.932
15963WAT     H248132   2.422   9.706   1.770
15964WAT      O48133   5.091   2.595   2.517
15964WAT     H148134   5.086   2.692   2.496
15964WAT     H248135   5.080   2.542   2.432
15965WAT      O48136   4.800   2.762   1.940
15965WAT     H148137   4.794   2.827   2.016
15965WAT     H248138   4.711   2.717   1.928
15966WAT      O48139   8.265   9.501   0.523
15966WAT     H148140   8.314   9.429   0.571
15966WAT     H248141   8.202   9.547   0.585
15967WAT      O48142   3.181   8.744   3.895
15967WAT     H148143   3.279   8.741   3.914
15967WAT     H248144   3.163   8.804   3.817
15968WAT      O48145   4.556   7.066   1.753
15968WAT     H148146   4.494   7.128   1.705
15968WAT     H248147   4.648   7.105   1.756
15969WAT      O48148   9.593   4.557   3.738
15969WAT     H148149   9.652   4.479   3.720
15969WAT     H248150   9.646   4.641   3.732
15970WAT      O48151   5.718   2.338   2.117
15970WAT     H148152   5.664   2.378   2.043
15970WAT     H248153   5.675   2.253   2.147
15971WAT      O48154   2.801   2.408   3.202
15971WAT     H148155   2.756   2.480   3.256
15971WAT     H248156   2.900   2.414   3.214
15972WAT      O48157   0.767   0.670   1.695
15972WAT     H148158   0.757   0.613   1.776
15972WAT     H248159   0.717   0.629   1.619
15973WAT      O48160   6.786   6.629   1.609
15973WAT     H148161   6.803   6.698   1.538
15973WAT     H248162   6.735   6.553   1.569
15974WAT      O48163   3.981   8.722   1.731
15974WAT     H148164   4.029   8.650   1.781
15974WAT     H248165   3.888   8.691   1.711
15975WAT      O48166   4.319   2.801   1.965
15975WAT     H148167   4.263   2.790   2.048
15975WAT     H248168   4.318   2.897   1.937
15976WAT      O48169   6.392   8.730   1.958
15976WAT     H148170   6.471   8.790   1.961
15976WAT     H248171   6.318   8.769   2.014
15977WAT      O48172   6.815   6.247   5.795
15977WAT     H148173   6.742   6.199   5.844
15977WAT     H248174   6.883   6.181   5.762
15978WAT      O48175   4.853   9.297   4.561
15978WAT     H148176   4.757   9.309   4.585
15978WAT     H248177   4.904   9.380   4.584
15979WAT      O48178   1.414   3.359   5.298
15979WAT     H148179   1.365   3.431   5.249
15979WAT     H248180   1.454   3.397   5.381
15980WAT      O48181   4.705   0.305   6.496
15980WAT     H148182   4.672   0.379   6.555
15980WAT     H248183   4.792   0.332   6.455
15981WAT      O48184   0.085   3.221   2.399
15981WAT     H148185   0.061   3.143   2.457
15981WAT     H248186   0.071   3.306   2.450
15982WAT      O48187   2.128   0.183   5.061
15982WAT     H148188   2.101   0.090   5.035
15982WAT     H248189   2.052   0.246   5.043
15983WAT      O48190   6.837   2.657   1.970
15983WAT     H148191   6.781   2.577   1.989
15983WAT     H248192   6.930   2.628   1.947
15984WAT      O48193   5.933   7.449   8.513
15984WAT     H148194   5.929   7.391   8.431
15984WAT     H248195   5.956   7.542   8.487
15985WAT      O48196   3.701   0.799   1.372
15985WAT     H148197   3.749   0.759   1.294
15985WAT     H248198   3.611   0.756   1.382
15986WAT      O48199   7.427   7.570   7.129
15986WAT     H148200   7.397   7.627   7.206
15986WAT     H248201   7.524   7.584   7.113
15987WAT      O48202   0.426   9.107   9.398
15987WAT     H148203   0.446   9.062   9.311
15987WAT     H248204   0.456   9.202   9.394
15988WAT      O48205   8.655   2.116   0.387
15988WAT     H148206   8.679   2.187   0.454
15988WAT     H248207   8.674   2.026   0.426
15989WAT      O48208   9.537   1.353   6.486
15989WAT     H148209   9.482   1.433   6.509
15989WAT     H248210   9.555   1.300   6.569
15990WAT      O48211   7.567   1.685   0.515
15990WAT     H148212   7.616   1.772   0.511
15990WAT     H248213   7.513   1.682   0.599
15991WAT      O48214   1.785   2.260   5.531
15991WAT     H148215   1.757   2.243   5.625
15991WAT     H248216   1.834   2.347   5.526
15992WAT      O48217   5.011   5.559   6.793
15992WAT     H148218   4.997   5.461   6.776
15992WAT     H248219   4.936   5.594   6.849
15993WAT      O48220   7.589   6.623   9.760
15993WAT     H148221   7.617   6.568   9.682
15993WAT     H248222   7.490   6.632   9.761
15994WAT      O48223   4.635   5.279   6.982
15994WAT     H148224   4.556   5.219   6.984
15994WAT     H248225   4.636   5.331   6.897
15995WAT      O48226   4.134   5.647   6.973
15995WAT     H148227   4.047   5.642   6.925
15995WAT     H248228   4.172   5.555   6.985
15996WAT      O48229   2.798   9.113   1.309
15996WAT     H148230   2.885   9.069   1.285
15996WAT     H248231   2.722   9.052   1.284
15997WAT      O48232   0.318   4.236   8.064
15997WAT     H148233   0.246   4.203   8.124
15997WAT     H248234   0.305   4.334   8.046
15998WAT      O48235   6.030   5.758   3.207
15998WAT     H148236   6.023   5.669   3.161
15998WAT     H248237   6.125   5.775   3.233
15999WAT      O48238   6.358   5.105   2.274
15999WAT     H148239   6.347   5.007   2.257
15999WAT     H248240   6.272   5.151   2.255
16000WAT      O48241   3.363   5.639   9.380
16000WAT     H148242   3.338   5.546   9.406
16000WAT     H248243   3.305   5.705   9.429
16001WAT      O48244   5.898   5.279   0.368
16001WAT     H148245   5.844   5.225   0.433
16001WAT     H248246   5.988   5.237   0.358
16002WAT      O48247   4.593   0.710   4.820
16002WAT     H148248   4.652   0.785   4.790
16002WAT     H248249   4.532   0.742   4.892
16003WAT      O48250   2.639   2.051   7.822
16003WAT     H148251   2.560   2.077   7.878
16003WAT     H248252   2.669   1.959   7.846
16004WAT      O48253   4.472   4.272   3.619
16004WAT     H148254   4.410   4.209   3.665
16004WAT     H248255   4.508   4.338   3.685
16005WAT      O48256   7.737   7.819   0.752
16005WAT     H148257   7.689   7.843   0.836
16005WAT     H248258   7.762   7.722   0.754
16006WAT      O48259   4.520   3.355   0.875
16006WAT     H148260   4.581   3.412   0.821
16006WAT     H248261   4.530   3.260   0.848
16007WAT      O48262   5.172   4.474   8.496
16007WAT     H148263   5.185   4.449   8.400
16007WAT     H248264   5.191   4.571   8.508
16008WAT      O48265   5.171   6.631   6.086
16008WAT     H148266   5.089   6.653   6.138
16008WAT     H248267   5.245   6.607   6.149
16009WAT      O48268   6.442   8.283   1.252
16009WAT     H148269   6.364   8.342   1.230
16009WAT     H248270   6.500   8.273   1.171
16010WAT      O48271   0.772   3.172   4.972
16010WAT     H148272   0.833   3.187   4.894
16010WAT     H248273   0.825   3.134   5.048
16011WAT      O48274   8.701   1.318   5.331
16011WAT     H148275   8.775   1.349   5.390
16011WAT     H248276   8.729   1.323   5.235
16012WAT      O48277   3.505   9.283   4.663
16012WAT     H148278   3.409   9.301   4.644
16012WAT     H248279   3.527   9.188   4.640
16013WAT      O48280   0.492   1.376   7.457
16013WAT     H148281   0.418   1.311   7.473
16013WAT     H248282   0.557   1.371   7.533
16014WAT      O48283   5.937   2.488   9.378
16014WAT     H148284   5.880   2.570   9.384
16014WAT     H248285   5.888   2.410   9.415
16015WAT      O48286   1.384   4.217   0.604
16015WAT     H148287   1.357   4.307   0.570
16015WAT     H248288   1.442   4.172   0.535
16016WAT      O48289   9.392   0.346   1.065
16016WAT     H148290   9.410   0.419   0.999
16016WAT     H248291   9.331   0.278   1.024
16017WAT      O48292   5.673   3.371   0.112
16017WAT     H148293   5.658   3.415   0.023
16017WAT     H248294   5.623   3.285   0.116
16018WAT      O48295   8.561   9.368   2.361
16018WAT     H148296   8.548   9.279   2.404
16018WAT     H248297   8.476   9.421   2.369
16019WAT      O48298   5.318   2.678   0.714
16019WAT     H148299   5.341   2.648   0.807
16019WAT     H248300   5.388   2.647   0.650
16020WAT      O48301   7.853   2.278   0.149
16020WAT     H148302   7.764   2.243   0.179
16020WAT     H248303   7.869   2.367   0.191
16021WAT      O48304   7.315   0.011   7.359
16021WAT     H148305   7.221  -0.013   7.337
16021WAT     H248306   7.361   0.046   7.277
16022WAT      O48307   0.464   8.361   5.205
16022WAT     H148308   0.398   8.330   5.137
16022WAT     H248309   0.450   8.458   5.224
16023WAT      O48310   6.815   1.551   5.839
16023WAT     H148311   6.834   1.470   5.784
16023WAT     H248312   6.769   1.619   5.782
16024WAT      O48313   4.100   3.790   2.085
16024WAT     H148314   4.008   3.804   2.050
16024WAT     H248315   4.129   3.872   2.136
16025WAT      O48316   2.991   8.305   7.775
16025WAT     H148317   2.961   8.211   7.764
16025WAT     H248318   2.913   8.363   7.800
16026WAT      O48319   3.592   7.418   7.890
16026WAT     H148320   3.647   7.366   7.825
16026WAT     H248321   3.649   7.443   7.969
16027WAT      O48322   6.737   4.860   4.234
16027WAT     H148323   6.684   4.932   4.279
16027WAT     H248324   6.682   4.818   4.162
16028WAT      O48325   3.319   4.289   1.931
16028WAT     H148326   3.411   4.325   1.945
16028WAT     H248327   3.260   4.319   2.006
16029WAT      O48328   1.873   5.915   8.047
16029WAT     H148329   1.947   5.958   7.996
16029WAT     H248330   1.910   5.861   8.122
16030WAT      O48331   1.243   5.101   2.569
16030WAT     H148332   1.315   5.143   2.623
16030WAT     H248333   1.250   5.001   2.576
16031WAT      O48334   8.748   3.615   1.672
16031WAT     H148335   8.715   3.640   1.763
16031WAT     H248336   8.756   3.516   1.666
16032WAT      O48337   4.997   7.522   5.894
16032WAT     H148338   5.069   7.521   5.825
16032WAT     H248339   4.985   7.615   5.929
16033WAT      O48340   2.136   5.452   9.555
16033WAT     H148341   2.170   5.475   9.646
16033WAT     H248342   2.210   5.461   9.488
16034WAT      O48343   5.723   5.907   6.880
16034WAT     H148344   5.666   5.940   6.955
16034WAT     H248345   5.742   5.982   6.817
16035WAT      O48346   5.289   2.101   8.521
16035WAT     H148347   5.265   2.101   8.424
16035WAT     H248348   5.293   2.196   8.554
16036WAT      O48349   8.758   8.679   5.443
16036WAT     H148350   8.822   8.690   5.519
16036WAT     H248351   8.788   8.605   5.383
16037WAT      O48352   9.798   8.318   2.240
16037WAT     H148353   9.795   8.370   2.155
16037WAT     H248354   9.873   8.253   2.237
16038WAT      O48355   0.089   8.420   7.118
16038WAT     H148356   0.170   8.470   7.089
16038WAT     H248357   0.101   8.387   7.212
16039WAT      O48358   6.441   5.175   7.208
16039WAT     H148359   6.500   5.099   7.182
16039WAT     H248360   6.407   5.161   7.301
16040WAT      O48361   9.629   4.774   7.181
16040WAT     H148362   9.542   4.817   7.208
16040WAT     H248363   9.610   4.694   7.125
16041WAT      O48364   6.266   1.421   3.305
16041WAT     H148365   6.240   1.419   3.208
16041WAT     H248366   6.315   1.336   3.327
16042WAT      O48367   4.409   7.131   2.768
16042WAT     H148368   4.329   7.184   2.796
16042WAT     H248369   4.492   7.181   2.794
16043WAT      O48370   3.121   8.175   4.461
16043WAT     H148371   3.166   8.094   4.497
16043WAT     H248372   3.147   8.255   4.515
16044WAT      O48373   2.215   9.051   5.676
16044WAT     H148374   2.136   9.022   5.731
16044WAT     H248375   2.286   8.981   5.682
16045WAT      O48376   1.175   2.351   9.096
16045WAT     H148377   1.241   2.416   9.133
16045WAT     H248378   1.207   2.318   9.007
16046WAT      O48379   3.301   0.547   2.668
16046WAT     H148380   3.321   0.450   2.677
16046WAT     H248381   3.387   0.598   2.659
16047WAT      O48382   6.126   1.020   2.906
16047WAT     H148383   6.175   1.101   2.874
16047WAT     H248384   6.065   0.988   2.834
16048WAT      O48385   9.859   2.573   9.767
16048WAT     H148386   9.885   2.519   9.847
16048WAT     H248387   9.781   2.529   9.721
16049WAT      O48388   7.047   4.217   1.505
16049WAT     H148389   6.951   4.244   1.514
16049WAT     H248390   7.060   4.128   1.549
16050WAT      O48391   5.360   9.011   5.258
16050WAT     H148392   5.406   9.033   5.172
16050WAT     H248393   5.404   9.059   5.333
16051WAT      O48394   4.782   7.585   5.650
16051WAT     H148395   4.729   7.661   5.612
16051WAT     H248396   4.879   7.602   5.638
16052WAT      O48397   0.513   3.246   6.631
16052WAT     H148398   0.466   3.162   6.603
16052WAT     H248399   0.506   3.256   6.731
16053WAT      O48400   8.468   5.444   2.554
16053WAT     H148401   8.484   5.535   2.594
16053WAT     H248402   8.487   5.447   2.456
16054WAT      O48403   5.572   6.884   9.264
16054WAT     H148404   5.544   6.794   9.296
16054WAT     H248405   5.491   6.938   9.243
16055WAT      O48406   8.220   5.912   9.495
16055WAT     H148407   8.180   5.884   9.408
16055WAT     H248408   8.311   5.872   9.504
16056WAT      O48409   1.627   4.810   1.628
16056WAT     H148410   1.615   4.902   1.666
16056WAT     H248411   1.654   4.816   1.532
16057WAT      O48412   7.355   3.908   5.383
16057WAT     H148413   7.290   3.943   5.315
16057WAT     H248414   7.328   3.816   5.411
16058WAT      O48415   1.513   2.939   2.609
16058WAT     H148416   1.453   2.859   2.609
16058WAT     H248417   1.533   2.965   2.704
16059WAT      O48418   3.986   6.222   9.453
16059WAT     H148419   3.927   6.273   9.391
16059WAT     H248420   4.077   6.264   9.454
16060WAT      O48421   8.027   8.792   3.573
16060WAT     H148422   7.929   8.779   3.590
16060WAT     H248423   8.080   8.756   3.649
16061WAT      O48424   7.734   1.728   3.195
16061WAT     H148425   7.648   1.778   3.199
16061WAT     H248426   7.779   1.746   3.107
16062WAT      O48427   7.739   2.220   8.143
16062WAT     H148428   7.715   2.316   8.158
16062WAT     H248429   7.744   2.173   8.231
16063WAT      O48430   3.419   1.941   1.044
16063WAT     H148431   3.470   1.874   1.097
16063WAT     H248432   3.346   1.980   1.100
16064WAT      O48433   8.669   8.178   5.015
16064WAT     H148434   8.685   8.085   4.982
16064WAT     H248435   8.750   8.234   4.998
16065WAT      O48436   8.281   2.676   1.454
16065WAT     H148437   8.374   2.639   1.455
16065WAT     H248438   8.284   2.774   1.435
16066WAT      O48439   8.543   6.760   6.281
16066WAT     H148440   8.578   6.667   6.268
16066WAT     H248441   8.451   6.756   6.318
16067WAT      O48442   3.088   8.048   4.933
16067WAT     H148443   3.075   8.014   5.026
16067WAT     H248444   3.023   8.122   4.916
16068WAT      O48445   7.158   4.475   1.174
16068WAT     H148446   7.064   4.484   1.140
16068WAT     H248447   7.217   4.441   1.102
16069WAT      O48448   3.339   2.705   3.669
16069WAT     H148449   3.308   2.782   3.725
16069WAT     H248450   3.382   2.739   3.586
16070WAT      O48451   8.541   1.283   5.757
16070WAT     H148452   8.581   1.197   5.786
16070WAT     H248453   8.614   1.348   5.734
16071WAT      O48454   4.710   1.594   9.329
16071WAT     H148455   4.615   1.621   9.312
16071WAT     H248456   4.757   1.666   9.379
16072WAT      O48457   2.400   2.993   4.215
16072WAT     H148458   2.381   2.951   4.303
16072WAT     H248459   2.396   3.093   4.224
16073WAT      O48460   7.104   6.341   0.023
16073WAT     H148461   7.057   6.263   0.063
16073WAT     H248462   7.165   6.309  -0.050
16074WAT      O48463   4.351   9.212   0.955
16074WAT     H148464   4.383   9.204   0.860
16074WAT     H248465   4.262   9.169   0.963
16075WAT      O48466   6.917   2.243   2.002
16075WAT     H148467   7.002   2.269   2.048
16075WAT     H248468   6.909   2.295   1.917
16076WAT      O48469   5.986   9.286   3.923
16076WAT     H148470   5.931   9.205   3.902
16076WAT     H248471   6.082   9.264   3.911
16077WAT      O48472   4.437   5.270   8.327
16077WAT     H148473   4.377   5.284   8.249
16077WAT     H248474   4.382   5.257   8.409
16078WAT      O48475   5.178   0.307   7.034
16078WAT     H148476   5.133   0.389   6.997
16078WAT     H248477   5.276   0.311   7.013
16079WAT      O48478   2.577   8.967   1.267
16079WAT     H148479   2.534   8.942   1.354
16079WAT     H248480   2.513   8.951   1.192
16080WAT      O48481   5.698   2.862   5.092
16080WAT     H148482   5.798   2.858   5.081
16080WAT     H248483   5.673   2.952   5.127
16081WAT      O48484   6.402   5.765   2.393
16081WAT     H148485   6.469   5.690   2.390
16081WAT     H248486   6.443   5.844   2.438
16082WAT      O48487   0.438   9.430   4.511
16082WAT     H148488   0.362   9.487   4.477
16082WAT     H248489   0.430   9.338   4.472
16083WAT      O48490   5.066   8.782   1.835
16083WAT     H148491   4.971   8.751   1.833
16083WAT     H248492   5.069   8.880   1.854
16084WAT      O48493   0.843   7.375   0.304
16084WAT     H148494   0.771   7.342   0.242
16084WAT     H248495   0.884   7.458   0.266
16085WAT      O48496   6.462   8.750   4.645
16085WAT     H148497   6.418   8.665   4.614
16085WAT     H248498   6.414   8.828   4.606
16086WAT      O48499   2.181   3.400   0.542
16086WAT     H148500   2.156   3.380   0.447
16086WAT     H248501   2.279   3.419   0.547
16087WAT      O48502   4.657   2.413   7.643
16087WAT     H148503   4.703   2.448   7.725
16087WAT     H248504   4.717   2.348   7.597
16088WAT      O48505   3.811   3.469   5.990
16088WAT     H148506   3.769   3.413   5.919
16088WAT     H248507   3.905   3.439   6.005
16089WAT      O48508   4.921   7.461   4.448
16089WAT     H148509   4.860   7.529   4.407
16089WAT     H248510   4.996   7.508   4.495
16090WAT      O48511   6.657   9.694   6.908
16090WAT     H148512   6.597   9.618   6.882
16090WAT     H248513   6.702   9.672   6.995
16091WAT      O48514   4.734   9.106   0.805
16091WAT     H148515   4.725   9.097   0.904
16091WAT     H248516   4.692   9.191   0.775
16092WAT      O48517   2.660   4.769   8.058
16092WAT     H148518   2.699   4.680   8.080
16092WAT     H248519   2.583   4.757   7.996
16093WAT      O48520   7.109   8.448   7.096
16093WAT     H148521   7.022   8.494   7.080
16093WAT     H248522   7.181   8.516   7.109
16094WAT      O48523   9.475   6.863   1.487
16094WAT     H148524   9.379   6.888   1.470
16094WAT     H248525   9.495   6.776   1.442
16095WAT      O48526   9.569   0.742   9.288
16095WAT     H148527   9.474   0.728   9.259
16095WAT     H248528   9.570   0.778   9.381
16096WAT      O48529   4.540   0.099   6.778
16096WAT     H148530   4.588   0.019   6.741
16096WAT     H248531   4.483   0.071   6.855
16097WAT      O48532   6.311   8.996   7.056
16097WAT     H148533   6.321   9.042   7.145
16097WAT     H248534   6.368   9.042   6.989
16098WAT      O48535   6.133   5.365   7.283
16098WAT     H148536   6.073   5.289   7.258
16098WAT     H248537   6.225   5.347   7.249
16099WAT      O48538   0.720   6.469   0.942
16099WAT     H148539   0.763   6.548   0.899
16099WAT     H248540   0.649   6.432   0.882
16100WAT      O48541   3.446   2.320   7.001
16100WAT     H148542   3.371   2.254   6.995
16100WAT     H248543   3.519   2.282   7.057
16101WAT      O48544   6.225   2.175   8.448
16101WAT     H148545   6.199   2.119   8.369
16101WAT     H248546   6.213   2.272   8.425
16102WAT      O48547   6.938   4.552   4.825
16102WAT     H148548   6.997   4.629   4.802
16102WAT     H248549   6.885   4.574   4.907
16103WAT      O48550   8.543   4.502   4.256
16103WAT     H148551   8.506   4.411   4.234
16103WAT     H248552   8.632   4.513   4.214
16104WAT      O48553   5.078   8.720   0.091
16104WAT     H148554   5.152   8.757   0.148
16104WAT     H248555   5.107   8.634   0.050
16105WAT      O48556   2.688   4.004   6.079
16105WAT     H148557   2.748   4.072   6.121
16105WAT     H248558   2.601   4.048   6.053
16106WAT      O48559   8.905   2.326   5.625
16106WAT     H148560   8.961   2.345   5.545
16106WAT     H248561   8.960   2.277   5.693
16107WAT      O48562   5.882   1.313   5.437
16107WAT     H148563   5.890   1.219   5.470
16107WAT     H248564   5.970   1.359   5.445
16108WAT      O48565   5.947   6.841   3.235
16108WAT     H148566   6.034   6.879   3.267
16108WAT     H248567   5.954   6.742   3.229
16109WAT      O48568   6.859   9.539   8.997
16109WAT     H148569   6.807   9.623   9.013
16109WAT     H248570   6.955   9.562   8.980
16110WAT      O48571   3.039   9.442   9.695
16110WAT     H148572   3.064   9.425   9.790
16110WAT     H248573   2.978   9.522   9.691
16111WAT      O48574   8.100   3.118   1.716
16111WAT     H148575   8.157   3.195   1.689
16111WAT     H248576   8.080   3.124   1.814
16112WAT      O48577   2.193   2.272   3.965
16112WAT     H148578   2.244   2.358   3.960
16112WAT     H248579   2.257   2.195   3.962
16113WAT      O48580   2.089   5.970   1.645
16113WAT     H148581   2.058   5.907   1.573
16113WAT     H248582   2.158   6.032   1.607
16114WAT      O48583   2.842   4.782   6.752
16114WAT     H148584   2.749   4.810   6.728
16114WAT     H248585   2.908   4.843   6.708
16115WAT      O48586   0.877   4.941   6.776
16115WAT     H148587   0.870   4.846   6.747
16115WAT     H248588   0.786   4.983   6.776
16116WAT      O48589   1.247   6.724   3.114
16116WAT     H148590   1.250   6.624   3.113
16116WAT     H248591   1.270   6.759   3.023
16117WAT      O48592   2.582   7.323   7.376
16117WAT     H148593   2.656   7.321   7.444
16117WAT     H248594   2.506   7.266   7.408
16118WAT      O48595   6.954   9.390   6.948
16118WAT     H148596   6.954   9.463   6.880
16118WAT     H248597   7.045   9.385   6.991
16119WAT      O48598   7.757   5.186   5.273
16119WAT     H148599   7.686   5.250   5.242
16119WAT     H248600   7.813   5.230   5.343
16120WAT      O48601   9.498   7.656   8.960
16120WAT     H148602   9.547   7.677   9.045
16120WAT     H248603   9.457   7.565   8.967
16121WAT      O48604   5.848   1.633   1.541
16121WAT     H148605   5.805   1.633   1.631
16121WAT     H248606   5.854   1.540   1.507
16122WAT      O48607   2.168   4.383   0.382
16122WAT     H148608   2.134   4.365   0.289
16122WAT     H248609   2.111   4.453   0.425
16123WAT      O48610   7.221   8.832   0.337
16123WAT     H148611   7.210   8.734   0.353
16123WAT     H248612   7.260   8.874   0.419
16124WAT      O48613   4.967   0.057   9.077
16124WAT     H148614   5.007   0.061   8.986
16124WAT     H248615   4.903  -0.020   9.083
16125WAT      O48616   1.776   3.802   5.708
16125WAT     H148617   1.861   3.771   5.749
16125WAT     H248618   1.698   3.762   5.757
16126WAT      O48619   6.145   4.270   1.200
16126WAT     H148620   6.122   4.284   1.104
16126WAT     H248621   6.073   4.217   1.244
16127WAT      O48622   5.884   8.757   1.002
16127WAT     H148623   5.832   8.674   0.981
16127WAT     H248624   5.886   8.771   1.101
16128WAT      O48625   0.762   4.841   1.717
16128WAT     H148626   0.815   4.918   1.753
16128WAT     H248627   0.800   4.813   1.629
16129WAT      O48628   0.151   0.072   9.606
16129WAT     H148629   0.171  -0.022   9.632
16129WAT     H248630   0.097   0.074   9.522
16130WAT      O48631   1.733   6.222   3.572
16130WAT     H148632   1.702   6.268   3.655
16130WAT     H248633   1.833   6.213   3.574
16131WAT      O48634   9.699   2.986   4.214
16131WAT     H148635   9.796   3.007   4.206
16131WAT     H248636   9.667   2.943   4.129
16132WAT      O48637   8.472   6.489   0.835
16132WAT     H148638   8.524   6.403   0.827
16132WAT     H248639   8.535   6.564   0.853
16133WAT      O48640   7.881   3.515   3.902
16133WAT     H148641   7.934   3.461   3.967
16133WAT     H248642   7.941   3.544   3.827
16134WAT      O48643   6.324   5.971   6.113
16134WAT     H148644   6.327   5.968   6.013
16134WAT     H248645   6.367   5.889   6.150
16135WAT      O48646   6.969   5.095   3.860
16135WAT     H148647   6.901   5.032   3.820
16135WAT     H248648   7.055   5.046   3.872
16136WAT      O48649   7.139   6.983   7.069
16136WAT     H148650   7.219   6.962   7.013
16136WAT     H248651   7.166   7.000   7.163
16137WAT      O48652   1.615   2.235   7.090
16137WAT     H148653   1.684   2.308   7.084
16137WAT     H248654   1.585   2.226   7.185
16138WAT      O48655   0.479   7.694   6.033
16138WAT     H148656   0.497   7.671   5.937
16138WAT     H248657   0.421   7.624   6.074
16139WAT      O48658   4.440   3.086   3.215
16139WAT     H148659   4.409   3.166   3.163
16139WAT     H248660   4.519   3.113   3.271
16140WAT      O48661   4.427   3.037   9.196
16140WAT     H148662   4.432   2.951   9.144
16140WAT     H248663   4.349   3.091   9.164
16141WAT      O48664   2.221   3.203   2.492
16141WAT     H148665   2.308   3.237   2.528
16141WAT     H248666   2.236   3.116   2.446
16142WAT      O48667   8.073   1.262   8.408
16142WAT     H148668   8.158   1.209   8.412
16142WAT     H248669   8.065   1.305   8.318
16143WAT      O48670   1.590   7.491   5.490
16143WAT     H148671   1.585   7.397   5.524
16143WAT     H248672   1.549   7.496   5.399
16144WAT      O48673   8.745   2.045   9.251
16144WAT     H148674   8.656   2.048   9.207
16144WAT     H248675   8.742   1.982   9.329
16145WAT      O48676   8.725   2.695   6.209
16145WAT     H148677   8.751   2.781   6.253
16145WAT     H248678   8.726   2.621   6.277
16146WAT      O48679   9.207   9.509   3.975
16146WAT     H148680   9.183   9.441   3.907
16146WAT     H248681   9.285   9.477   4.029
16147WAT      O48682   4.826   6.788   4.981
16147WAT     H148683   4.740   6.801   5.030
16147WAT     H248684   4.810   6.728   4.902
16148WAT      O48685   5.178   7.776   6.246
16148WAT     H148686   5.264   7.826   6.234
16148WAT     H248687   5.120   7.824   6.312
16149WAT      O48688   8.992   5.087   4.929
16149WAT     H148689   8.937   5.056   5.006
16149WAT     H248690   8.994   5.187   4.928
16150WAT      O48691   8.748   0.501   6.595
16150WAT     H148692   8.743   0.408   6.630
16150WAT     H248693   8.839   0.517   6.557
16151WAT      O48694   3.530   6.290   4.874
16151WAT     H148695   3.432   6.278   4.859
16151WAT     H248696   3.547   6.381   4.912
16152WAT      O48697   1.254   0.062   8.639
16152WAT     H148698   1.196   0.111   8.574
16152WAT     H248699   1.218   0.075   8.732
16153WAT      O48700   8.969   3.816   0.140
16153WAT     H148701   9.032   3.886   0.172
16153WAT     H248702   9.011   3.764   0.065
16154WAT      O48703   4.296   4.901   7.567
16154WAT     H148704   4.277   4.814   7.613
16154WAT     H248705   4.225   4.967   7.593
16155WAT      O48706   5.809   9.292   1.425
16155WAT     H148707   5.756   9.250   1.351
16155WAT     H248708   5.830   9.387   1.402
16156WAT      O48709   2.139   0.521   5.577
16156WAT     H148710   2.111   0.463   5.654
16156WAT     H248711   2.068   0.588   5.559
16157WAT      O48712   0.893   6.091   1.845
16157WAT     H148713   0.885   6.013   1.906
16157WAT     H248714   0.970   6.149   1.874
16158WAT      O48715   6.872   4.583   9.585
16158WAT     H148716   6.847   4.489   9.564
16158WAT     H248717   6.864   4.597   9.684
16159WAT      O48718   9.740   0.046   8.914
16159WAT     H148719   9.672   0.030   8.986
16159WAT     H248720   9.706   0.010   8.827
16160WAT      O48721   3.247   9.814   2.067
16160WAT     H148722   3.344   9.841   2.070
16160WAT     H248723   3.190   9.895   2.061
16161WAT      O48724   9.104   0.748   5.461
16161WAT     H148725   9.160   0.831   5.465
16161WAT     H248726   9.062   0.740   5.371
16162WAT      O48727   4.859   2.682   5.233
16162WAT     H148728   4.900   2.754   5.178
16162WAT     H248729   4.781   2.643   5.184
16163WAT      O48730   1.967   5.911   5.356
16163WAT     H148731   1.881   5.950   5.322
16163WAT     H248732   2.001   5.966   5.432
16164WAT      O48733   7.739   4.498   9.565
16164WAT     H148734   7.781   4.421   9.613
16164WAT     H248735   7.726   4.475   9.469
16165WAT      O48736   2.505   8.664   0.105
16165WAT     H148737   2.481   8.761   0.111
16165WAT     H248738   2.476   8.618   0.189
16166WAT      O48739   5.650   0.925   6.818
16166WAT     H148740   5.743   0.891   6.806
16166WAT     H248741   5.630   0.993   6.747
16167WAT      O48742   3.883   1.465   6.678
16167WAT     H148743   3.981   1.484   6.688
16167WAT     H248744   3.870   1.387   6.617
16168WAT      O48745   7.183   5.139   2.780
16168WAT     H148746   7.155   5.136   2.876
16168WAT     H248747   7.112   5.096   2.723
16169WAT      O48748   2.506   8.227   3.547
16169WAT     H148749   2.492   8.175   3.631
16169WAT     H248750   2.453   8.187   3.473
16170WAT      O48751   1.044   5.887   9.352
16170WAT     H148752   1.061   5.984   9.332
16170WAT     H248753   0.959   5.879   9.404
16171WAT      O48754   5.865   7.994   5.027
16171WAT     H148755   5.873   7.961   5.121
16171WAT     H248756   5.923   8.075   5.015
16172WAT      O48757   9.610   8.856   1.005
16172WAT     H148758   9.708   8.850   0.991
16172WAT     H248759   9.579   8.950   0.989
16173WAT      O48760   0.709   0.553   5.789
16173WAT     H148761   0.665   0.531   5.702
16173WAT     H248762   0.661   0.506   5.863
16174WAT      O48763   1.025   7.872   3.747
16174WAT     H148764   1.038   7.773   3.740
16174WAT     H248765   0.962   7.892   3.823
16175WAT      O48766   3.683   1.047   6.274
16175WAT     H148767   3.736   0.980   6.325
16175WAT     H248768   3.674   1.130   6.328
16176WAT      O48769   1.614   2.591   7.067
16176WAT     H148770   1.647   2.643   7.146
16176WAT     H248771   1.679   2.518   7.046
16177WAT      O48772   0.334   4.914   4.842
16177WAT     H148773   0.358   4.995   4.789
16177WAT     H248774   0.237   4.894   4.830
16178WAT      O48775   0.249   3.175   8.477
16178WAT     H148776   0.341   3.137   8.463
16178WAT     H248777   0.203   3.183   8.389
16179WAT      O48778   2.291   7.524   5.391
16179WAT     H148779   2.309   7.623   5.391
16179WAT     H248780   2.195   7.508   5.365
16180WAT      O48781   4.807   8.750   7.196
16180WAT     H148782   4.892   8.782   7.238
16180WAT     H248783   4.776   8.667   7.242
16181WAT      O48784   0.239   0.463   2.289
16181WAT     H148785   0.205   0.370   2.302
16181WAT     H248786   0.221   0.517   2.371
16182WAT      O48787   5.049   5.664   4.165
16182WAT     H148788   5.008   5.753   4.145
16182WAT     H248789   5.105   5.670   4.247
16183WAT      O48790   2.848   3.246   5.285
16183WAT     H148791   2.880   3.292   5.368
16183WAT     H248792   2.921   3.188   5.249
16184WAT      O48793   0.408   0.777   7.133
16184WAT     H148794   0.472   0.818   7.198
16184WAT     H248795   0.445   0.690   7.100
16185WAT      O48796   1.278   0.492   4.944
16185WAT     H148797   1.252   0.456   4.855
16185WAT     H248798   1.272   0.591   4.943
16186WAT      O48799   6.154   4.526   7.710
16186WAT     H148800   6.208   4.582   7.773
16186WAT     H248801   6.062   4.512   7.747
16187WAT      O48802   6.068   1.006   3.183
16187WAT     H148803   6.038   1.094   3.221
16187WAT     H248804   6.086   1.017   3.085
16188WAT      O48805   0.958   4.365   6.488
16188WAT     H148806   0.883   4.367   6.422
16188WAT     H248807   1.045   4.357   6.440
16189WAT      O48808   4.671   2.009   5.183
16189WAT     H148809   4.764   2.044   5.177
16189WAT     H248810   4.648   1.961   5.098
16190WAT      O48811   7.709   7.619   3.712
16190WAT     H148812   7.768   7.554   3.759
16190WAT     H248813   7.665   7.574   3.635
16191WAT      O48814   6.625   2.656   3.686
16191WAT     H148815   6.551   2.688   3.746
16191WAT     H248816   6.695   2.726   3.681
16192WAT      O48817   5.437   3.486   5.866
16192WAT     H148818   5.406   3.581   5.859
16192WAT     H248819   5.359   3.424   5.865
16193WAT      O48820   2.791   1.158   9.220
16193WAT     H148821   2.711   1.146   9.279
16193WAT     H248822   2.762   1.157   9.124
16194WAT      O48823   7.314   1.637   0.387
16194WAT     H148824   7.286   1.555   0.437
16194WAT     H248825   7.398   1.673   0.428
16195WAT      O48826   0.162   4.664   8.139
16195WAT     H148827   0.197   4.728   8.207
16195WAT     H248828   0.113   4.714   8.068
16196WAT      O48829   5.401   8.570   5.690
16196WAT     H148830   5.488   8.604   5.725
16196WAT     H248831   5.361   8.507   5.756
16197WAT      O48832   0.335   7.858   8.610
16197WAT     H148833   0.301   7.869   8.704
16197WAT     H248834   0.406   7.788   8.609
16198WAT      O48835   3.499   6.371   0.594
16198WAT     H148836   3.508   6.300   0.524
16198WAT     H248837   3.505   6.329   0.685
16199WAT      O48838   2.751   5.744   2.210
16199WAT     H148839   2.721   5.715   2.301
16199WAT     H248840   2.709   5.832   2.187
16200WAT      O48841   3.836   1.931   6.022
16200WAT     H148842   3.770   1.883   5.965
16200WAT     H248843   3.822   2.029   6.015
16201WAT      O48844   8.478   9.350   8.954
16201WAT     H148845   8.446   9.321   9.044
16201WAT     H248846   8.416   9.316   8.884
16202WAT      O48847   8.052   0.344   6.943
16202WAT     H148848   8.069   0.431   6.897
16202WAT     H248849   8.021   0.276   6.875
16203WAT      O48850   3.856   8.091   4.125
16203WAT     H148851   3.820   8.126   4.211
16203WAT     H248852   3.886   8.167   4.067
16204WAT      O48853   0.328   7.731   6.500
16204WAT     H148854   0.423   7.722   6.470
16204WAT     H248855   0.268   7.733   6.420
16205WAT      O48856   3.904   0.759   4.862
16205WAT     H148857   3.989   0.807   4.840
16205WAT     H248858   3.908   0.666   4.826
16206WAT      O48859   6.349   4.932   8.730
16206WAT     H148860   6.422   4.923   8.663
16206WAT     H248861   6.374   4.883   8.813
16207WAT      O48862   8.812   8.091   6.655
16207WAT     H148863   8.738   8.047   6.706
16207WAT     H248864   8.780   8.179   6.619
16208WAT      O48865   3.494   0.366   6.448
16208WAT     H148866   3.506   0.283   6.393
16208WAT     H248867   3.443   0.345   6.531
16209WAT      O48868   1.889   8.166   2.871
16209WAT     H148869   1.967   8.106   2.854
16209WAT     H248870   1.886   8.190   2.968
16210WAT      O48871   4.604   7.495   3.598
16210WAT     H148872   4.587   7.577   3.543
16210WAT     H248873   4.626   7.521   3.692
16211WAT      O48874   8.783   3.986   7.625
16211WAT     H148875   8.714   4.058   7.622
16211WAT     H248876   8.873   4.027   7.642
16212WAT      O48877   5.046   9.075   3.183
16212WAT     H148878   5.006   9.096   3.272
16212WAT     H248879   5.098   9.154   3.150
16213WAT      O48880   2.698   6.258   3.829
16213WAT     H148881   2.611   6.290   3.791
16213WAT     H248882   2.704   6.284   3.925
16214WAT      O48883   5.085   3.585   1.709
16214WAT     H148884   5.069   3.498   1.756
16214WAT     H248885   5.170   3.580   1.656
16215WAT      O48886   6.393   1.160   7.505
16215WAT     H148887   6.412   1.253   7.471
16215WAT     H248888   6.337   1.112   7.438
16216WAT      O48889   6.381   8.621   8.561
16216WAT     H148890   6.411   8.536   8.602
16216WAT     H248891   6.291   8.609   8.518
16217WAT      O48892   4.803   5.148   0.281
16217WAT     H148893   4.780   5.242   0.306
16217WAT     H248894   4.898   5.144   0.250
16218WAT      O48895   8.241   4.526   8.803
16218WAT     H148896   8.170   4.495   8.740
16218WAT     H248897   8.280   4.612   8.771
16219WAT      O48898   2.815   5.772   2.676
16219WAT     H148899   2.760   5.712   2.617
16219WAT     H248900   2.754   5.825   2.735
16220WAT      O48901   4.482   8.473   9.557
16220WAT     H148902   4.520   8.466   9.649
16220WAT     H248903   4.435   8.560   9.547
16221WAT      O48904   2.449   3.771   3.993
16221WAT     H148905   2.460   3.809   4.085
16221WAT     H248906   2.352   3.756   3.975
16222WAT      O48907   3.527   8.916   6.160
16222WAT     H148908   3.573   8.850   6.220
16222WAT     H248909   3.444   8.949   6.206
16223WAT      O48910   5.929   0.997   3.803
16223WAT     H148911   6.007   0.977   3.745
16223WAT     H248912   5.848   0.950   3.768
16224WAT      O48913   6.180   6.406   0.018
16224WAT     H148914   6.108   6.343  -0.012
16224WAT     H248915   6.248   6.415  -0.055
16225WAT      O48916   5.807   9.132   4.343
16225WAT     H148917   5.789   9.174   4.431
16225WAT     H248918   5.863   9.194   4.287
16226WAT      O48919   0.828   6.011   7.452
16226WAT     H148920   0.788   6.054   7.370
16226WAT     H248921   0.921   5.980   7.430
16227WAT      O48922   3.490   6.005   5.164
16227WAT     H148923   3.574   6.047   5.199
16227WAT     H248924   3.483   5.910   5.196
16228WAT      O48925   9.598   7.798   6.004
16228WAT     H148926   9.599   7.896   6.024
16228WAT     H248927   9.549   7.750   6.077
16229WAT      O48928   8.438   3.709   4.410
16229WAT     H148929   8.477   3.703   4.502
16229WAT     H248930   8.338   3.702   4.415
16230WAT      O48931   4.691   5.137   8.985
16230WAT     H148932   4.619   5.193   8.942
16230WAT     H248933   4.666   5.118   9.080
16231WAT      O48934   5.247   4.102   6.324
16231WAT     H148935   5.181   4.175   6.307
16231WAT     H248936   5.278   4.107   6.419
16232WAT      O48937   7.172   4.609   8.508
16232WAT     H148938   7.098   4.571   8.563
16232WAT     H248939   7.154   4.705   8.490
16233WAT      O48940   7.620   8.131   3.779
16233WAT     H148941   7.638   8.040   3.742
16233WAT     H248942   7.532   8.130   3.828
16234WAT      O48943   4.139   5.808   1.793
16234WAT     H148944   4.227   5.814   1.841
16234WAT     H248945   4.066   5.832   1.856
16235WAT      O48946   1.311   2.102   9.383
16235WAT     H148947   1.342   2.013   9.418
16235WAT     H248948   1.309   2.168   9.458
16236WAT      O48949   0.835   5.815   8.117
16236WAT     H148950   0.876   5.767   8.040
16236WAT     H248951   0.767   5.756   8.161
16237WAT      O48952   4.127   8.275   9.297
16237WAT     H148953   4.218   8.307   9.269
16237WAT     H248954   4.099   8.198   9.240
16238WAT      O48955   8.156   1.872   6.284
16238WAT     H148956   8.154   1.945   6.216
16238WAT     H248957   8.247   1.831   6.286
16239WAT      O48958   7.828   3.992   0.809
16239WAT     H148959   7.928   3.987   0.818
16239WAT     H248960   7.786   3.942   0.884
16240WAT      O48961   1.196   6.813   2.594
16240WAT     H148962   1.171   6.771   2.682
16240WAT     H248963   1.123   6.874   2.564
16241WAT      O48964   4.753   2.515   7.876
16241WAT     H148965   4.840   2.474   7.903
16241WAT     H248966   4.682   2.492   7.943
16242WAT      O48967   7.904   5.710   6.931
16242WAT     H148968   7.901   5.693   7.029
16242WAT     H248969   7.866   5.632   6.882
16243WAT      O48970   6.095   3.055   1.012
16243WAT     H148971   6.101   3.085   0.917
16243WAT     H248972   6.001   3.064   1.045
16244WAT      O48973   5.116   3.796   7.174
16244WAT     H148974   5.052   3.842   7.113
16244WAT     H248975   5.192   3.758   7.121
16245WAT      O48976   3.665   6.492   0.864
16245WAT     H148977   3.745   6.433   0.848
16245WAT     H248978   3.604   6.487   0.784
16246WAT      O48979   9.377   0.789   6.908
16246WAT     H148980   9.471   0.755   6.913
16246WAT     H248981   9.361   0.827   6.816
16247WAT      O48982   3.842   0.224   5.825
16247WAT     H148983   3.757   0.195   5.781
16247WAT     H248984   3.831   0.317   5.860
16248WAT      O48985   2.935   3.267   6.940
16248WAT     H148986   3.024   3.225   6.958
16248WAT     H248987   2.871   3.197   6.909
16249WAT      O48988   1.859   9.549   7.125
16249WAT     H148989   1.874   9.461   7.169
16249WAT     H248990   1.809   9.609   7.187
16250WAT      O48991   7.974   5.098   8.092
16250WAT     H148992   7.951   5.017   8.038
16250WAT     H248993   7.892   5.156   8.102
16251WAT      O48994   1.557   1.056   9.616
16251WAT     H148995   1.582   0.959   9.614
16251WAT     H248996   1.600   1.103   9.539
16252WAT      O48997   4.921   9.040   3.431
16252WAT     H148998   4.970   9.004   3.510
16252WAT     H248999   4.870   8.966   3.387
16253WAT      O49000   7.956   5.103   3.649
16253WAT     H149001   7.857   5.097   3.653
16253WAT     H249002   7.989   5.157   3.726
16254WAT      O49003   8.875   3.588   6.159
16254WAT     H149004   8.944   3.615   6.225
16254WAT     H249005   8.903   3.618   6.067
16255WAT      O49006   1.086   6.551   3.617
16255WAT     H149007   1.143   6.585   3.543
16255WAT     H249008   1.023   6.622   3.647
16256WAT      O49009   1.351   9.311   7.553
16256WAT     H149010   1.372   9.256   7.634
16256WAT     H249011   1.422   9.297   7.484
16257WAT      O49012   3.343   6.554   6.138
16257WAT     H149013   3.402   6.583   6.214
16257WAT     H249014   3.328   6.455   6.143
16258WAT      O49015   4.013   4.881   0.525
16258WAT     H149016   4.010   4.783   0.507
16258WAT     H249017   3.942   4.928   0.471
16259WAT      O49018   1.962   0.396   1.881
16259WAT     H149019   1.965   0.417   1.783
16259WAT     H249020   1.959   0.297   1.893
16260WAT      O49021   9.549   9.377   6.945
16260WAT     H149022   9.639   9.379   6.901
16260WAT     H249023   9.479   9.395   6.877
16261WAT      O49024   5.077   3.909   5.578
16261WAT     H149025   5.106   3.942   5.668
16261WAT     H249026   5.041   3.816   5.587
16262WAT      O49027   7.575   5.018   4.784
16262WAT     H149028   7.488   4.979   4.756
16262WAT     H249029   7.609   4.970   4.865
16263WAT      O49030   0.203   1.023   7.053
16263WAT     H149031   0.240   0.940   7.094
16263WAT     H249032   0.268   1.098   7.065
16264WAT      O49033   5.164   1.312   6.489
16264WAT     H149034   5.073   1.277   6.468
16264WAT     H249035   5.202   1.263   6.567
16265WAT      O49036   3.472   4.197   3.528
16265WAT     H149037   3.531   4.117   3.515
16265WAT     H249038   3.389   4.186   3.472
16266WAT      O49039   0.612   8.162   3.081
16266WAT     H149040   0.539   8.231   3.079
16266WAT     H249041   0.628   8.134   3.175
16267WAT      O49042   5.915   1.576   8.967
16267WAT     H149043   5.918   1.532   9.057
16267WAT     H249044   5.866   1.663   8.975
16268WAT      O49045   9.475   2.897   0.800
16268WAT     H149046   9.426   2.974   0.841
16268WAT     H249047   9.473   2.819   0.863
16269WAT      O49048   3.814   6.224   0.609
16269WAT     H149049   3.735   6.203   0.552
16269WAT     H249050   3.870   6.294   0.565
16270WAT      O49051   1.079   7.205   4.806
16270WAT     H149052   1.053   7.221   4.711
16270WAT     H249053   1.163   7.151   4.809
16271WAT      O49054   8.995   8.057   4.623
16271WAT     H149055   9.003   7.999   4.542
16271WAT     H249056   9.040   8.013   4.701
16272WAT      O49057   8.967   9.175   4.145
16272WAT     H149058   9.019   9.097   4.109
16272WAT     H249059   9.026   9.255   4.151
16273WAT      O49060   7.104   8.364   3.041
16273WAT     H149061   7.156   8.443   3.009
16273WAT     H249062   7.159   8.281   3.032
16274WAT      O49063   9.006   0.712   5.205
16274WAT     H149064   8.919   0.665   5.220
16274WAT     H249065   9.000   0.766   5.121
16275WAT      O49066   1.503   4.999   0.804
16275WAT     H149067   1.554   4.998   0.890
16275WAT     H249068   1.497   5.092   0.770
16276WAT      O49069   3.555   5.823   2.178
16276WAT     H149070   3.607   5.753   2.227
16276WAT     H249071   3.457   5.800   2.181
16277WAT      O49072   3.337   7.348   5.410
16277WAT     H149073   3.413   7.410   5.429
16277WAT     H249074   3.272   7.394   5.349
16278WAT      O49075   3.843   6.668   8.034
16278WAT     H149076   3.778   6.735   8.071
16278WAT     H249077   3.797   6.581   8.019
16279WAT      O49078   8.421   4.401   0.322
16279WAT     H149079   8.422   4.409   0.421
16279WAT     H249080   8.466   4.316   0.294
16280WAT      O49081   2.756   8.957   6.637
16280WAT     H149082   2.762   9.054   6.661
16280WAT     H249083   2.660   8.928   6.638
16281WAT      O49084   8.153   1.541   4.641
16281WAT     H149085   8.086   1.473   4.612
16281WAT     H249086   8.160   1.613   4.572
16282WAT      O49087   7.823   3.305   2.522
16282WAT     H149088   7.900   3.368   2.509
16282WAT     H249089   7.833   3.258   2.609
16283WAT      O49090   7.301   4.852   5.746
16283WAT     H149091   7.363   4.926   5.723
16283WAT     H249092   7.300   4.839   5.846
16284WAT      O49093   2.271   8.128   0.652
16284WAT     H149094   2.321   8.166   0.730
16284WAT     H249095   2.176   8.113   0.677
16285WAT      O49096   7.544   6.089   2.476
16285WAT     H149097   7.566   5.992   2.475
16285WAT     H249098   7.473   6.106   2.544
16286WAT      O49099   7.837   5.495   9.825
16286WAT     H149100   7.766   5.516   9.758
16286WAT     H249101   7.924   5.532   9.794
16287WAT      O49102   3.338   0.660   6.400
16287WAT     H149103   3.353   0.569   6.361
16287WAT     H249104   3.425   0.699   6.428
16288WAT      O49105   8.381   6.654   4.107
16288WAT     H149106   8.314   6.603   4.161
16288WAT     H249107   8.349   6.748   4.095
16289WAT      O49108   6.259   2.706   9.518
16289WAT     H149109   6.350   2.680   9.551
16289WAT     H249110   6.206   2.624   9.498
16290WAT      O49111   8.794   0.183   4.409
16290WAT     H149112   8.778   0.127   4.491
16290WAT     H249113   8.742   0.145   4.333
16291WAT      O49114   4.000   2.796   9.703
16291WAT     H149115   4.040   2.821   9.615
16291WAT     H249116   3.952   2.708   9.695
16292WAT      O49117   5.673   4.398   2.162
16292WAT     H149118   5.757   4.361   2.202
16292WAT     H249119   5.694   4.479   2.107
16293WAT      O49120   0.101   8.750   9.530
16293WAT     H149121   0.143   8.841   9.533
16293WAT     H249122   0.001   8.759   9.531
16294WAT      O49123   1.708   0.550   9.467
16294WAT     H149124   1.709   0.501   9.554
16294WAT     H249125   1.643   0.506   9.404
16295WAT      O49126   6.695   7.794   0.054
16295WAT     H149127   6.705   7.828  -0.039
16295WAT     H249128   6.615   7.836   0.096
16296WAT      O49129   5.336   3.700   3.674
16296WAT     H149130   5.348   3.633   3.601
16296WAT     H249131   5.348   3.792   3.637
16297WAT      O49132   9.409   0.420   1.488
16297WAT     H149133   9.322   0.450   1.526
16297WAT     H249134   9.470   0.392   1.562
16298WAT      O49135   9.868   7.519   7.321
16298WAT     H149136   9.901   7.511   7.416
16298WAT     H249137   9.785   7.573   7.319
16299WAT      O49138   8.414   1.459   5.011
16299WAT     H149139   8.332   1.507   4.982
16299WAT     H249140   8.397   1.360   5.010
16300WAT      O49141   4.487   8.150   1.278
16300WAT     H149142   4.418   8.078   1.286
16300WAT     H249143   4.530   8.145   1.188
16301WAT      O49144   3.127   4.272   9.126
16301WAT     H149145   3.201   4.272   9.193
16301WAT     H249146   3.108   4.178   9.097
16302WAT      O49147   9.200   4.501   0.510
16302WAT     H149148   9.259   4.549   0.575
16302WAT     H249149   9.204   4.403   0.527
16303WAT      O49150   6.237   8.603   3.013
16303WAT     H149151   6.295   8.561   3.082
16303WAT     H249152   6.143   8.570   3.023
16304WAT      O49153   6.195   3.346   7.602
16304WAT     H149154   6.134   3.407   7.552
16304WAT     H249155   6.243   3.287   7.538
16305WAT      O49156   9.566   2.056   8.399
16305WAT     H149157   9.561   2.048   8.299
16305WAT     H249158   9.603   2.145   8.424
16306WAT      O49159   6.845   1.844   5.541
16306WAT     H149160   6.924   1.873   5.596
16306WAT     H249161   6.790   1.779   5.594
16307WAT      O49162   3.491   5.716   5.272
16307WAT     H149163   3.545   5.637   5.300
16307WAT     H249164   3.406   5.719   5.323
16308WAT      O49165   7.438   9.553   8.930
16308WAT     H149166   7.479   9.641   8.953
16308WAT     H249167   7.414   9.551   8.833
16309WAT      O49168   6.255   6.183   1.014
16309WAT     H149169   6.283   6.155   1.106
16309WAT     H249170   6.239   6.102   0.958
16310WAT      O49171   7.686   5.715   5.441
16310WAT     H149172   7.695   5.625   5.482
16310WAT     H249173   7.590   5.732   5.417
16311WAT      O49174   3.871   5.542   6.904
16311WAT     H149175   3.905   5.452   6.931
16311WAT     H249176   3.829   5.536   6.813
16312WAT      O49177   4.210   6.896   3.479
16312WAT     H149178   4.211   6.983   3.430
16312WAT     H249179   4.292   6.890   3.536
16313WAT      O49180   0.423   8.958   5.562
16313WAT     H149181   0.485   8.966   5.484
16313WAT     H249182   0.353   9.029   5.557
16314WAT      O49183   1.374   4.459   4.752
16314WAT     H149184   1.401   4.521   4.679
16314WAT     H249185   1.286   4.417   4.730
16315WAT      O49186   7.807   0.657   1.992
16315WAT     H149187   7.889   0.712   1.981
16315WAT     H249188   7.827   0.562   1.968
16316WAT      O49189   8.531   1.513   5.260
16316WAT     H149190   8.584   1.431   5.283
16316WAT     H249191   8.486   1.500   5.171
16317WAT      O49192   7.026   7.841   1.710
16317WAT     H149193   7.112   7.892   1.724
16317WAT     H249194   6.976   7.837   1.797
16318WAT      O49195   9.622   7.090   1.521
16318WAT     H149196   9.561   7.011   1.524
16318WAT     H249197   9.571   7.173   1.543
16319WAT      O49198   4.793   5.452   6.257
16319WAT     H149199   4.859   5.378   6.266
16319WAT     H249200   4.734   5.436   6.178
16320WAT      O49201   7.927   0.660   8.413
16320WAT     H149202   7.928   0.717   8.495
16320WAT     H249203   8.009   0.679   8.359
16321WAT      O49204   3.927   2.073   7.991
16321WAT     H149205   3.906   2.023   8.074
16321WAT     H249206   3.970   2.012   7.924
16322WAT      O49207   4.087   9.051   1.457
16322WAT     H149208   4.019   9.125   1.464
16322WAT     H249209   4.120   9.046   1.363
16323WAT      O49210   8.931   0.364   5.698
16323WAT     H149211   9.014   0.417   5.678
16323WAT     H249212   8.942   0.319   5.787
16324WAT      O49213   4.159   5.961   1.588
16324WAT     H149214   4.100   6.042   1.591
16324WAT     H249215   4.145   5.906   1.671
16325WAT      O49216   7.902   3.096   0.480
16325WAT     H149217   7.965   3.144   0.419
16325WAT     H249218   7.877   3.008   0.440
16326WAT      O49219   3.137   1.110   0.239
16326WAT     H149220   3.049   1.140   0.276
16326WAT     H249221   3.150   1.013   0.256
16327WAT      O49222   4.536   9.167   5.952
16327WAT     H149223   4.618   9.185   5.897
16327WAT     H249224   4.538   9.225   6.034
16328WAT      O49225   3.037   7.839   5.949
16328WAT     H149226   3.044   7.743   5.973
16328WAT     H249227   2.986   7.888   6.019
16329WAT      O49228   7.571   0.948   8.090
16329WAT     H149229   7.496   0.884   8.108
16329WAT     H249230   7.629   0.912   8.017
16330WAT      O49231   7.256   6.995   2.448
16330WAT     H149232   7.318   7.047   2.507
16330WAT     H249233   7.196   7.058   2.399
16331WAT      O49234   3.290   9.780   9.341
16331WAT     H149235   3.210   9.742   9.387
16331WAT     H249236   3.261   9.855   9.282
16332WAT      O49237   3.258   6.779   9.175
16332WAT     H149238   3.343   6.779   9.228
16332WAT     H249239   3.223   6.686   9.168
16333WAT      O49240   9.315   9.314   7.803
16333WAT     H149241   9.323   9.389   7.870
16333WAT     H249242   9.238   9.333   7.742
16334WAT      O49243   0.037   5.195   8.258
16334WAT     H149244   0.102   5.132   8.300
16334WAT     H249245   0.007   5.262   8.326
16335WAT      O49246   7.144   8.318   5.939
16335WAT     H149247   7.170   8.223   5.922
16335WAT     H249248   7.176   8.376   5.864
16336WAT      O49249   5.450   3.964   6.795
16336WAT     H149250   5.390   3.886   6.776
16336WAT     H249251   5.519   3.972   6.723
16337WAT      O49252   2.522   1.406   6.363
16337WAT     H149253   2.530   1.370   6.270
16337WAT     H249254   2.473   1.340   6.420
16338WAT      O49255   7.901   9.509   8.297
16338WAT     H149256   7.839   9.438   8.331
16338WAT     H249257   7.889   9.592   8.353
16339WAT      O49258   1.490   7.198   3.818
16339WAT     H149259   1.400   7.204   3.774
16339WAT     H249260   1.561   7.214   3.750
16340WAT      O49261   0.877   1.524   9.683
16340WAT     H149262   0.958   1.541   9.738
16340WAT     H249263   0.878   1.583   9.602
16341WAT      O49264   8.233   8.031   2.146
16341WAT     H149265   8.139   8.014   2.173
16341WAT     H249266   8.250   7.994   2.055
16342WAT      O49267   5.168   0.856   1.479
16342WAT     H149268   5.137   0.951   1.490
16342WAT     H249269   5.098   0.804   1.431
16343WAT      O49270   2.989   2.050   3.835
16343WAT     H149271   3.049   1.972   3.816
16343WAT     H249272   3.043   2.134   3.833
16344WAT      O49273   8.138   3.967   8.377
16344WAT     H149274   8.103   3.981   8.285
16344WAT     H249275   8.225   4.014   8.388
16345WAT      O49276   2.523   2.249   5.264
16345WAT     H149277   2.518   2.245   5.164
16345WAT     H249278   2.431   2.254   5.302
16346WAT      O49279   9.266   1.683   4.379
16346WAT     H149280   9.191   1.642   4.430
16346WAT     H249281   9.353   1.647   4.413
16347WAT      O49282   4.290   6.825   7.917
16347WAT     H149283   4.375   6.773   7.926
16347WAT     H249284   4.303   6.918   7.952
16348WAT      O49285   2.720   9.295   1.124
16348WAT     H149286   2.658   9.270   1.050
16348WAT     H249287   2.751   9.212   1.170
16349WAT      O49288   7.157   2.086   3.751
16349WAT     H149289   7.075   2.107   3.806
16349WAT     H249290   7.168   2.156   3.681
16350WAT      O49291   4.219   1.271   2.914
16350WAT     H149292   4.159   1.191   2.921
16350WAT     H249293   4.295   1.250   2.853
16351WAT      O49294   5.214   3.072   3.807
16351WAT     H149295   5.134   3.013   3.795
16351WAT     H249296   5.218   3.103   3.902
16352WAT      O49297   7.299   4.285   7.634
16352WAT     H149298   7.265   4.351   7.566
16352WAT     H249299   7.397   4.271   7.620
16353WAT      O49300   6.921   8.933   1.027
16353WAT     H149301   6.979   8.898   1.100
16353WAT     H249302   6.873   9.015   1.057
16354WAT      O49303   2.439   0.513   8.586
16354WAT     H149304   2.507   0.439   8.591
16354WAT     H249305   2.364   0.485   8.525
16355WAT      O49306   0.307   8.147   8.704
16355WAT     H149307   0.254   8.129   8.621
16355WAT     H249308   0.297   8.070   8.767
16356WAT      O49309   1.936   4.468   2.171
16356WAT     H149310   1.938   4.373   2.140
16356WAT     H249311   2.029   4.498   2.192
16357WAT      O49312   7.268   8.328   3.474
16357WAT     H149313   7.275   8.230   3.497
16357WAT     H249314   7.172   8.351   3.459
16358WAT      O49315   0.976   0.597   8.132
16358WAT     H149316   0.886   0.555   8.137
16358WAT     H249317   0.986   0.644   8.045
16359WAT      O49318   9.576   4.616   4.860
16359WAT     H149319   9.539   4.525   4.877
16359WAT     H249320   9.503   4.684   4.869
16360WAT      O49321   3.404   2.043   6.140
16360WAT     H149322   3.454   2.037   6.226
16360WAT     H249323   3.406   1.954   6.094
16361WAT      O49324   4.317   2.708   1.002
16361WAT     H149325   4.384   2.638   1.027
16361WAT     H249326   4.225   2.676   1.023
16362WAT      O49327   7.725   7.017   5.031
16362WAT     H149328   7.684   7.071   5.105
16362WAT     H249329   7.703   6.920   5.045
16363WAT      O49330   4.091   7.679   8.975
16363WAT     H149331   4.004   7.659   9.020
16363WAT     H249332   4.074   7.714   8.883
16364WAT      O49333   1.011   0.236   5.290
16364WAT     H149334   1.002   0.243   5.190
16364WAT     H249335   0.921   0.239   5.332
16365WAT      O49336   1.681   6.605   3.096
16365WAT     H149337   1.657   6.630   3.190
16365WAT     H249338   1.769   6.646   3.071
16366WAT      O49339   4.103   6.351   6.455
16366WAT     H149340   4.159   6.351   6.372
16366WAT     H249341   4.016   6.397   6.436
16367WAT      O49342   2.759   1.402   9.753
16367WAT     H149343   2.664   1.431   9.739
16367WAT     H249344   2.794   1.360   9.670
16368WAT      O49345   2.671   1.259   9.468
16368WAT     H149346   2.650   1.354   9.489
16368WAT     H249347   2.588   1.204   9.472
16369WAT      O49348   4.645   6.464   1.273
16369WAT     H149349   4.601   6.380   1.305
16369WAT     H249350   4.744   6.457   1.282
16370WAT      O49351   3.290   8.945   1.729
16370WAT     H149352   3.309   8.905   1.640
16370WAT     H249353   3.339   9.033   1.737
16371WAT      O49354   5.774   5.024   8.507
16371WAT     H149355   5.843   4.953   8.521
16371WAT     H249356   5.791   5.070   8.420
16372WAT      O49357   5.121   6.478   5.537
16372WAT     H149358   5.034   6.464   5.491
16372WAT     H249359   5.105   6.501   5.633
16373WAT      O49360   6.650   9.311   0.458
16373WAT     H149361   6.721   9.300   0.527
16373WAT     H249362   6.564   9.274   0.493
16374WAT      O49363   7.892   2.496   5.461
16374WAT     H149364   7.831   2.425   5.428
16374WAT     H249365   7.870   2.582   5.416
16375WAT      O49366   3.853   0.905   0.485
16375WAT     H149367   3.774   0.876   0.431
16375WAT     H249368   3.889   0.990   0.447
16376WAT      O49369   5.690   6.891   4.113
16376WAT     H149370   5.697   6.851   4.205
16376WAT     H249371   5.609   6.949   4.109
16377WAT      O49372   1.772   3.840   9.477
16377WAT     H149373   1.785   3.929   9.433
16377WAT     H249374   1.729   3.777   9.413
16378WAT      O49375   0.732   6.710   3.281
16378WAT     H149376   0.780   6.675   3.201
16378WAT     H249377   0.676   6.638   3.321
16379WAT      O49378   7.789   3.390   3.188
16379WAT     H149379   7.776   3.482   3.151
16379WAT     H249380   7.700   3.345   3.197
16380WAT      O49381   0.601   5.977   6.434
16380WAT     H149382   0.677   5.958   6.372
16380WAT     H249383   0.519   5.931   6.402
16381WAT      O49384   7.834   3.522   4.643
16381WAT     H149385   7.902   3.563   4.583
16381WAT     H249386   7.880   3.463   4.710
16382WAT      O49387   7.420   0.178   4.832
16382WAT     H149388   7.409   0.163   4.734
16382WAT     H249389   7.430   0.090   4.878
16383WAT      O49390   8.088   2.468   2.643
16383WAT     H149391   7.994   2.492   2.670
16383WAT     H249392   8.123   2.398   2.705
16384WAT      O49393   7.795   6.973   0.099
16384WAT     H149394   7.699   6.957   0.076
16384WAT     H249395   7.853   6.928   0.031
16385WAT      O49396   2.460   2.959   7.213
16385WAT     H149397   2.480   3.055   7.233
16385WAT     H249398   2.546   2.909   7.204
16386WAT      O49399   4.109   0.934   1.941
16386WAT     H149400   4.183   0.870   1.961
16386WAT     H249401   4.116   0.967   1.847
16387WAT      O49402   1.487   3.385   3.053
16387WAT     H149403   1.447   3.357   3.140
16387WAT     H249404   1.461   3.479   3.033
16388WAT      O49405   3.564   1.526   2.778
16388WAT     H149406   3.633   1.457   2.756
16388WAT     H249407   3.526   1.508   2.868
16389WAT      O49408   6.763   5.899   9.086
16389WAT     H149409   6.793   5.912   9.180
16389WAT     H249410   6.802   5.971   9.028
16390WAT      O49411   5.733   9.026   9.230
16390WAT     H149412   5.801   9.080   9.279
16390WAT     H249413   5.758   8.929   9.234
16391WAT      O49414   8.694   6.994   8.955
16391WAT     H149415   8.686   6.897   8.930
16391WAT     H249416   8.752   7.041   8.888
16392WAT      O49417   4.995   0.960   0.409
16392WAT     H149418   5.010   0.866   0.439
16392WAT     H249419   5.023   0.969   0.313
16393WAT      O49420   0.032   3.988   2.657
16393WAT     H149421  -0.043   3.923   2.657
16393WAT     H249422   0.109   3.951   2.605
16394WAT      O49423   8.653   2.675   2.326
16394WAT     H149424   8.603   2.758   2.353
16394WAT     H249425   8.683   2.685   2.231
16395WAT      O49426   8.744   2.956   1.431
16395WAT     H149427   8.820   2.951   1.366
16395WAT     H249428   8.746   2.876   1.490
16396WAT      O49429   1.481   4.627   4.545
16396WAT     H149430   1.571   4.597   4.512
16396WAT     H249431   1.418   4.636   4.467
16397WAT      O49432   9.270   2.070   6.657
16397WAT     H149433   9.369   2.062   6.659
16397WAT     H249434   9.244   2.166   6.647
16398WAT      O49435   3.904   0.557   5.942
16398WAT     H149436   3.810   0.537   5.912
16398WAT     H249437   3.902   0.580   6.040
16399WAT      O49438   3.445   7.404   3.069
16399WAT     H149439   3.348   7.404   3.045
16399WAT     H249440   3.494   7.340   3.009
16400WAT      O49441   8.013   2.604   4.527
16400WAT     H149442   8.089   2.668   4.515
16400WAT     H249443   7.952   2.609   4.448
16401WAT      O49444   8.823   9.469   3.561
16401WAT     H149445   8.736   9.437   3.525
16401WAT     H249446   8.870   9.524   3.492
16402WAT      O49447   8.179   6.708   3.127
16402WAT     H149448   8.247   6.686   3.058
16402WAT     H249449   8.137   6.623   3.160
16403WAT      O49450   6.708   3.433   6.754
16403WAT     H149451   6.658   3.498   6.697
16403WAT     H249452   6.730   3.475   6.842
16404WAT      O49453   6.219   1.365   4.624
16404WAT     H149454   6.157   1.393   4.550
16404WAT     H249455   6.264   1.445   4.663
16405WAT      O49456   6.470   3.673   2.236
16405WAT     H149457   6.441   3.603   2.301
16405WAT     H249458   6.415   3.755   2.249
16406WAT      O49459   0.767   9.609   0.019
16406WAT     H149460   0.802   9.526   0.062
16406WAT     H249461   0.833   9.683   0.029
16407WAT      O49462   3.366   0.544   2.215
16407WAT     H149463   3.396   0.618   2.275
16407WAT     H249464   3.427   0.538   2.137
16408WAT      O49465   0.402   6.964   4.711
16408WAT     H149466   0.318   7.018   4.719
16408WAT     H249467   0.400   6.889   4.778
16409WAT      O49468   3.284   4.219   8.638
16409WAT     H149469   3.272   4.183   8.730
16409WAT     H249470   3.267   4.318   8.638
16410WAT      O49471   3.681   5.416   9.305
16410WAT     H149472   3.669   5.508   9.342
16410WAT     H249473   3.595   5.366   9.313
16411WAT      O49474   3.040   0.275   1.465
16411WAT     H149475   3.014   0.183   1.436
16411WAT     H249476   2.995   0.297   1.551
16412WAT      O49477   6.598   3.733   6.000
16412WAT     H149478   6.613   3.775   5.910
16412WAT     H249479   6.596   3.804   6.070
16413WAT      O49480   6.879   9.262   8.927
16413WAT     H149481   6.890   9.359   8.947
16413WAT     H249482   6.959   9.212   8.962
16414WAT      O49483   1.657   9.372   5.453
16414WAT     H149484   1.600   9.322   5.518
16414WAT     H249485   1.599   9.426   5.392
16415WAT      O49486   0.287   3.955   7.603
16415WAT     H149487   0.196   3.969   7.563
16415WAT     H249488   0.308   4.029   7.666
16416WAT      O49489   7.940   4.667   9.117
16416WAT     H149490   7.984   4.696   9.033
16416WAT     H249491   7.886   4.584   9.100
16417WAT      O49492   9.680   1.887   6.765
16417WAT     H149493   9.749   1.951   6.733
16417WAT     H249494   9.712   1.793   6.750
16418WAT      O49495   7.645   7.047   5.413
16418WAT     H149496   7.569   7.085   5.360
16418WAT     H249497   7.659   7.103   5.495
16419WAT      O49498   4.214   2.884   2.956
16419WAT     H149499   4.216   2.865   2.857
16419WAT     H249500   4.305   2.871   2.994
16420WAT      O49501   7.277   3.696   4.749
16420WAT     H149502   7.293   3.662   4.656
16420WAT     H249503   7.187   3.738   4.754
16421WAT      O49504   2.148   5.823   5.974
16421WAT     H149505   2.096   5.771   5.906
16421WAT     H249506   2.241   5.838   5.938
16422WAT      O49507   7.370   0.236   4.126
16422WAT     H149508   7.365   0.283   4.037
16422WAT     H249509   7.444   0.170   4.124
16423WAT      O49510   5.948   5.245   9.618
16423WAT     H149511   5.922   5.161   9.666
16423WAT     H249512   5.976   5.314   9.685
16424WAT      O49513   7.868   8.133   9.863
16424WAT     H149514   7.776   8.098   9.882
16424WAT     H249515   7.862   8.205   9.793
16425WAT      O49516   0.701   8.335   0.736
16425WAT     H149517   0.715   8.355   0.639
16425WAT     H249518   0.628   8.268   0.747
16426WAT      O49519   5.030   8.275   8.728
16426WAT     H149520   5.071   8.192   8.766
16426WAT     H249521   4.935   8.281   8.756
16427WAT      O49522   0.425   5.530   8.164
16427WAT     H149523   0.358   5.544   8.091
16427WAT     H249524   0.436   5.432   8.182
16428WAT      O49525   5.956   1.826   0.277
16428WAT     H149526   5.942   1.820   0.375
16428WAT     H249527   5.895   1.895   0.238
16429WAT      O49528   5.973   3.828   0.008
16429WAT     H149529   5.981   3.840  -0.091
16429WAT     H249530   5.944   3.735   0.029
16430WAT      O49531   1.938   4.373   7.754
16430WAT     H149532   2.038   4.362   7.757
16430WAT     H249533   1.896   4.286   7.728
16431WAT      O49534   2.880   2.354   9.342
16431WAT     H149535   2.951   2.381   9.407
16431WAT     H249536   2.876   2.254   9.335
16432WAT      O49537   4.119   1.073   1.687
16432WAT     H149538   4.205   1.047   1.642
16432WAT     H249539   4.042   1.051   1.628
16433WAT      O49540   2.401   9.390   5.498
16433WAT     H149541   2.420   9.366   5.403
16433WAT     H249542   2.437   9.482   5.517
16434WAT      O49543   3.760   9.407   7.437
16434WAT     H149544   3.837   9.459   7.399
16434WAT     H249545   3.687   9.401   7.370
16435WAT      O49546   9.190   0.072   6.944
16435WAT     H149547   9.256   0.133   6.989
16435WAT     H249548   9.132   0.030   7.013
16436WAT      O49549   7.689   9.648   6.651
16436WAT     H149550   7.694   9.730   6.708
16436WAT     H249551   7.623   9.662   6.578
16437WAT      O49552   2.160   6.086   0.119
16437WAT     H149553   2.112   6.059   0.036
16437WAT     H249554   2.246   6.035   0.126
16438WAT      O49555   3.746   1.473   2.173
16438WAT     H149556   3.710   1.474   2.079
16438WAT     H249557   3.803   1.391   2.185
16439WAT      O49558   9.498   8.712   4.988
16439WAT     H149559   9.439   8.696   4.909
16439WAT     H249560   9.481   8.804   5.024
16440WAT      O49561   7.306   1.155   7.716
16440WAT     H149562   7.240   1.145   7.791
16440WAT     H249563   7.393   1.114   7.743
16441WAT      O49564   9.809   8.821   7.049
16441WAT     H149565   9.861   8.867   6.977
16441WAT     H249566   9.862   8.745   7.086
16442WAT      O49567   8.237   0.884   2.268
16442WAT     H149568   8.177   0.804   2.270
16442WAT     H249569   8.321   0.862   2.218
16443WAT      O49570   3.934   1.280   6.888
16443WAT     H149571   3.923   1.342   6.811
16443WAT     H249572   3.973   1.329   6.966
16444WAT      O49573   5.000   8.370   9.268
16444WAT     H149574   4.965   8.411   9.353
16444WAT     H249575   4.972   8.426   9.190
16445WAT      O49576   9.119   7.343   5.014
16445WAT     H149577   9.122   7.255   5.061
16445WAT     H249578   9.052   7.403   5.057
16446WAT      O49579   2.542   5.984   1.265
16446WAT     H149580   2.460   6.041   1.269
16446WAT     H249581   2.604   6.010   1.339
16447WAT      O49582   9.221   4.374   4.570
16447WAT     H149583   9.176   4.462   4.581
16447WAT     H249584   9.305   4.372   4.625
16448WAT      O49585   1.461   5.172   6.570
16448WAT     H149586   1.505   5.188   6.658
16448WAT     H249587   1.418   5.256   6.538
16449WAT      O49588   9.170   5.893   8.238
16449WAT     H149589   9.219   5.806   8.245
16449WAT     H249590   9.173   5.926   8.144
16450WAT      O49591   0.915   5.383   3.988
16450WAT     H149592   0.933   5.438   4.070
16450WAT     H249593   0.996   5.384   3.929
16451WAT      O49594   6.430   1.054   1.011
16451WAT     H149595   6.469   1.031   0.922
16451WAT     H249596   6.386   0.973   1.049
16452WAT      O49597   8.275   2.526   7.201
16452WAT     H149598   8.284   2.520   7.301
16452WAT     H249599   8.310   2.614   7.169
16453WAT      O49600   1.779   3.257   8.426
16453WAT     H149601   1.825   3.169   8.413
16453WAT     H249602   1.848   3.329   8.439
16454WAT      O49603   1.348   7.708   2.601
16454WAT     H149604   1.249   7.699   2.614
16454WAT     H249605   1.391   7.618   2.603
16455WAT      O49606   3.237   5.716   9.878
16455WAT     H149607   3.189   5.631   9.855
16455WAT     H249608   3.296   5.743   9.802
16456WAT      O49609   7.814   6.417   4.121
16456WAT     H149610   7.884   6.425   4.050
16456WAT     H249611   7.761   6.502   4.124
16457WAT      O49612   5.407   2.943   9.176
16457WAT     H149613   5.313   2.940   9.210
16457WAT     H249614   5.411   2.902   9.085
16458WAT      O49615   5.263   0.031   6.378
16458WAT     H149616   5.296  -0.059   6.407
16458WAT     H249617   5.332   0.074   6.319
16459WAT      O49618   3.130   3.984   5.413
16459WAT     H149619   3.125   3.933   5.327
16459WAT     H249620   3.119   4.082   5.395
16460WAT      O49621   7.787   7.982   2.478
16460WAT     H149622   7.733   7.955   2.398
16460WAT     H249623   7.728   7.989   2.558
16461WAT      O49624   6.243   9.435   9.401
16461WAT     H149625   6.289   9.355   9.439
16461WAT     H249626   6.200   9.487   9.474
16462WAT      O49627   1.211   2.832   8.699
16462WAT     H149628   1.214   2.892   8.779
16462WAT     H249629   1.117   2.823   8.667
16463WAT      O49630   6.443   4.436   0.881
16463WAT     H149631   6.473   4.528   0.856
16463WAT     H249632   6.477   4.414   0.973
16464WAT      O49633   5.848   8.460   8.285
16464WAT     H149634   5.768   8.404   8.266
16464WAT     H249635   5.909   8.411   8.348
16465WAT      O49636   6.441   2.408   4.712
16465WAT     H149637   6.400   2.350   4.641
16465WAT     H249638   6.524   2.364   4.747
16466WAT      O49639   1.983   4.687   7.140
16466WAT     H149640   1.947   4.605   7.095
16466WAT     H249641   2.079   4.672   7.165
16467WAT      O49642   9.291   1.540   3.978
16467WAT     H149643   9.360   1.587   3.923
16467WAT     H249644   9.200   1.567   3.947
16468WAT      O49645   4.187   2.278   3.464
16468WAT     H149646   4.200   2.281   3.563
16468WAT     H249647   4.207   2.368   3.425
16469WAT      O49648   1.650   9.726   2.931
16469WAT     H149649   1.585   9.654   2.904
16469WAT     H249650   1.719   9.737   2.859
16470WAT      O49651   1.566   4.693   7.995
16470WAT     H149652   1.507   4.765   7.961
16470WAT     H249653   1.573   4.620   7.926
16471WAT      O49654   6.503   4.234   5.236
16471WAT     H149655   6.478   4.286   5.317
16471WAT     H249656   6.563   4.158   5.261
16472WAT      O49657   0.769   4.968   5.481
16472WAT     H149658   0.770   4.984   5.382
16472WAT     H249659   0.742   5.053   5.528
16473WAT      O49660   0.131   8.622   2.887
16473WAT     H149661   0.038   8.591   2.867
16473WAT     H249662   0.195   8.580   2.824
16474WAT      O49663   2.919   3.981   8.369
16474WAT     H149664   2.935   3.890   8.331
16474WAT     H249665   3.007   4.024   8.392
16475WAT      O49666   5.615   2.899   4.073
16475WAT     H149667   5.519   2.901   4.046
16475WAT     H249668   5.660   2.984   4.043
16476WAT      O49669   4.760   0.424   5.146
16476WAT     H149670   4.718   0.513   5.127
16476WAT     H249671   4.732   0.357   5.078
16477WAT      O49672   9.120   7.696   2.257
16477WAT     H149673   9.193   7.748   2.300
16477WAT     H249674   9.115   7.718   2.160
16478WAT      O49675   8.631   0.868   2.306
16478WAT     H149676   8.559   0.873   2.237
16478WAT     H249677   8.689   0.789   2.287
16479WAT      O49678   5.839   2.267   7.004
16479WAT     H149679   5.864   2.171   6.998
16479WAT     H249680   5.742   2.275   7.026
16480WAT      O49681   8.556   7.127   7.786
16480WAT     H149682   8.638   7.175   7.817
16480WAT     H249683   8.515   7.178   7.711
16481WAT      O49684   6.505   4.483   1.223
16481WAT     H149685   6.543   4.575   1.209
16481WAT     H249686   6.557   4.418   1.167
16482WAT      O49687   6.809   3.384   7.277
16482WAT     H149688   6.854   3.294   7.276
16482WAT     H249689   6.758   3.394   7.362
16483WAT      O49690   6.461   0.684   1.250
16483WAT     H149691   6.394   0.636   1.306
16483WAT     H249692   6.543   0.703   1.305
16484WAT      O49693   0.642   0.082   2.779
16484WAT     H149694   0.697   0.164   2.762
16484WAT     H249695   0.691   0.020   2.840
16485WAT      O49696   8.889   9.637   1.543
16485WAT     H149697   8.859   9.627   1.638
16485WAT     H249698   8.894   9.734   1.520
16486WAT      O49699   1.817   3.555   7.800
16486WAT     H149700   1.875   3.477   7.778
16486WAT     H249701   1.721   3.532   7.782
16487WAT      O49702   9.455   2.714   2.051
16487WAT     H149703   9.402   2.674   1.976
16487WAT     H249704   9.434   2.812   2.058
16488WAT      O49705   0.216   7.134   4.802
16488WAT     H149706   0.162   7.187   4.737
16488WAT     H249707   0.263   7.196   4.865
16489WAT      O49708   5.876   6.339   3.978
16489WAT     H149709   5.966   6.319   4.017
16489WAT     H249710   5.855   6.436   3.991
16490WAT      O49711   8.741   2.544   5.516
16490WAT     H149712   8.813   2.511   5.576
16490WAT     H249713   8.754   2.508   5.423
16491WAT      O49714   9.281   8.638   1.267
16491WAT     H149715   9.238   8.687   1.344
16491WAT     H249716   9.292   8.701   1.190
16492WAT      O49717   0.409   0.182   9.624
16492WAT     H149718   0.470   0.176   9.702
16492WAT     H249719   0.318   0.148   9.650
16493WAT      O49720   6.583   1.522   8.382
16493WAT     H149721   6.678   1.500   8.357
16493WAT     H249722   6.563   1.617   8.357
16494WAT      O49723   7.004   1.613   9.067
16494WAT     H149724   6.908   1.592   9.089
16494WAT     H249725   7.063   1.576   9.138
16495WAT      O49726   0.828   9.407   8.460
16495WAT     H149727   0.748   9.415   8.519
16495WAT     H249728   0.898   9.473   8.488
16496WAT      O49729   6.459   2.654   7.559
16496WAT     H149730   6.552   2.687   7.578
16496WAT     H249731   6.448   2.563   7.599
16497WAT      O49732   9.465   8.619   9.528
16497WAT     H149733   9.535   8.640   9.459
16497WAT     H249734   9.482   8.674   9.610
16498WAT      O49735   9.363   8.589   8.985
16498WAT     H149736   9.378   8.541   9.072
16498WAT     H249737   9.295   8.539   8.931
16499WAT      O49738   6.418   4.439   1.992
16499WAT     H149739   6.359   4.445   2.072
16499WAT     H249740   6.482   4.362   2.003
16500WAT      O49741   9.737   4.367   9.655
16500WAT     H149742   9.804   4.395   9.586
16500WAT     H249743   9.743   4.268   9.669
16501WAT      O49744   1.318   1.014   5.321
16501WAT     H149745   1.368   0.944   5.271
16501WAT     H249746   1.378   1.094   5.335
16502WAT      O49747   5.048   7.513   8.830
16502WAT     H149748   4.979   7.537   8.762
16502WAT     H249749   5.118   7.456   8.788
16503WAT      O49750   4.383   8.723   1.374
16503WAT     H149751   4.318   8.756   1.443
16503WAT     H249752   4.346   8.739   1.283
16504WAT      O49753   5.307   1.252   3.627
16504WAT     H149754   5.340   1.330   3.681
16504WAT     H249755   5.229   1.281   3.572
16505WAT      O49756   3.943   3.010   3.779
16505WAT     H149757   3.995   2.924   3.776
16505WAT     H249758   3.846   2.990   3.795
16506WAT      O49759   5.902   8.860   6.013
16506WAT     H149760   5.852   8.873   6.099
16506WAT     H249761   5.958   8.941   5.995
16507WAT      O49762   4.406   5.239   5.450
16507WAT     H149763   4.330   5.303   5.463
16507WAT     H249764   4.425   5.230   5.353
16508WAT      O49765   4.041   4.838   0.177
16508WAT     H149766   4.013   4.853   0.272
16508WAT     H249767   4.055   4.740   0.161
16509WAT      O49768   7.010   1.417   3.193
16509WAT     H149769   6.995   1.326   3.152
16509WAT     H249770   6.956   1.425   3.277
16510WAT      O49771   1.036   6.036   1.422
16510WAT     H149772   1.058   6.124   1.379
16510WAT     H249773   1.024   5.966   1.352
16511WAT      O49774   1.517   2.006   7.323
16511WAT     H149775   1.508   2.098   7.359
16511WAT     H249776   1.425   1.967   7.308
16512WAT      O49777   8.427   7.490   9.838
16512WAT     H149778   8.465   7.517   9.749
16512WAT     H249779   8.486   7.524   9.911
16513WAT      O49780   6.281   4.804   6.436
16513WAT     H149781   6.194   4.848   6.416
16513WAT     H249782   6.265   4.711   6.469
16514WAT      O49783   3.266   3.583   7.462
16514WAT     H149784   3.261   3.582   7.362
16514WAT     H249785   3.350   3.538   7.492
16515WAT      O49786   4.848   1.462   8.676
16515WAT     H149787   4.776   1.433   8.740
16515WAT     H249788   4.825   1.551   8.637
16516WAT      O49789   5.032   9.099   6.804
16516WAT     H149790   4.949   9.080   6.753
16516WAT     H249791   5.034   9.044   6.887
16517WAT      O49792   1.748   0.628   3.911
16517WAT     H149793   1.832   0.574   3.901
16517WAT     H249794   1.674   0.569   3.945
16518WAT      O49795   0.800   7.681   4.004
16518WAT     H149796   0.721   7.681   3.943
16518WAT     H249797   0.843   7.591   4.003
16519WAT      O49798   5.587   0.532   4.314
16519WAT     H149799   5.570   0.434   4.317
16519WAT     H249800   5.628   0.557   4.226
16520WAT      O49801   8.876   7.034   2.901
16520WAT     H149802   8.868   6.950   2.848
16520WAT     H249803   8.786   7.077   2.909
16521WAT      O49804   2.515   8.505   6.367
16521WAT     H149805   2.519   8.468   6.274
16521WAT     H249806   2.608   8.511   6.404
16522WAT      O49807   1.599   0.533   4.128
16522WAT     H149808   1.515   0.479   4.126
16522WAT     H249809   1.666   0.489   4.187
16523WAT      O49810   9.229   2.833   6.766
16523WAT     H149811   9.210   2.904   6.835
16523WAT     H249812   9.317   2.850   6.724
16524WAT      O49813   2.506   3.503   3.059
16524WAT     H149814   2.413   3.471   3.076
16524WAT     H249815   2.515   3.598   3.090
16525WAT      O49816   2.311   4.716   7.512
16525WAT     H149817   2.382   4.777   7.476
16525WAT     H249818   2.350   4.657   7.582
16526WAT      O49819   1.815   2.412   7.047
16526WAT     H149820   1.811   2.405   6.948
16526WAT     H249821   1.907   2.437   7.076
16527WAT      O49822   2.115   4.899   0.743
16527WAT     H149823   2.127   4.808   0.705
16527WAT     H249824   2.178   4.912   0.820
16528WAT      O49825   7.683   4.679   2.656
16528WAT     H149826   7.634   4.609   2.604
16528WAT     H249827   7.619   4.752   2.681
16529WAT      O49828   7.737   8.190   5.477
16529WAT     H149829   7.778   8.101   5.458
16529WAT     H249830   7.698   8.190   5.569
16530WAT      O49831   2.013   9.499   8.376
16530WAT     H149832   2.111   9.511   8.361
16530WAT     H249833   1.962   9.562   8.317
16531WAT      O49834   8.779   6.854   2.697
16531WAT     H149835   8.796   6.763   2.733
16531WAT     H249836   8.696   6.854   2.642
16532WAT      O49837   0.429   8.539   7.904
16532WAT     H149838   0.510   8.557   7.848
16532WAT     H249839   0.432   8.445   7.938
16533WAT      O49840   0.689   7.232   8.180
16533WAT     H149841   0.736   7.312   8.142
16533WAT     H249842   0.624   7.263   8.250
16534WAT      O49843   8.412   2.259   6.805
16534WAT     H149844   8.458   2.344   6.778
16534WAT     H249845   8.379   2.268   6.898
16535WAT      O49846   1.578   4.188   5.595
16535WAT     H149847   1.555   4.269   5.649
16535WAT     H249848   1.511   4.177   5.522
16536WAT      O49849   5.269   1.619   7.547
16536WAT     H149850   5.234   1.545   7.490
16536WAT     H249851   5.201   1.644   7.615
16537WAT      O49852   2.221   7.529   5.719
16537WAT     H149853   2.158   7.464   5.761
16537WAT     H249854   2.279   7.482   5.652
16538WAT      O49855   2.233   6.168   3.797
16538WAT     H149856   2.172   6.246   3.811
16538WAT     H249857   2.227   6.107   3.876
16539WAT      O49858   5.690   5.883   5.123
16539WAT     H149859   5.658   5.921   5.210
16539WAT     H249860   5.694   5.956   5.054
16540WAT      O49861   3.426   5.228   5.266
16540WAT     H149862   3.339   5.205   5.310
16540WAT     H249863   3.499   5.173   5.307
16541WAT      O49864   5.896   4.545   6.970
16541WAT     H149865   5.840   4.555   6.888
16541WAT     H249866   5.837   4.544   7.051
16542WAT      O49867   0.145   5.494   9.331
16542WAT     H149868   0.199   5.425   9.284
16542WAT     H249869   0.148   5.580   9.280
16543WAT      O49870   5.499   0.878   4.613
16543WAT     H149871   5.570   0.830   4.666
16543WAT     H249872   5.508   0.854   4.516
16544WAT      O49873   7.275   0.124   3.704
16544WAT     H149874   7.222   0.161   3.780
16544WAT     H249875   7.250   0.173   3.620
16545WAT      O49876   4.459   9.736   5.418
16545WAT     H149877   4.417   9.798   5.485
16545WAT     H249878   4.449   9.641   5.450
16546WAT      O49879   6.309   2.887   8.832
16546WAT     H149880   6.340   2.810   8.888
16546WAT     H249881   6.384   2.952   8.819
16547WAT      O49882   1.651   3.575   9.470
16547WAT     H149883   1.643   3.569   9.570
16547WAT     H249884   1.747   3.566   9.443
16548WAT      O49885   1.825   3.713   4.306
16548WAT     H149886   1.888   3.789   4.292
16548WAT     H249887   1.737   3.747   4.339
16549WAT      O49888   3.603   5.655   8.817
16549WAT     H149889   3.666   5.646   8.894
16549WAT     H249890   3.510   5.670   8.851
16550WAT      O49891   1.375   3.860   6.698
16550WAT     H149892   1.293   3.889   6.649
16550WAT     H249893   1.447   3.928   6.686
16551WAT      O49894   2.029   3.908   5.586
16551WAT     H149895   1.941   3.952   5.567
16551WAT     H249896   2.016   3.838   5.657
16552WAT      O49897   7.260   0.562   0.648
16552WAT     H149898   7.226   0.629   0.715
16552WAT     H249899   7.355   0.539   0.669
16553WAT      O49900   7.391   7.036   0.898
16553WAT     H149901   7.354   7.116   0.849
16553WAT     H249902   7.426   6.970   0.832
16554WAT      O49903   9.593   1.139   3.280
16554WAT     H149904   9.585   1.057   3.224
16554WAT     H249905   9.652   1.205   3.234
16555WAT      O49906   6.710   3.501   2.190
16555WAT     H149907   6.690   3.599   2.182
16555WAT     H249908   6.631   3.449   2.158
16556WAT      O49909   9.884   3.372   9.886
16556WAT     H149910   9.902   3.467   9.913
16556WAT     H249911   9.843   3.371   9.794
16557WAT      O49912   2.177   7.688   5.102
16557WAT     H149913   2.273   7.705   5.077
16557WAT     H249914   2.118   7.714   5.026
16558WAT      O49915   2.783   6.729   2.580
16558WAT     H149916   2.807   6.737   2.677
16558WAT     H249917   2.866   6.722   2.525
16559WAT      O49918   0.988   6.295   3.945
16559WAT     H149919   0.904   6.333   3.984
16559WAT     H249920   0.969   6.259   3.854
16560WAT      O49921   5.959   6.994   4.057
16560WAT     H149922   6.014   6.947   4.127
16560WAT     H249923   5.862   6.975   4.074
16561WAT      O49924   4.126   8.824   7.208
16561WAT     H149925   4.070   8.873   7.275
16561WAT     H249926   4.217   8.809   7.246
16562WAT      O49927   3.240   7.819   7.292
16562WAT     H149928   3.204   7.830   7.385
16562WAT     H249929   3.338   7.799   7.297
16563WAT      O49930   5.366   4.267   2.302
16563WAT     H149931   5.303   4.322   2.358
16563WAT     H249932   5.404   4.193   2.358
16564WAT      O49933   7.396   6.589   2.746
16564WAT     H149934   7.448   6.585   2.831
16564WAT     H249935   7.416   6.509   2.690
16565WAT      O49936   9.008   2.153   9.080
16565WAT     H149937   8.915   2.184   9.097
16565WAT     H249938   9.015   2.118   8.986
16566WAT      O49939   9.073   3.169   6.460
16566WAT     H149940   9.110   3.165   6.367
16566WAT     H249941   9.024   3.255   6.473
16567WAT      O49942   4.984   2.691   1.185
16567WAT     H149943   5.053   2.750   1.143
16567WAT     H249944   5.029   2.627   1.247
16568WAT      O49945   7.640   8.644   6.667
16568WAT     H149946   7.693   8.597   6.596
16568WAT     H249947   7.615   8.579   6.739
16569WAT      O49948   3.590   4.528   8.484
16569WAT     H149949   3.541   4.444   8.460
16569WAT     H249950   3.631   4.567   8.401
16570WAT      O49951   6.816   1.777   8.025
16570WAT     H149952   6.724   1.740   8.019
16570WAT     H249953   6.868   1.728   8.096
16571WAT      O49954   1.460   2.336   6.655
16571WAT     H149955   1.447   2.433   6.675
16571WAT     H249956   1.397   2.282   6.711
16572WAT      O49957   6.200   0.347   0.810
16572WAT     H149958   6.250   0.353   0.896
16572WAT     H249959   6.217   0.259   0.767
16573WAT      O49960   9.243   6.165   4.130
16573WAT     H149961   9.301   6.122   4.199
16573WAT     H249962   9.286   6.249   4.097
16574WAT      O49963   8.683   7.801   1.467
16574WAT     H149964   8.680   7.864   1.390
16574WAT     H249965   8.676   7.707   1.433
16575WAT      O49966   7.894   6.621   9.830
16575WAT     H149967   7.930   6.575   9.911
16575WAT     H249968   7.794   6.622   9.833
16576WAT      O49969   2.977   4.608   0.747
16576WAT     H149970   3.025   4.528   0.782
16576WAT     H249971   3.024   4.642   0.666
16577WAT      O49972   0.807   7.486   7.401
16577WAT     H149973   0.874   7.451   7.334
16577WAT     H249974   0.783   7.580   7.378
16578WAT      O49975   8.726   0.151   8.868
16578WAT     H149976   8.760   0.193   8.952
16578WAT     H249977   8.742   0.214   8.791
16579WAT      O49978   1.154   8.832   9.094
16579WAT     H149979   1.203   8.857   9.178
16579WAT     H249980   1.056   8.848   9.107
16580WAT      O49981   4.165   8.667   6.610
16580WAT     H149982   4.242   8.697   6.553
16580WAT     H249983   4.129   8.745   6.661
16581WAT      O49984   1.302   2.354   5.966
16581WAT     H149985   1.386   2.408   5.962
16581WAT     H249986   1.225   2.410   5.935
16582WAT      O49987   0.665   7.363   9.442
16582WAT     H149988   0.667   7.398   9.349
16582WAT     H249989   0.747   7.393   9.491
16583WAT      O49990   2.847   7.663   9.822
16583WAT     H149991   2.799   7.586   9.864
16583WAT     H249992   2.946   7.645   9.824
16584WAT      O49993   3.810   3.414   2.911
16584WAT     H149994   3.902   3.454   2.911
16584WAT     H249995   3.746   3.479   2.951
16585WAT      O49996   7.742   9.422   3.384
16585WAT     H149997   7.778   9.334   3.353
16585WAT     H249998   7.801   9.460   3.455
16586WAT      O49999   0.740   6.898   9.316
16586WAT     H150000   0.683   6.928   9.239
16586WAT     H250001   0.690   6.832   9.371
16587WAT      O50002   2.862   5.874   0.941
16587WAT     H150003   2.854   5.880   1.040
16587WAT     H250004   2.840   5.781   0.910
16588WAT      O50005   3.212   3.375   8.192
16588WAT     H150006   3.118   3.395   8.219
16588WAT     H250007   3.248   3.301   8.248
16589WAT      O50008   4.751   5.159   6.305
16589WAT     H150009   4.673   5.189   6.250
16589WAT     H250010   4.730   5.071   6.349
16590WAT      O50011   0.252   7.192   2.237
16590WAT     H150012   0.205   7.104   2.228
16590WAT     H250013   0.344   7.177   2.271
16591WAT      O50014   1.876   0.151   3.472
16591WAT     H150015   1.909   0.227   3.527
16591WAT     H250016   1.807   0.184   3.407
16592WAT      O50017   8.356   6.885   8.908
16592WAT     H150018   8.447   6.843   8.915
16592WAT     H250019   8.357   6.954   8.836
16593WAT      O50020   4.653   4.425   1.301
16593WAT     H150021   4.700   4.405   1.386
16593WAT     H250022   4.702   4.383   1.225
16594WAT      O50023   0.227   9.762   8.170
16594WAT     H150024   0.269   9.785   8.082
16594WAT     H250025   0.286   9.697   8.218
16595WAT      O50026   8.382   2.368   8.284
16595WAT     H150027   8.350   2.276   8.263
16595WAT     H250028   8.316   2.414   8.343
16596WAT      O50029   7.547   1.310   4.123
16596WAT     H150030   7.560   1.407   4.105
16596WAT     H250031   7.454   1.283   4.096
16597WAT      O50032   5.662   2.664   3.620
16597WAT     H150033   5.734   2.731   3.638
16597WAT     H250034   5.583   2.684   3.677
16598WAT      O50035   4.483   6.752   6.763
16598WAT     H150036   4.488   6.703   6.850
16598WAT     H250037   4.541   6.833   6.767
16599WAT      O50038   1.209   7.805   7.879
16599WAT     H150039   1.140   7.814   7.807
16599WAT     H250040   1.239   7.896   7.908
16600WAT      O50041   1.216   5.782   1.101
16600WAT     H150042   1.239   5.861   1.158
16600WAT     H250043   1.299   5.738   1.069
16601WAT      O50044   6.898   7.727   2.527
16601WAT     H150045   6.866   7.689   2.614
16601WAT     H250046   6.964   7.664   2.485
16602WAT      O50047   9.610   6.230   1.650
16602WAT     H150048   9.574   6.142   1.620
16602WAT     H250049   9.682   6.260   1.588
16603WAT      O50050   3.012   1.495   9.641
16603WAT     H150051   3.048   1.408   9.607
16603WAT     H250052   2.965   1.480   9.728
16604WAT      O50053   4.979   1.929   7.207
16604WAT     H150054   4.905   1.902   7.268
16604WAT     H250055   5.043   1.853   7.197
16605WAT      O50056   4.519   0.112   5.701
16605WAT     H150057   4.609   0.146   5.673
16605WAT     H250058   4.489   0.161   5.783
16606WAT      O50059   5.246   9.819   0.932
16606WAT     H150060   5.168   9.763   0.904
16606WAT     H250061   5.291   9.776   1.011
16607WAT      O50062   2.838   1.611   0.080
16607WAT     H150063   2.928   1.596   0.122
16607WAT     H250064   2.836   1.565  -0.009
16608WAT      O50065   2.923   3.294   3.295
16608WAT     H150066   2.985   3.309   3.218
16608WAT     H250067   2.831   3.325   3.271
16609WAT      O50068   8.046   3.688   8.820
16609WAT     H150069   8.105   3.745   8.762
16609WAT     H250070   7.999   3.746   8.887
16610WAT      O50071   0.022   5.308   3.514
16610WAT     H150072   0.035   5.329   3.417
16610WAT     H250073  -0.066   5.263   3.527
16611WAT      O50074   6.779   6.247   0.327
16611WAT     H150075   6.776   6.313   0.403
16611WAT     H250076   6.760   6.295   0.241
16612WAT      O50077   6.352   0.097   7.489
16612WAT     H150078   6.325   0.180   7.439
16612WAT     H250079   6.426   0.119   7.552
16613WAT      O50080   3.014   2.933   3.035
16613WAT     H150081   3.064   3.002   2.983
16613WAT     H250082   3.079   2.868   3.074
16614WAT      O50083   8.800   2.329   3.966
16614WAT     H150084   8.834   2.282   4.048
16614WAT     H250085   8.707   2.299   3.946
16615WAT      O50086   6.809   2.398   9.013
16615WAT     H150087   6.902   2.426   8.992
16615WAT     H250088   6.809   2.307   9.055
16616WAT      O50089   8.744   1.465   7.817
16616WAT     H150090   8.800   1.539   7.780
16616WAT     H250091   8.648   1.495   7.822
16617WAT      O50092   0.867   1.438   1.987
16617WAT     H150093   0.818   1.521   2.013
16617WAT     H250094   0.805   1.360   1.993
16618WAT      O50095   9.236   4.855   6.366
16618WAT     H150096   9.164   4.811   6.419
16618WAT     H250097   9.313   4.791   6.356
16619WAT      O50098   4.584   2.108   4.577
16619WAT     H150099   4.658   2.047   4.606
16619WAT     H250100   4.501   2.087   4.630
16620WAT      O50101   4.036   6.633   2.467
16620WAT     H150102   3.980   6.555   2.496
16620WAT     H250103   4.115   6.600   2.414
16621WAT      O50104   4.684   2.806   4.907
16621WAT     H150105   4.616   2.737   4.881
16621WAT     H250106   4.667   2.836   5.001
16622WAT      O50107   0.877   7.073   1.702
16622WAT     H150108   0.786   7.049   1.735
16622WAT     H250109   0.888   7.040   1.608
16623WAT      O50110   9.169   8.723   4.218
16623WAT     H150111   9.119   8.648   4.175
16623WAT     H250112   9.114   8.807   4.210
16624WAT      O50113   7.102   9.772   3.444
16624WAT     H150114   7.022   9.832   3.442
16624WAT     H250115   7.184   9.826   3.429
16625WAT      O50116   3.440   5.174   0.329
16625WAT     H150117   3.368   5.190   0.261
16625WAT     H250118   3.525   5.150   0.283
16626WAT      O50119   3.389   2.739   4.467
16626WAT     H150120   3.313   2.799   4.443
16626WAT     H250121   3.400   2.736   4.566
16627WAT      O50122   5.175   6.350   7.344
16627WAT     H150123   5.167   6.252   7.328
16627WAT     H250124   5.219   6.393   7.265
16628WAT      O50125   1.424   9.782   4.800
16628WAT     H150126   1.403   9.800   4.896
16628WAT     H250127   1.349   9.729   4.759
16629WAT      O50128   4.222   3.883   2.969
16629WAT     H150129   4.264   3.804   2.925
16629WAT     H250130   4.251   3.967   2.922
16630WAT      O50131   9.253   7.038   1.683
16630WAT     H150132   9.337   7.045   1.737
16630WAT     H250133   9.181   6.998   1.740
16631WAT      O50134   3.102   3.575   2.450
16631WAT     H150135   3.058   3.493   2.486
16631WAT     H250136   3.173   3.550   2.385
16632WAT      O50137   8.118   8.320   2.278
16632WAT     H150138   8.086   8.247   2.338
16632WAT     H250139   8.087   8.302   2.184
16633WAT      O50140   1.693   0.067   8.699
16633WAT     H150141   1.702   0.165   8.717
16633WAT     H250142   1.625   0.027   8.760
16634WAT      O50143   3.377   7.349   1.557
16634WAT     H150144   3.335   7.383   1.473
16634WAT     H250145   3.473   7.377   1.559
16635WAT      O50146   8.993   2.755   5.758
16635WAT     H150147   8.983   2.676   5.820
16635WAT     H250148   8.937   2.830   5.790
16636WAT      O50149   7.733   9.266   4.414
16636WAT     H150150   7.676   9.190   4.383
16636WAT     H250151   7.805   9.283   4.347
16637WAT      O50152   5.176   4.063   9.376
16637WAT     H150153   5.143   3.987   9.320
16637WAT     H250154   5.275   4.072   9.366
16638WAT      O50155   1.726   8.783   9.402
16638WAT     H150156   1.802   8.719   9.409
16638WAT     H250157   1.651   8.752   9.462
16639WAT      O50158   6.662   2.328   2.588
16639WAT     H150159   6.704   2.247   2.547
16639WAT     H250160   6.696   2.410   2.542
16640WAT      O50161   9.640   9.072   4.451
16640WAT     H150162   9.595   8.987   4.479
16640WAT     H250163   9.599   9.148   4.501
16641WAT      O50164   7.497   2.905   7.271
16641WAT     H150165   7.488   2.852   7.355
16641WAT     H250166   7.594   2.928   7.256
16642WAT      O50167   6.534   2.191   0.811
16642WAT     H150168   6.626   2.154   0.823
16642WAT     H250169   6.531   2.247   0.728
16643WAT      O50170   2.483   4.315   7.009
16643WAT     H150171   2.524   4.232   6.972
16643WAT     H250172   2.502   4.392   6.949
16644WAT      O50173   5.719   0.375   9.635
16644WAT     H150174   5.656   0.453   9.623
16644WAT     H250175   5.713   0.341   9.729
16645WAT      O50176   6.088   5.827   7.381
16645WAT     H150177   6.183   5.856   7.378
16645WAT     H250178   6.083   5.731   7.406
16646WAT      O50179   7.499   3.854   7.861
16646WAT     H150180   7.435   3.931   7.868
16646WAT     H250181   7.454   3.770   7.890
16647WAT      O50182   3.572   2.532   6.016
16647WAT     H150183   3.635   2.552   5.940
16647WAT     H250184   3.613   2.563   6.102
16648WAT      O50185   3.752   0.252   3.991
16648WAT     H150186   3.755   0.258   3.891
16648WAT     H250187   3.657   0.253   4.021
16649WAT      O50188   1.304   5.075   6.189
16649WAT     H150189   1.323   5.039   6.281
16649WAT     H250190   1.205   5.079   6.175
16650WAT      O50191   6.457   7.173   7.135
16650WAT     H150192   6.515   7.223   7.200
16650WAT     H250193   6.502   7.088   7.110
16651WAT      O50194   8.905   0.651   1.585
16651WAT     H150195   8.891   0.591   1.663
16651WAT     H250196   8.918   0.745   1.617
16652WAT      O50197   2.424   8.092   3.774
16652WAT     H150198   2.459   7.999   3.762
16652WAT     H250199   2.332   8.098   3.736
16653WAT      O50200   1.223   1.243   7.334
16653WAT     H150201   1.270   1.197   7.409
16653WAT     H250202   1.128   1.211   7.329
16654WAT      O50203   4.586   0.682   7.635
16654WAT     H150204   4.648   0.731   7.573
16654WAT     H250205   4.494   0.680   7.594
16655WAT      O50206   8.486   2.737   8.720
16655WAT     H150207   8.445   2.683   8.647
16655WAT     H250208   8.413   2.774   8.778
16656WAT      O50209   3.798   3.034   0.965
16656WAT     H150210   3.703   3.038   0.996
16656WAT     H250211   3.805   2.972   0.887
16657WAT      O50212   6.411   9.053   7.896
16657WAT     H150213   6.363   9.023   7.814
16657WAT     H250214   6.419   8.977   7.960
16658WAT      O50215   7.978   4.829   3.962
16658WAT     H150216   7.979   4.736   3.999
16658WAT     H250217   8.065   4.846   3.915
16659WAT      O50218   8.372   4.339   6.015
16659WAT     H150219   8.311   4.314   5.940
16659WAT     H250220   8.467   4.325   5.987
16660WAT      O50221   7.415   3.180   7.801
16660WAT     H150222   7.461   3.157   7.886
16660WAT     H250223   7.435   3.275   7.776
16661WAT      O50224   4.014   5.772   3.818
16661WAT     H150225   3.942   5.831   3.783
16661WAT     H250226   4.035   5.701   3.750
16662WAT      O50227   0.599   2.128   0.294
16662WAT     H150228   0.649   2.213   0.283
16662WAT     H250229   0.663   2.054   0.315
16663WAT      O50230   8.071   5.728   9.312
16663WAT     H150231   8.014   5.653   9.346
16663WAT     H250232   8.019   5.782   9.246
16664WAT      O50233   5.218   3.684   6.526
16664WAT     H150234   5.314   3.710   6.515
16664WAT     H250235   5.191   3.698   6.621
16665WAT      O50236   5.889   4.740   3.690
16665WAT     H150237   5.915   4.749   3.786
16665WAT     H250238   5.799   4.781   3.676
16666WAT      O50239   1.557   3.347   4.990
16666WAT     H150240   1.622   3.278   4.958
16666WAT     H250241   1.466   3.306   4.999
16667WAT      O50242   6.220   4.675   2.589
16667WAT     H150243   6.280   4.670   2.669
16667WAT     H250244   6.127   4.654   2.616
16668WAT      O50245   2.550   0.091   3.233
16668WAT     H150246   2.534   0.101   3.331
16668WAT     H250247   2.569  -0.004   3.211
16669WAT      O50248   8.895   7.006   4.673
16669WAT     H150249   8.859   7.090   4.713
16669WAT     H250250   8.978   7.025   4.621
16670WAT      O50251   2.415   7.131   3.477
16670WAT     H150252   2.505   7.089   3.469
16670WAT     H250253   2.366   7.090   3.554
16671WAT      O50254   0.046   2.667   7.950
16671WAT     H150255  -0.025   2.689   7.882
16671WAT     H250256   0.004   2.661   8.040
16672WAT      O50257   1.362   7.518   4.086
16672WAT     H150258   1.372   7.592   4.020
16672WAT     H250259   1.439   7.454   4.076
16673WAT      O50260   4.323   4.607   7.942
16673WAT     H150261   4.408   4.628   7.991
16673WAT     H250262   4.249   4.597   8.008
16674WAT      O50263   2.988   4.120   0.446
16674WAT     H150264   2.931   4.175   0.507
16674WAT     H250265   2.986   4.159   0.354
16675WAT      O50266   3.807   3.076   8.305
16675WAT     H150267   3.740   3.004   8.285
16675WAT     H250268   3.762   3.165   8.305
16676WAT      O50269   7.047   7.045   9.466
16676WAT     H150270   7.147   7.045   9.466
16676WAT     H250271   7.014   6.972   9.407
16677WAT      O50272   3.349   0.446   0.822
16677WAT     H150273   3.432   0.400   0.791
16677WAT     H250274   3.275   0.379   0.831
16678WAT      O50275   5.862   2.863   6.042
16678WAT     H150276   5.871   2.953   6.085
16678WAT     H250277   5.886   2.870   5.945
16679WAT      O50278   2.682   4.279   2.134
16679WAT     H150279   2.720   4.284   2.042
16679WAT     H250280   2.689   4.185   2.167
16680WAT      O50281   1.899   2.880   2.973
16680WAT     H150282   1.890   2.910   2.878
16680WAT     H250283   1.921   2.782   2.974
16681WAT      O50284   7.171   3.083   5.183
16681WAT     H150285   7.256   3.035   5.163
16681WAT     H250286   7.134   3.122   5.098
16682WAT      O50287   8.830   0.348   9.631
16682WAT     H150288   8.793   0.261   9.599
16682WAT     H250289   8.915   0.368   9.584
16683WAT      O50290   1.678   7.913   8.737
16683WAT     H150291   1.728   7.913   8.824
16683WAT     H250292   1.668   8.007   8.704
16684WAT      O50293   8.432   4.934   0.723
16684WAT     H150294   8.531   4.922   0.718
16684WAT     H250295   8.396   4.955   0.632
16685WAT      O50296   6.185   5.399   5.183
16685WAT     H150297   6.176   5.307   5.145
16685WAT     H250298   6.215   5.394   5.278
16686WAT      O50299   2.956   1.466   1.033
16686WAT     H150300   3.040   1.451   1.085
16686WAT     H250301   2.975   1.451   0.935
16687WAT      O50302   3.980   8.628   3.069
16687WAT     H150303   3.986   8.679   2.983
16687WAT     H250304   4.064   8.576   3.082
16688WAT      O50305   1.894   1.988   1.140
16688WAT     H150306   1.881   2.000   1.238
16688WAT     H250307   1.936   2.071   1.102
16689WAT      O50308   9.714   7.258   9.088
16689WAT     H150309   9.676   7.182   9.034
16689WAT     H250310   9.747   7.329   9.026
16690WAT      O50311   0.998   1.487   7.008
16690WAT     H150312   0.928   1.487   6.937
16690WAT     H250313   1.053   1.403   7.002
16691WAT      O50314   9.370   6.320   5.913
16691WAT     H150315   9.327   6.373   5.986
16691WAT     H250316   9.312   6.241   5.891
16692WAT      O50317   4.649   5.422   6.034
16692WAT     H150318   4.556   5.457   6.048
16692WAT     H250319   4.660   5.393   5.939
16693WAT      O50320   1.998   5.762   2.354
16693WAT     H150321   2.054   5.796   2.279
16693WAT     H250322   2.055   5.709   2.418
16694WAT      O50323   8.920   1.934   5.598
16694WAT     H150324   8.942   1.918   5.694
16694WAT     H250325   8.838   1.991   5.591
16695WAT      O50326   2.337   9.181   2.731
16695WAT     H150327   2.293   9.240   2.663
16695WAT     H250328   2.392   9.236   2.793
16696WAT      O50329   9.260   1.025   5.419
16696WAT     H150330   9.229   1.093   5.485
16696WAT     H250331   9.327   1.065   5.357
16697WAT      O50332   2.751   5.939   1.472
16697WAT     H150333   2.820   5.866   1.469
16697WAT     H250334   2.696   5.930   1.555
16698WAT      O50335   7.092   8.339   0.293
16698WAT     H150336   7.113   8.379   0.203
16698WAT     H250337   7.152   8.380   0.362
16699WAT      O50338   9.652   3.159   0.108
16699WAT     H150339   9.587   3.228   0.078
16699WAT     H250340   9.740   3.201   0.126
16700WAT      O50341   8.482   7.123   5.133
16700WAT     H150342   8.406   7.175   5.172
16700WAT     H250343   8.493   7.038   5.184
16701WAT      O50344   2.017   3.265   8.881
16701WAT     H150345   1.956   3.186   8.891
16701WAT     H250346   1.969   3.337   8.832
16702WAT      O50347   4.861   2.057   5.566
16702WAT     H150348   4.845   2.155   5.556
16702WAT     H250349   4.776   2.011   5.593
16703WAT      O50350   2.753   6.338   4.082
16703WAT     H150351   2.820   6.412   4.074
16703WAT     H250352   2.661   6.376   4.077
16704WAT      O50353   0.399   5.001   9.099
16704WAT     H150354   0.354   5.048   9.024
16704WAT     H250355   0.337   4.934   9.139
16705WAT      O50356   9.229   0.301   6.559
16705WAT     H150357   9.300   0.371   6.549
16705WAT     H250358   9.258   0.232   6.625
16706WAT      O50359   8.834   3.590   7.307
16706WAT     H150360   8.783   3.646   7.241
16706WAT     H250361   8.813   3.622   7.400
16707WAT      O50362   5.959   7.353   4.614
16707WAT     H150363   6.041   7.318   4.569
16707WAT     H250364   5.879   7.304   4.580
16708WAT      O50365   0.313   7.914   5.217
16708WAT     H150366   0.254   7.989   5.246
16708WAT     H250367   0.394   7.951   5.171
16709WAT      O50368   8.252   4.754   7.160
16709WAT     H150369   8.201   4.739   7.244
16709WAT     H250370   8.250   4.851   7.136
16710WAT      O50371   5.342   7.990   9.706
16710WAT     H150372   5.427   7.993   9.653
16710WAT     H250373   5.365   7.984   9.804
16711WAT      O50374   5.237   2.800   2.820
16711WAT     H150375   5.158   2.845   2.779
16711WAT     H250376   5.294   2.867   2.867
16712WAT      O50377   2.540   7.262   6.486
16712WAT     H150378   2.476   7.210   6.542
16712WAT     H250379   2.490   7.312   6.415
16713WAT      O50380   9.107   4.470   6.583
16713WAT     H150381   9.078   4.463   6.679
16713WAT     H250382   9.207   4.467   6.579
16714WAT      O50383   7.603   5.448   7.968
16714WAT     H150384   7.542   5.525   7.951
16714WAT     H250385   7.668   5.440   7.892
16715WAT      O50386   5.153   5.668   6.618
16715WAT     H150387   5.107   5.633   6.700
16715WAT     H250388   5.234   5.721   6.645
16716WAT      O50389   7.353   1.352   8.372
16716WAT     H150390   7.341   1.257   8.401
16716WAT     H250391   7.406   1.355   8.287
16717WAT      O50392   3.133   4.974   0.596
16717WAT     H150393   3.102   4.995   0.689
16717WAT     H250394   3.232   4.985   0.590
16718WAT      O50395   5.431   4.917   7.372
16718WAT     H150396   5.508   4.905   7.434
16718WAT     H250397   5.348   4.878   7.413
16719WAT      O50398   2.608   3.350   6.252
16719WAT     H150399   2.586   3.448   6.253
16719WAT     H250400   2.703   3.338   6.225
16720WAT      O50401   8.862   8.724   4.646
16720WAT     H150402   8.799   8.769   4.583
16720WAT     H250403   8.811   8.690   4.726
16721WAT      O50404   6.394   5.524   0.683
16721WAT     H150405   6.420   5.598   0.744
16721WAT     H250406   6.312   5.549   0.632
16722WAT      O50407   1.356   7.831   0.956
16722WAT     H150408   1.341   7.857   0.860
16722WAT     H250409   1.425   7.758   0.960
16723WAT      O50410   8.591   2.290   1.686
16723WAT     H150411   8.527   2.241   1.627
16723WAT     H250412   8.672   2.233   1.702
16724WAT      O50413   7.189   1.390   7.316
16724WAT     H150414   7.174   1.479   7.275
16724WAT     H250415   7.240   1.400   7.401
16725WAT      O50416   8.062   3.170   3.958
16725WAT     H150417   8.050   3.255   4.010
16725WAT     H250418   8.160   3.147   3.956
16726WAT      O50419   2.310   2.138   5.881
16726WAT     H150420   2.251   2.083   5.822
16726WAT     H250421   2.293   2.114   5.977
16727WAT      O50422   0.393   1.709   8.301
16727WAT     H150423   0.364   1.805   8.302
16727WAT     H250424   0.315   1.650   8.280
16728WAT      O50425   0.062   6.236   2.319
16728WAT     H150426  -0.029   6.255   2.355
16728WAT     H250427   0.130   6.294   2.364
16729WAT      O50428   8.374   8.906   7.092
16729WAT     H150429   8.309   8.846   7.138
16729WAT     H250430   8.367   8.998   7.130
16730WAT      O50431   7.662   9.034   1.693
16730WAT     H150432   7.704   8.977   1.763
16730WAT     H250433   7.630   9.119   1.734
16731WAT      O50434   2.017   6.851   8.867
16731WAT     H150435   2.111   6.848   8.832
16731WAT     H250436   1.954   6.821   8.795
16732WAT      O50437   6.214   5.555   9.539
16732WAT     H150438   6.187   5.467   9.502
16732WAT     H250439   6.223   5.622   9.465
16733WAT      O50440   3.906   2.935   5.818
16733WAT     H150441   3.884   2.872   5.744
16733WAT     H250442   3.961   2.887   5.887
16734WAT      O50443   0.789   1.743   5.130
16734WAT     H150444   0.819   1.722   5.036
16734WAT     H250445   0.791   1.841   5.145
16735WAT      O50446   6.056   9.792   6.064
16735WAT     H150447   6.077   9.856   5.990
16735WAT     H250448   6.099   9.704   6.045
16736WAT      O50449   4.638   1.423   9.809
16736WAT     H150450   4.612   1.438   9.904
16736WAT     H250451   4.575   1.473   9.749
16737WAT      O50452   9.375   9.159   0.036
16737WAT     H150453   9.424   9.245   0.048
16737WAT     H250454   9.411   9.091   0.101
16738WAT      O50455   4.691   8.042   1.462
16738WAT     H150456   4.779   8.046   1.414
16738WAT     H250457   4.619   8.079   1.403
16739WAT      O50458   1.517   0.299   7.406
16739WAT     H150459   1.486   0.233   7.474
16739WAT     H250460   1.448   0.371   7.395
16740WAT      O50461   8.073   8.791   6.849
16740WAT     H150462   8.120   8.707   6.877
16740WAT     H250463   8.107   8.821   6.760
16741WAT      O50464   6.143   1.825   3.578
16741WAT     H150465   6.171   1.877   3.497
16741WAT     H250466   6.125   1.731   3.553
16742WAT      O50467   5.520   5.454   5.207
16742WAT     H150468   5.528   5.361   5.245
16742WAT     H250469   5.607   5.481   5.166
16743WAT      O50470   7.869   1.001   9.264
16743WAT     H150471   7.801   1.057   9.217
16743WAT     H250472   7.920   0.947   9.196
16744WAT      O50473   3.712   9.380   4.805
16744WAT     H150474   3.623   9.358   4.765
16744WAT     H250475   3.783   9.326   4.759
16745WAT      O50476   4.448   4.814   9.473
16745WAT     H150477   4.470   4.878   9.399
16745WAT     H250478   4.423   4.866   9.555
16746WAT      O50479   3.165   9.406   9.463
16746WAT     H150480   3.255   9.451   9.464
16746WAT     H250481   3.120   9.420   9.552
16747WAT      O50482   8.030   6.111   0.607
16747WAT     H150483   8.124   6.121   0.574
16747WAT     H250484   8.027   6.128   0.705
16748WAT      O50485   0.851   9.351   6.295
16748WAT     H150486   0.822   9.322   6.386
16748WAT     H250487   0.939   9.397   6.302
16749WAT      O50488   2.792   4.335   6.717
16749WAT     H150489   2.877   4.375   6.683
16749WAT     H250490   2.721   4.344   6.648
16750WAT      O50491   0.599   6.369   6.680
16750WAT     H150492   0.524   6.305   6.695
16750WAT     H250493   0.608   6.386   6.582
16751WAT      O50494   5.718   8.070   6.210
16751WAT     H150495   5.727   8.087   6.112
16751WAT     H250496   5.623   8.044   6.231
16752WAT      O50497   8.917   8.564   5.013
16752WAT     H150498   8.969   8.648   4.998
16752WAT     H250499   8.821   8.580   4.990
16753WAT      O50500   8.162   7.761   9.288
16753WAT     H150501   8.191   7.740   9.381
16753WAT     H250502   8.109   7.847   9.288
16754WAT      O50503   7.064   3.006   1.028
16754WAT     H150504   7.090   2.914   1.059
16754WAT     H250505   7.005   3.048   1.098
16755WAT      O50506   4.210   8.863   1.595
16755WAT     H150507   4.171   8.946   1.555
16755WAT     H250508   4.138   8.795   1.610
16756WAT      O50509   0.440   0.935   2.091
16756WAT     H150510   0.395   0.861   2.141
16756WAT     H250511   0.486   0.898   2.011
16757WAT      O50512   4.414   1.494   5.782
16757WAT     H150513   4.404   1.434   5.702
16757WAT     H250514   4.336   1.555   5.788
16758WAT      O50515   7.972   2.784   0.714
16758WAT     H150516   7.959   2.705   0.773
16758WAT     H250517   8.019   2.755   0.630
16759WAT      O50518   5.771   4.564   1.101
16759WAT     H150519   5.718   4.557   1.016
16759WAT     H250520   5.786   4.473   1.138
16760WAT      O50521   6.976   1.391   9.490
16760WAT     H150522   7.042   1.326   9.527
16760WAT     H250523   6.937   1.356   9.405
16761WAT      O50524   4.683   7.029   0.670
16761WAT     H150525   4.724   6.993   0.753
16761WAT     H250526   4.754   7.041   0.600
16762WAT      O50527   7.202   8.717   4.705
16762WAT     H150528   7.203   8.739   4.607
16762WAT     H250529   7.114   8.744   4.744
16763WAT      O50530   6.886   8.619   2.257
16763WAT     H150531   6.878   8.562   2.175
16763WAT     H250532   6.861   8.713   2.235
16764WAT      O50533   8.695   2.906   9.054
16764WAT     H150534   8.721   2.973   8.984
16764WAT     H250535   8.611   2.936   9.099
16765WAT      O50536   7.736   0.960   6.077
16765WAT     H150537   7.741   0.867   6.042
16765WAT     H250538   7.745   1.025   6.001
16766WAT      O50539   7.682   9.711   1.216
16766WAT     H150540   7.682   9.678   1.310
16766WAT     H250541   7.775   9.713   1.181
16767WAT      O50542   6.152   5.911   0.889
16767WAT     H150543   6.167   5.972   0.811
16767WAT     H250544   6.134   5.819   0.857
16768WAT      O50545   9.518   9.149   7.109
16768WAT     H150546   9.554   9.158   7.202
16768WAT     H250547   9.526   9.236   7.061
16769WAT      O50548   9.448   4.300   5.399
16769WAT     H150549   9.468   4.292   5.497
16769WAT     H250550   9.487   4.384   5.364
16770WAT      O50551   0.530   5.883   1.998
16770WAT     H150552   0.541   5.971   2.044
16770WAT     H250553   0.529   5.810   2.066
16771WAT      O50554   4.621   0.032   6.496
16771WAT     H150555   4.678   0.114   6.494
16771WAT     H250556   4.527   0.057   6.522
16772WAT      O50557   7.868   6.080   3.403
16772WAT     H150558   7.827   6.111   3.317
16772WAT     H250559   7.880   6.158   3.464
16773WAT      O50560   5.443   6.107   3.829
16773WAT     H150561   5.535   6.138   3.803
16773WAT     H250562   5.450   6.024   3.884
16774WAT      O50563   0.591   1.467   7.207
16774WAT     H150564   0.552   1.426   7.289
16774WAT     H250565   0.617   1.394   7.143
16775WAT      O50566   1.712   0.531   8.629
16775WAT     H150567   1.743   0.474   8.553
16775WAT     H250568   1.782   0.600   8.651
16776WAT      O50569   0.888   5.452   2.417
16776WAT     H150570   0.897   5.388   2.341
16776WAT     H250571   0.974   5.456   2.468
16777WAT      O50572   1.061   0.465   8.573
16777WAT     H150573   1.090   0.517   8.654
16777WAT     H250574   1.062   0.524   8.493
16778WAT      O50575   6.135   2.403   5.460
16778WAT     H150576   6.183   2.491   5.461
16778WAT     H250577   6.176   2.344   5.390
16779WAT      O50578   7.340   1.665   3.050
16779WAT     H150579   7.393   1.730   3.106
16779WAT     H250580   7.372   1.669   2.956
16780WAT      O50581   8.186   6.026   6.673
16780WAT     H150582   8.216   6.120   6.693
16780WAT     H250583   8.105   6.029   6.614
16781WAT      O50584   9.180   4.556   2.279
16781WAT     H150585   9.244   4.545   2.355
16781WAT     H250586   9.129   4.641   2.291
16782WAT      O50587   5.943   0.872   4.928
16782WAT     H150588   5.868   0.870   4.994
16782WAT     H250589   5.968   0.966   4.907
16783WAT      O50590   9.600   7.231   5.382
16783WAT     H150591   9.550   7.168   5.441
16783WAT     H250592   9.547   7.315   5.371
16784WAT      O50593   1.622   8.176   3.500
16784WAT     H150594   1.619   8.217   3.409
16784WAT     H250595   1.651   8.245   3.567
16785WAT      O50596   8.454   7.498   4.840
16785WAT     H150597   8.444   7.573   4.774
16785WAT     H250598   8.494   7.419   4.794
16786WAT      O50599   4.169   2.875   2.184
16786WAT     H150600   4.077   2.915   2.182
16786WAT     H250601   4.222   2.918   2.257
16787WAT      O50602   7.155   3.557   2.221
16787WAT     H150603   7.165   3.528   2.126
16787WAT     H250604   7.094   3.495   2.269
16788WAT      O50605   8.215   0.109   6.571
16788WAT     H150606   8.181   0.045   6.640
16788WAT     H250607   8.283   0.170   6.613
16789WAT      O50608   1.698   0.615   1.712
16789WAT     H150609   1.716   0.659   1.801
16789WAT     H250610   1.622   0.662   1.667
16790WAT      O50611   6.194   6.708   4.816
16790WAT     H150612   6.145   6.627   4.785
16790WAT     H250613   6.232   6.692   4.907
16791WAT      O50614   2.661   9.257   2.441
16791WAT     H150615   2.619   9.337   2.483
16791WAT     H250616   2.697   9.282   2.350
16792WAT      O50617   0.188   1.774   0.648
16792WAT     H150618   0.275   1.730   0.670
16792WAT     H250619   0.130   1.776   0.730
16793WAT      O50620   5.344   8.338   2.417
16793WAT     H150621   5.411   8.272   2.386
16793WAT     H250622   5.388   8.404   2.478
16794WAT      O50623   0.349   6.455   2.715
16794WAT     H150624   0.304   6.465   2.804
16794WAT     H250625   0.376   6.545   2.681
16795WAT      O50626   4.549   6.743   8.503
16795WAT     H150627   4.483   6.797   8.554
16795WAT     H250628   4.504   6.665   8.461
16796WAT      O50629   2.330   0.761   3.520
16796WAT     H150630   2.369   0.832   3.462
16796WAT     H250631   2.369   0.767   3.612
16797WAT      O50632   4.133   8.295   5.069
16797WAT     H150633   4.067   8.360   5.107
16797WAT     H250634   4.087   8.209   5.048
16798WAT      O50635   8.838   8.651   9.483
16798WAT     H150636   8.854   8.742   9.521
16798WAT     H250637   8.919   8.594   9.497
16799WAT      O50638   5.100   3.553   8.921
16799WAT     H150639   5.169   3.609   8.967
16799WAT     H250640   5.057   3.606   8.848
16800WAT      O50641   8.284   9.239   1.517
16800WAT     H150642   8.366   9.266   1.466
16800WAT     H250643   8.305   9.160   1.575
16801WAT      O50644   2.312   7.430   2.377
16801WAT     H150645   2.406   7.427   2.345
16801WAT     H250646   2.310   7.411   2.475
16802WAT      O50647   7.339   4.281   6.780
16802WAT     H150648   7.322   4.210   6.712
16802WAT     H250649   7.402   4.349   6.742
16803WAT      O50650   5.232   4.061   0.902
16803WAT     H150651   5.287   4.016   0.973
16803WAT     H250652   5.226   4.002   0.822
16804WAT      O50653   4.851   6.041   8.602
16804WAT     H150654   4.759   6.043   8.642
16804WAT     H250655   4.843   6.028   8.503
16805WAT      O50656   5.643   7.006   3.707
16805WAT     H150657   5.619   6.936   3.774
16805WAT     H250658   5.560   7.039   3.663
16806WAT      O50659   9.818   4.218   5.236
16806WAT     H150660   9.773   4.290   5.184
16806WAT     H250661   9.749   4.169   5.290
16807WAT      O50662   5.995   2.812   4.454
16807WAT     H150663   5.969   2.716   4.445
16807WAT     H250664   6.014   2.850   4.364
16808WAT      O50665   1.196   8.224   4.888
16808WAT     H150666   1.203   8.265   4.797
16808WAT     H250667   1.121   8.268   4.938
16809WAT      O50668   8.230   8.823   1.385
16809WAT     H150669   8.195   8.859   1.472
16809WAT     H250670   8.324   8.854   1.372
16810WAT      O50671   2.318   4.486   8.814
16810WAT     H150672   2.374   4.432   8.877
16810WAT     H250673   2.364   4.494   8.726
16811WAT      O50674   9.563   5.240   1.162
16811WAT     H150675   9.492   5.171   1.177
16811WAT     H250676   9.539   5.295   1.082
16812WAT      O50677   5.036   5.895   8.736
16812WAT     H150678   4.977   5.942   8.671
16812WAT     H250679   4.986   5.877   8.820
16813WAT      O50680   2.335   2.031   1.506
16813WAT     H150681   2.346   2.069   1.598
16813WAT     H250682   2.272   1.953   1.509
16814WAT      O50683   1.314   1.722   4.509
16814WAT     H150684   1.356   1.637   4.542
16814WAT     H250685   1.289   1.779   4.587
16815WAT      O50686   0.591   8.793   4.041
16815WAT     H150687   0.575   8.722   3.972
16815WAT     H250688   0.507   8.846   4.054
16816WAT      O50689   7.652   4.900   5.030
16816WAT     H150690   7.600   4.824   4.992
16816WAT     H250691   7.744   4.868   5.053
16817WAT      O50692   2.597   2.282   6.852
16817WAT     H150693   2.574   2.232   6.768
16817WAT     H250694   2.696   2.283   6.864
16818WAT      O50695   9.184   7.163   5.235
16818WAT     H150696   9.089   7.164   5.265
16818WAT     H250697   9.238   7.107   5.298
16819WAT      O50698   4.040   0.997   4.454
16819WAT     H150699   4.003   0.985   4.546
16819WAT     H250700   3.974   0.963   4.387
16820WAT      O50701   0.123   0.215   3.070
16820WAT     H150702   0.055   0.241   3.139
16820WAT     H250703   0.166   0.128   3.097
16821WAT      O50704   8.021   4.835   3.640
16821WAT     H150705   7.973   4.922   3.632
16821WAT     H250706   8.096   4.843   3.706
16822WAT      O50707   5.372   8.554   7.033
16822WAT     H150708   5.412   8.511   7.114
16822WAT     H250709   5.307   8.492   6.991
16823WAT      O50710   7.517   2.371   7.575
16823WAT     H150711   7.528   2.386   7.477
16823WAT     H250712   7.482   2.278   7.591
16824WAT      O50713   0.014   2.726   3.870
16824WAT     H150714   0.044   2.648   3.816
16824WAT     H250715   0.093   2.775   3.906
16825WAT      O50716   3.269   4.707   8.414
16825WAT     H150717   3.212   4.766   8.357
16825WAT     H250718   3.302   4.630   8.360
16826WAT      O50719   2.122   0.826   9.192
16826WAT     H150720   2.066   0.905   9.216
16826WAT     H250721   2.162   0.840   9.101
16827WAT      O50722   1.247   1.062   3.852
16827WAT     H150723   1.300   1.147   3.849
16827WAT     H250724   1.253   1.023   3.944
16828WAT      O50725   6.842   7.115   7.975
16828WAT     H150726   6.776   7.042   7.991
16828WAT     H250727   6.914   7.111   8.044
16829WAT      O50728   2.010   1.746   3.111
16829WAT     H150729   2.057   1.720   3.027
16829WAT     H250730   2.054   1.827   3.150
16830WAT      O50731   1.309   7.898   3.616
16830WAT     H150732   1.317   7.997   3.618
16830WAT     H250733   1.256   7.867   3.694
16831WAT      O50734   1.879   3.213   7.459
16831WAT     H150735   1.953   3.260   7.506
16831WAT     H250736   1.916   3.136   7.407
16832WAT      O50737   0.768   3.489   8.136
16832WAT     H150738   0.723   3.418   8.081
16832WAT     H250739   0.784   3.454   8.228
16833WAT      O50740   8.956   0.313   2.754
16833WAT     H150741   8.895   0.378   2.708
16833WAT     H250742   9.043   0.358   2.774
16834WAT      O50743   7.231   3.163   3.240
16834WAT     H150744   7.152   3.101   3.244
16834WAT     H250745   7.217   3.230   3.168
16835WAT      O50746   8.298   0.819   9.334
16835WAT     H150747   8.294   0.912   9.371
16835WAT     H250748   8.239   0.759   9.388
16836WAT      O50749   5.043   2.469   1.381
16836WAT     H150750   5.060   2.554   1.430
16836WAT     H250751   4.970   2.418   1.427
16837WAT      O50752   9.121   5.822   9.212
16837WAT     H150753   9.120   5.856   9.118
16837WAT     H250754   9.123   5.899   9.276
16838WAT      O50755   4.106   2.468   1.782
16838WAT     H150756   4.018   2.506   1.752
16838WAT     H250757   4.112   2.372   1.753
16839WAT      O50758   2.459   8.045   6.512
16839WAT     H150759   2.505   8.007   6.592
16839WAT     H250760   2.469   8.144   6.511
16840WAT      O50761   0.787   7.202   3.082
16840WAT     H150762   0.744   7.229   3.168
16840WAT     H250763   0.845   7.122   3.097
16841WAT      O50764   3.565   0.107   8.181
16841WAT     H150765   3.469   0.080   8.184
16841WAT     H250766   3.593   0.122   8.087
16842WAT      O50767   4.108   5.333   8.081
16842WAT     H150768   4.051   5.360   8.004
16842WAT     H250769   4.182   5.273   8.049
16843WAT      O50770   3.096   2.370   6.112
16843WAT     H150771   3.130   2.391   6.021
16843WAT     H250772   3.114   2.274   6.134
16844WAT      O50773   6.386   1.070   9.047
16844WAT     H150774   6.384   1.102   9.141
16844WAT     H250775   6.300   1.025   9.024
16845WAT      O50776   8.634   0.594   9.648
16845WAT     H150777   8.693   0.516   9.668
16845WAT     H250778   8.598   0.584   9.555
16846WAT      O50779   7.974   9.488   7.262
16846WAT     H150780   8.028   9.455   7.338
16846WAT     H250781   7.886   9.440   7.260
16847WAT      O50782   6.246   2.781   0.242
16847WAT     H150783   6.270   2.694   0.198
16847WAT     H250784   6.327   2.819   0.285
16848WAT      O50785   6.885   9.093   8.492
16848WAT     H150786   6.963   9.040   8.459
16848WAT     H250787   6.808   9.032   8.508
16849WAT      O50788   0.283   3.331   4.723
16849WAT     H150789   0.364   3.272   4.724
16849WAT     H250790   0.243   3.334   4.814
16850WAT      O50791   1.297   8.053   7.976
16850WAT     H150792   1.222   8.047   8.042
16850WAT     H250793   1.285   8.134   7.918
16851WAT      O50794   1.601   0.162   0.719
16851WAT     H150795   1.644   0.072   0.713
16851WAT     H250796   1.642   0.224   0.652
16852WAT      O50797   7.471   2.621   0.754
16852WAT     H150798   7.495   2.563   0.832
16852WAT     H250799   7.546   2.684   0.735
16853WAT      O50800   2.945   6.709   3.575
16853WAT     H150801   2.857   6.695   3.529
16853WAT     H250802   2.993   6.786   3.532
16854WAT      O50803   4.899   7.939   5.479
16854WAT     H150804   4.804   7.970   5.477
16854WAT     H250805   4.915   7.877   5.402
16855WAT      O50806   7.439   8.610   0.773
16855WAT     H150807   7.487   8.574   0.853
16855WAT     H250808   7.464   8.557   0.692
16856WAT      O50809   9.335   8.990   5.835
16856WAT     H150810   9.397   9.068   5.832
16856WAT     H250811   9.384   8.911   5.873
16857WAT      O50812   3.245   5.981   1.652
16857WAT     H150813   3.171   6.047   1.663
16857WAT     H250814   3.280   5.955   1.742
16858WAT      O50815   9.780   8.766   5.603
16858WAT     H150816   9.802   8.708   5.525
16858WAT     H250817   9.861   8.817   5.631
16859WAT      O50818   9.627   0.077   7.337
16859WAT     H150819   9.614   0.159   7.393
16859WAT     H250820   9.589   0.092   7.246
16860WAT      O50821   8.920   7.996   3.797
16860WAT     H150822   8.948   8.040   3.882
16860WAT     H250823   8.865   8.060   3.742
16861WAT      O50824   4.632   1.706   0.017
16861WAT     H150825   4.723   1.682   0.050
16861WAT     H250826   4.578   1.744   0.092
16862WAT      O50827   1.670   3.609   4.023
16862WAT     H150828   1.725   3.693   4.031
16862WAT     H250829   1.706   3.553   3.949
16863WAT      O50830   5.565   6.007   7.114
16863WAT     H150831   5.481   5.955   7.132
16863WAT     H250832   5.595   6.052   7.199
16864WAT      O50833   4.262   5.317   5.075
16864WAT     H150834   4.301   5.407   5.094
16864WAT     H250835   4.169   5.311   5.112
16865WAT      O50836   4.414   6.213   6.900
16865WAT     H150837   4.337   6.150   6.891
16865WAT     H250838   4.419   6.246   6.994
16866WAT      O50839   0.462   6.982   5.304
16866WAT     H150840   0.487   6.928   5.223
16866WAT     H250841   0.544   7.020   5.345
16867WAT      O50842   9.250   3.544   3.415
16867WAT     H150843   9.250   3.462   3.357
16867WAT     H250844   9.161   3.590   3.408
16868WAT      O50845   5.034   8.823   1.555
16868WAT     H150846   5.093   8.788   1.628
16868WAT     H250847   5.069   8.911   1.523
16869WAT      O50848   2.894   0.948   5.212
16869WAT     H150849   2.820   0.892   5.175
16869WAT     H250850   2.902   1.032   5.159
16870WAT      O50851   8.155   5.268   2.800
16870WAT     H150852   8.116   5.188   2.844
16870WAT     H250853   8.210   5.319   2.866
16871WAT      O50854   6.470   9.600   4.445
16871WAT     H150855   6.497   9.684   4.491
16871WAT     H250856   6.552   9.554   4.410
16872WAT      O50857   0.537   9.027   2.521
16872WAT     H150858   0.490   8.972   2.589
16872WAT     H250859   0.598   9.092   2.566
16873WAT      O50860   4.837   9.262   7.262
16873WAT     H150861   4.898   9.186   7.284
16873WAT     H250862   4.805   9.252   7.167
16874WAT      O50863   0.620   9.443   8.657
16874WAT     H150864   0.594   9.536   8.630
16874WAT     H250865   0.603   9.431   8.755
16875WAT      O50866   3.715   1.317   8.426
16875WAT     H150867   3.666   1.301   8.512
16875WAT     H250868   3.667   1.388   8.373
16876WAT      O50869   4.810   8.058   0.302
16876WAT     H150870   4.891   8.113   0.285
16876WAT     H250871   4.734   8.117   0.329
16877WAT      O50872   2.244   0.169   8.667
16877WAT     H150873   2.145   0.165   8.671
16877WAT     H250874   2.274   0.179   8.572
16878WAT      O50875   3.185   5.368   1.841
16878WAT     H150876   3.267   5.382   1.786
16878WAT     H250877   3.140   5.283   1.814
16879WAT      O50878   1.676   6.147   6.374
16879WAT     H150879   1.646   6.072   6.432
16879WAT     H250880   1.773   6.164   6.389
16880WAT      O50881   8.604   3.342   8.355
16880WAT     H150882   8.699   3.325   8.384
16880WAT     H250883   8.566   3.418   8.408
16881WAT      O50884   1.577   8.415   6.030
16881WAT     H150885   1.576   8.374   5.939
16881WAT     H250886   1.659   8.471   6.041
16882WAT      O50887   2.136   4.118   5.454
16882WAT     H150888   2.094   4.052   5.516
16882WAT     H250889   2.064   4.163   5.401
16883WAT      O50890   4.564   7.805   2.522
16883WAT     H150891   4.654   7.839   2.498
16883WAT     H250892   4.503   7.882   2.542
16884WAT      O50893   3.512   9.460   9.575
16884WAT     H150894   3.488   9.396   9.648
16884WAT     H250895   3.483   9.552   9.601
16885WAT      O50896   3.486   2.886   9.801
16885WAT     H150897   3.530   2.925   9.882
16885WAT     H250898   3.413   2.823   9.830
16886WAT      O50899   2.248   0.157   4.402
16886WAT     H150900   2.312   0.215   4.453
16886WAT     H250901   2.288   0.132   4.314
16887WAT      O50902   4.197   9.774   3.983
16887WAT     H150903   4.193   9.695   3.922
16887WAT     H250904   4.112   9.826   3.976
16888WAT      O50905   7.318   1.789   9.216
16888WAT     H150906   7.229   1.835   9.211
16888WAT     H250907   7.335   1.762   9.311
16889WAT      O50908   2.529   2.213   2.419
16889WAT     H150909   2.588   2.264   2.482
16889WAT     H250910   2.480   2.142   2.469
16890WAT      O50911   8.936   3.311   6.955
16890WAT     H150912   8.884   3.258   7.022
16890WAT     H250913   8.874   3.373   6.907
16891WAT      O50914   5.086   3.898   6.424
16891WAT     H150915   5.128   3.979   6.382
16891WAT     H250916   5.156   3.829   6.441
16892WAT      O50917   0.347   8.512   7.003
16892WAT     H150918   0.342   8.443   6.931
16892WAT     H250919   0.441   8.543   7.012
16893WAT      O50920   4.779   7.390   3.372
16893WAT     H150921   4.715   7.435   3.434
16893WAT     H250922   4.786   7.293   3.395
16894WAT      O50923   0.836   5.144   7.881
16894WAT     H150924   0.915   5.094   7.918
16894WAT     H250925   0.836   5.137   7.781
16895WAT      O50926   0.047   0.719   5.277
16895WAT     H150927   0.146   0.725   5.260
16895WAT     H250928   0.018   0.798   5.330
16896WAT      O50929   0.493   1.325   3.609
16896WAT     H150930   0.398   1.346   3.584
16896WAT     H250931   0.497   1.294   3.704
16897WAT      O50932   6.334   3.415   1.529
16897WAT     H150933   6.296   3.323   1.540
16897WAT     H250934   6.433   3.409   1.518
16898WAT      O50935   3.104   5.445   7.715
16898WAT     H150936   3.056   5.370   7.761
16898WAT     H250937   3.180   5.407   7.663
16899WAT      O50938   8.864   3.408   1.047
16899WAT     H150939   8.888   3.436   0.954
16899WAT     H250940   8.864   3.308   1.052
16900WAT      O50941   6.535   3.018   9.464
16900WAT     H150942   6.586   2.943   9.507
16900WAT     H250943   6.596   3.069   9.404
16901WAT      O50944   2.829   2.472   3.988
16901WAT     H150945   2.826   2.442   3.893
16901WAT     H250946   2.913   2.525   4.004
16902WAT      O50947   5.466   2.869   8.879
16902WAT     H150948   5.407   2.940   8.842
16902WAT     H250949   5.548   2.910   8.919
16903WAT      O50950   6.426   7.390   6.715
16903WAT     H150951   6.402   7.392   6.812
16903WAT     H250952   6.465   7.478   6.688
16904WAT      O50953   8.075   7.868   1.892
16904WAT     H150954   8.050   7.803   1.820
16904WAT     H250955   8.149   7.927   1.859
16905WAT      O50956   3.675   7.646   8.592
16905WAT     H150957   3.586   7.605   8.570
16905WAT     H250958   3.705   7.703   8.515
16906WAT      O50959   0.538   4.752   4.790
16906WAT     H150960   0.462   4.816   4.802
16906WAT     H250961   0.622   4.792   4.826
16907WAT      O50962   6.261   0.615   4.737
16907WAT     H150963   6.253   0.561   4.653
16907WAT     H250964   6.249   0.712   4.716
16908WAT      O50965   2.271   1.615   5.932
16908WAT     H150966   2.324   1.535   5.962
16908WAT     H250967   2.312   1.698   5.968
16909WAT      O50968   4.795   7.576   6.162
16909WAT     H150969   4.735   7.573   6.082
16909WAT     H250970   4.804   7.670   6.194
16910WAT      O50971   0.933   7.154   7.823
16910WAT     H150972   0.995   7.129   7.749
16910WAT     H250973   0.973   7.127   7.911
16911WAT      O50974   3.181   7.004   4.757
16911WAT     H150975   3.194   7.099   4.728
16911WAT     H250976   3.119   7.001   4.836
16912WAT      O50977   1.163   4.989   3.414
16912WAT     H150978   1.253   4.953   3.389
16912WAT     H250979   1.115   4.921   3.470
16913WAT      O50980   5.368   3.482   7.468
16913WAT     H150981   5.374   3.529   7.556
16913WAT     H250982   5.289   3.516   7.417
16914WAT      O50983   6.331   3.838   6.577
16914WAT     H150984   6.403   3.858   6.644
16914WAT     H250985   6.371   3.835   6.485
16915WAT      O50986   5.102   0.081   8.856
16915WAT     H150987   5.115   0.173   8.818
16915WAT     H250988   5.189   0.047   8.891
16916WAT      O50989   3.713   4.462   8.026
16916WAT     H150990   3.757   4.461   7.936
16916WAT     H250991   3.683   4.370   8.049
16917WAT      O50992   0.992   5.295   9.168
16917WAT     H150993   0.903   5.294   9.214
16917WAT     H250994   1.031   5.387   9.175
16918WAT      O50995   6.207   4.879   9.159
16918WAT     H150996   6.259   4.830   9.229
16918WAT     H250997   6.121   4.911   9.198
16919WAT      O50998   8.545   5.978   9.133
16919WAT     H150999   8.531   6.032   9.049
16919WAT     H251000   8.522   6.034   9.212
16920WAT      O51001   9.852   5.620   8.075
16920WAT     H151002   9.879   5.585   8.165
16920WAT     H251003   9.830   5.717   8.083
16921WAT      O51004   6.010   3.112   7.688
16921WAT     H151005   6.075   3.184   7.663
16921WAT     H251006   6.044   3.063   7.768
16922WAT      O51007   0.008   2.477   6.949
16922WAT     H151008   0.003   2.389   6.902
16922WAT     H251009  -0.022   2.465   7.044
16923WAT      O51010   9.848   6.632   6.142
16923WAT     H151011   9.770   6.595   6.091
16923WAT     H251012   9.815   6.693   6.213
16924WAT      O51013   2.371   9.140   4.773
16924WAT     H151014   2.435   9.202   4.818
16924WAT     H251015   2.396   9.045   4.794
16925WAT      O51016   2.827   2.858   9.629
16925WAT     H151017   2.771   2.863   9.711
16925WAT     H251018   2.887   2.938   9.625
16926WAT      O51019   0.216   3.697   8.411
16926WAT     H151020   0.208   3.762   8.336
16926WAT     H251021   0.303   3.648   8.405
16927WAT      O51022   1.033   1.098   6.789
16927WAT     H151023   1.085   1.017   6.762
16927WAT     H251024   0.973   1.125   6.714
16928WAT      O51025   5.995   7.664   7.770
16928WAT     H151026   5.916   7.706   7.725
16928WAT     H251027   5.969   7.575   7.807
16929WAT      O51028   4.827   7.745   8.681
16929WAT     H151029   4.799   7.730   8.775
16929WAT     H251030   4.824   7.659   8.631
16930WAT      O51031   3.392   4.581   5.273
16930WAT     H151032   3.479   4.544   5.240
16930WAT     H251033   3.385   4.567   5.372
16931WAT      O51034   2.459   6.881   2.613
16931WAT     H151035   2.518   6.881   2.694
16931WAT     H251036   2.423   6.789   2.597
16932WAT      O51037   9.613   8.690   3.287
16932WAT     H151038   9.613   8.661   3.383
16932WAT     H251039   9.527   8.737   3.267
16933WAT      O51040   5.714   3.119   5.230
16933WAT     H151041   5.684   3.078   5.316
16933WAT     H251042   5.777   3.195   5.250
16934WAT      O51043   8.511   4.948   7.668
16934WAT     H151044   8.483   4.856   7.642
16934WAT     H251045   8.551   4.945   7.760
16935WAT      O51046   9.153   7.372   4.163
16935WAT     H151047   9.224   7.321   4.212
16935WAT     H251048   9.122   7.449   4.220
16936WAT      O51049   5.604   5.139   1.631
16936WAT     H151050   5.521   5.178   1.670
16936WAT     H251051   5.618   5.047   1.667
16937WAT      O51052   8.602   1.044   6.995
16937WAT     H151053   8.642   1.135   7.003
16937WAT     H251054   8.672   0.975   7.010
16938WAT      O51055   6.787   3.446   4.133
16938WAT     H151056   6.779   3.364   4.077
16938WAT     H251057   6.882   3.458   4.161
16939WAT      O51058   6.915   3.089   8.454
16939WAT     H151059   6.872   3.127   8.372
16939WAT     H251060   6.845   3.062   8.519
16940WAT      O51061   4.931   5.984   8.052
16940WAT     H151062   4.998   6.050   8.084
16940WAT     H251063   4.898   6.011   7.962
16941WAT      O51064   1.212   3.802   1.574
16941WAT     H151065   1.251   3.751   1.650
16941WAT     H251066   1.186   3.738   1.501
16942WAT      O51067   6.379   7.100   4.423
16942WAT     H151068   6.382   7.009   4.382
16942WAT     H251069   6.398   7.094   4.521
16943WAT      O51070   8.112   9.777   2.217
16943WAT     H151071   8.028   9.752   2.266
16943WAT     H251072   8.169   9.696   2.205
16944WAT      O51073   6.497   7.938   0.180
16944WAT     H151074   6.454   7.994   0.108
16944WAT     H251075   6.481   7.982   0.269
16945WAT      O51076   0.574   8.168   2.806
16945WAT     H151077   0.614   8.171   2.898
16945WAT     H251078   0.475   8.159   2.813
16946WAT      O51079   8.053   1.976   3.302
16946WAT     H151080   8.065   1.917   3.222
16946WAT     H251081   7.967   1.952   3.347
16947WAT      O51082   5.706   9.602   4.648
16947WAT     H151083   5.688   9.532   4.718
16947WAT     H251084   5.622   9.619   4.597
16948WAT      O51085   2.008   3.519   0.857
16948WAT     H151086   2.053   3.574   0.928
16948WAT     H251087   2.071   3.448   0.826
16949WAT      O51088   5.858   0.279   1.248
16949WAT     H151089   5.783   0.332   1.209
16949WAT     H251090   5.878   0.201   1.190
16950WAT      O51091   8.256   1.342   2.559
16950WAT     H151092   8.256   1.264   2.497
16950WAT     H251093   8.176   1.338   2.618
16951WAT      O51094   6.474   5.850   5.871
16951WAT     H151095   6.377   5.826   5.862
16951WAT     H251096   6.526   5.768   5.896
16952WAT      O51097   1.484   5.053   1.286
16952WAT     H151098   1.411   5.026   1.350
16952WAT     H251099   1.519   5.143   1.312
16953WAT      O51100   4.910   8.493   9.044
16953WAT     H151101   4.819   8.508   9.004
16953WAT     H251102   4.970   8.454   8.974
16954WAT      O51103   7.799   2.925   3.537
16954WAT     H151104   7.730   2.856   3.559
16954WAT     H251105   7.836   2.963   3.622
16955WAT      O51106   2.923   0.388   4.387
16955WAT     H151107   2.959   0.481   4.381
16955WAT     H251108   2.933   0.343   4.298
16956WAT      O51109   5.415   0.467   8.536
16956WAT     H151110   5.412   0.444   8.634
16956WAT     H251111   5.502   0.436   8.498
16957WAT      O51112   3.040   5.379   8.372
16957WAT     H151113   3.092   5.384   8.457
16957WAT     H251114   2.998   5.289   8.364
16958WAT      O51115   3.615   1.706   4.359
16958WAT     H151116   3.667   1.665   4.434
16958WAT     H251117   3.676   1.765   4.305
16959WAT      O51118   9.736   4.435   5.090
16959WAT     H151119   9.676   4.415   5.012
16959WAT     H251120   9.809   4.497   5.061
16960WAT      O51121   2.800   8.411   6.745
16960WAT     H151122   2.865   8.400   6.670
16960WAT     H251123   2.743   8.491   6.729
16961WAT      O51124   1.914   5.405   1.809
16961WAT     H151125   2.002   5.415   1.764
16961WAT     H251126   1.856   5.484   1.786
16962WAT      O51127   0.861   1.529   4.353
16962WAT     H151128   0.824   1.610   4.398
16962WAT     H251129   0.957   1.544   4.330
16963WAT      O51130   1.670   5.099   6.437
16963WAT     H151131   1.709   5.025   6.493
16963WAT     H251132   1.587   5.133   6.480
16964WAT      O51133   3.629   9.463   8.610
16964WAT     H151134   3.697   9.465   8.537
16964WAT     H251135   3.604   9.557   8.635
16965WAT      O51136   5.538   8.233   9.526
16965WAT     H151137   5.540   8.136   9.551
16965WAT     H251138   5.622   8.256   9.476
16966WAT      O51139   6.743   9.278   8.319
16966WAT     H151140   6.820   9.248   8.376
16966WAT     H251141   6.713   9.203   8.261
16967WAT      O51142   1.440   5.058   7.044
16967WAT     H151143   1.388   4.975   7.024
16967WAT     H251144   1.507   5.039   7.116
16968WAT      O51145   1.057   8.692   1.214
16968WAT     H151146   1.065   8.613   1.153
16968WAT     H251147   1.087   8.666   1.306
16969WAT      O51148   4.581   9.669   2.843
16969WAT     H151149   4.487   9.703   2.836
16969WAT     H251150   4.632   9.694   2.761
16970WAT      O51151   3.936   0.663   1.562
16970WAT     H151152   3.956   0.571   1.594
16970WAT     H251153   4.016   0.700   1.515
16971WAT      O51154   5.716   6.844   7.125
16971WAT     H151155   5.708   6.817   7.221
16971WAT     H251156   5.658   6.784   7.069
16972WAT      O51157   7.368   2.288   8.338
16972WAT     H151158   7.316   2.208   8.307
16972WAT     H251159   7.431   2.261   8.411
16973WAT      O51160   0.445   9.424   4.089
16973WAT     H151161   0.382   9.448   4.162
16973WAT     H251162   0.394   9.391   4.010
16974WAT      O51163   4.133   4.413   5.225
16974WAT     H151164   4.141   4.492   5.165
16974WAT     H251165   4.060   4.353   5.191
16975WAT      O51166   6.099   3.055   5.376
16975WAT     H151167   6.039   3.118   5.326
16975WAT     H251168   6.121   3.094   5.465
16976WAT      O51169   5.362   7.324   3.201
16976WAT     H151170   5.278   7.336   3.253
16976WAT     H251171   5.384   7.226   3.195
16977WAT      O51172   1.418   5.255   0.044
16977WAT     H151173   1.427   5.156   0.047
16977WAT     H251174   1.486   5.297   0.103
16978WAT      O51175   5.569   1.284   4.415
16978WAT     H151176   5.503   1.217   4.382
16978WAT     H251177   5.624   1.244   4.488
16979WAT      O51178   7.388   7.525   6.870
16979WAT     H151179   7.406   7.533   6.968
16979WAT     H251180   7.438   7.447   6.834
16980WAT      O51181   1.288   2.294   2.996
16980WAT     H151182   1.357   2.230   2.962
16980WAT     H251183   1.208   2.244   3.027
16981WAT      O51184   4.171   0.279   9.772
16981WAT     H151185   4.243   0.346   9.793
16981WAT     H251186   4.099   0.324   9.718
16982WAT      O51187   0.319   0.558   3.944
16982WAT     H151188   0.418   0.571   3.939
16982WAT     H251189   0.298   0.468   3.983
16983WAT      O51190   9.802   8.570   5.398
16983WAT     H151191   9.737   8.515   5.450
16983WAT     H251192   9.840   8.516   5.324
16984WAT      O51193   3.692   6.879   4.241
16984WAT     H151194   3.674   6.789   4.282
16984WAT     H251195   3.724   6.942   4.312
16985WAT      O51196   3.562   8.418   9.089
16985WAT     H151197   3.548   8.517   9.092
16985WAT     H251198   3.646   8.396   9.139
16986WAT      O51199   5.168   9.611   9.007
16986WAT     H151200   5.164   9.520   8.967
16986WAT     H251201   5.169   9.603   9.107
16987WAT      O51202   1.537   0.410   0.460
16987WAT     H151203   1.546   0.472   0.381
16987WAT     H251204   1.626   0.399   0.504
16988WAT      O51205   4.087   1.161   9.349
16988WAT     H151206   4.182   1.135   9.333
16988WAT     H251207   4.028   1.114   9.283
16989WAT      O51208   4.976   7.623   2.461
16989WAT     H151209   5.025   7.629   2.548
16989WAT     H251210   4.944   7.529   2.448
16990WAT      O51211   6.568   0.399   9.814
16990WAT     H151212   6.659   0.428   9.785
16990WAT     H251213   6.501   0.466   9.784
16991WAT      O51214   2.882   6.240   7.164
16991WAT     H151215   2.895   6.176   7.088
16991WAT     H251216   2.871   6.189   7.249
16992WAT      O51217   8.575   8.645   2.565
16992WAT     H151218   8.479   8.617   2.563
16992WAT     H251219   8.607   8.661   2.472
16993WAT      O51220   2.661   7.101   9.219
16993WAT     H151221   2.622   7.010   9.204
16993WAT     H251222   2.749   7.092   9.267
16994WAT      O51223   0.759   6.933   0.968
16994WAT     H151224   0.795   6.844   0.942
16994WAT     H251225   0.834   6.998   0.977
16995WAT      O51226   3.215   3.069   0.860
16995WAT     H151227   3.135   3.112   0.902
16995WAT     H251228   3.197   3.055   0.762
16996WAT      O51229   7.541   4.802   6.434
16996WAT     H151230   7.630   4.804   6.389
16996WAT     H251231   7.500   4.712   6.423
16997WAT      O51232   5.375   3.739   1.338
16997WAT     H151233   5.381   3.682   1.420
16997WAT     H251234   5.458   3.794   1.330
16998WAT      O51235   3.322   1.586   2.361
16998WAT     H151236   3.271   1.669   2.336
16998WAT     H251237   3.357   1.595   2.454
16999WAT      O51238   4.443   8.069   4.515
16999WAT     H151239   4.444   8.001   4.587
16999WAT     H251240   4.506   8.143   4.538
17000WAT      O51241   9.846   1.642   0.375
17000WAT     H151242   9.839   1.543   0.389
17000WAT     H251243   9.936   1.674   0.405
17001WAT      O51244   2.908   4.922   1.589
17001WAT     H151245   2.877   4.965   1.504
17001WAT     H251246   2.863   4.833   1.599
17002WAT      O51247   4.190   9.580   3.796
17002WAT     H151248   4.247   9.599   3.716
17002WAT     H251249   4.157   9.485   3.791
17003WAT      O51250   6.620   0.573   6.187
17003WAT     H151251   6.552   0.526   6.243
17003WAT     H251252   6.576   0.646   6.136
17004WAT      O51253   0.233   3.767   4.575
17004WAT     H151254   0.227   3.850   4.631
17004WAT     H251255   0.253   3.792   4.481
17005WAT      O51256   2.308   7.143   8.938
17005WAT     H151257   2.343   7.060   8.982
17005WAT     H251258   2.218   7.165   8.976
17006WAT      O51259   4.717   3.163   3.238
17006WAT     H151260   4.761   3.098   3.177
17006WAT     H251261   4.680   3.239   3.185
17007WAT      O51262   2.823   9.499   8.202
17007WAT     H151263   2.813   9.483   8.300
17007WAT     H251264   2.854   9.416   8.158
17008WAT      O51265   1.191   9.596   6.813
17008WAT     H151266   1.196   9.499   6.835
17008WAT     H251267   1.119   9.611   6.745
17009WAT      O51268   8.348   8.006   8.511
17009WAT     H151269   8.412   8.073   8.473
17009WAT     H251270   8.288   8.052   8.577
17010WAT      O51271   9.864   3.264   1.796
17010WAT     H151272   9.851   3.361   1.774
17010WAT     H251273   9.881   3.254   1.894
17011WAT      O51274   8.104   8.891   8.454
17011WAT     H151275   8.076   8.964   8.392
17011WAT     H251276   8.080   8.916   8.548
17012WAT      O51277   3.204   7.698   0.548
17012WAT     H151278   3.150   7.619   0.575
17012WAT     H251279   3.289   7.700   0.600
17013WAT      O51280   8.879   6.059   0.632
17013WAT     H151281   8.922   6.134   0.681
17013WAT     H251282   8.780   6.076   0.626
17014WAT      O51283   2.663   0.193   0.091
17014WAT     H151284   2.737   0.241   0.044
17014WAT     H251285   2.628   0.251   0.164
17015WAT      O51286   2.816   8.432   5.966
17015WAT     H151287   2.768   8.514   5.995
17015WAT     H251288   2.908   8.431   6.006
17016WAT      O51289   3.944   3.242   2.090
17016WAT     H151290   3.848   3.232   2.118
17016WAT     H251291   3.999   3.267   2.169
17017WAT      O51292   5.753   1.704   5.482
17017WAT     H151293   5.710   1.728   5.569
17017WAT     H251294   5.767   1.605   5.478
17018WAT      O51295   2.416   3.241   2.896
17018WAT     H151296   2.441   3.158   2.945
17018WAT     H251297   2.485   3.311   2.912
17019WAT      O51298   2.818   2.955   3.613
17019WAT     H151299   2.726   2.921   3.627
17019WAT     H251300   2.834   2.971   3.516
17020WAT      O51301   7.739   5.394   0.215
17020WAT     H151302   7.827   5.393   0.166
17020WAT     H251303   7.746   5.456   0.293
17021WAT      O51304   6.218   8.747   0.013
17021WAT     H151305   6.263   8.815   0.072
17021WAT     H251306   6.264   8.744  -0.076
17022WAT      O51307   5.981   9.080   8.004
17022WAT     H151308   6.005   9.172   7.973
17022WAT     H251309   6.036   9.057   8.084
17023WAT      O51310   3.043   1.524   6.639
17023WAT     H151311   3.012   1.429   6.647
17023WAT     H251312   3.108   1.545   6.713
17024WAT      O51313   0.643   7.470   9.196
17024WAT     H151314   0.602   7.528   9.267
17024WAT     H251315   0.672   7.528   9.120
17025WAT      O51316   9.422   6.853   3.318
17025WAT     H151317   9.399   6.795   3.396
17025WAT     H251318   9.448   6.796   3.240
17026WAT      O51319   6.594   9.590   1.268
17026WAT     H151320   6.538   9.530   1.210
17026WAT     H251321   6.678   9.543   1.293
17027WAT      O51322   6.429   9.065   6.806
17027WAT     H151323   6.358   9.027   6.748
17027WAT     H251324   6.459   9.153   6.769
17028WAT      O51325   4.541   4.247   0.024
17028WAT     H151326   4.576   4.300  -0.054
17028WAT     H251327   4.617   4.205   0.073
17029WAT      O51328   1.253   6.674   4.179
17029WAT     H151329   1.174   6.613   4.187
17029WAT     H251330   1.318   6.636   4.113
17030WAT      O51331   3.499   6.631   0.511
17030WAT     H151332   3.561   6.690   0.563
17030WAT     H251333   3.527   6.536   0.524
17031WAT      O51334   5.826   1.676   6.759
17031WAT     H151335   5.777   1.735   6.695
17031WAT     H251336   5.761   1.617   6.807
17032WAT      O51337   6.476   6.851   5.065
17032WAT     H151338   6.517   6.936   5.099
17032WAT     H251339   6.548   6.790   5.034
17033WAT      O51340   5.602   2.624   8.362
17033WAT     H151341   5.583   2.703   8.420
17033WAT     H251342   5.625   2.654   8.270
17034WAT      O51343   4.098   7.749   5.283
17034WAT     H151344   4.025   7.728   5.349
17034WAT     H251345   4.123   7.845   5.292
17035WAT      O51346   9.008   0.019   6.607
17035WAT     H151347   8.991   0.016   6.705
17035WAT     H251348   8.986   0.110   6.572
17036WAT      O51349   7.385   7.946   2.414
17036WAT     H151350   7.432   7.883   2.476
17036WAT     H251351   7.337   7.893   2.344
17037WAT      O51352   5.516   3.966   2.127
17037WAT     H151353   5.556   4.057   2.112
17037WAT     H251354   5.577   3.896   2.089
17038WAT      O51355   4.264   8.264   9.593
17038WAT     H151356   4.311   8.351   9.579
17038WAT     H251357   4.194   8.252   9.523
17039WAT      O51358   1.702   1.694   9.122
17039WAT     H151359   1.752   1.648   9.049
17039WAT     H251360   1.754   1.773   9.155
17040WAT      O51361   4.294   0.050   5.569
17040WAT     H151362   4.372   0.086   5.621
17040WAT     H251363   4.215   0.043   5.630
17041WAT      O51364   9.405   0.680   7.185
17041WAT     H151365   9.377   0.695   7.090
17041WAT     H251366   9.504   0.681   7.191
17042WAT      O51367   6.726   4.393   7.519
17042WAT     H151368   6.814   4.439   7.506
17042WAT     H251369   6.727   4.341   7.604
17043WAT      O51370   5.947   6.655   4.462
17043WAT     H151371   5.891   6.582   4.422
17043WAT     H251372   5.933   6.658   4.561
17044WAT      O51373   6.955   7.073   6.756
17044WAT     H151374   6.988   7.068   6.851
17044WAT     H251375   7.005   7.006   6.701
17045WAT      O51376   6.830   8.246   2.006
17045WAT     H151377   6.883   8.201   2.078
17045WAT     H251378   6.807   8.179   1.935
17046WAT      O51379   1.805   9.828   3.680
17046WAT     H151380   1.822   9.888   3.759
17046WAT     H251381   1.839   9.872   3.597
17047WAT      O51382   0.882   4.160   0.055
17047WAT     H151383   0.821   4.086   0.027
17047WAT     H251384   0.976   4.125   0.061
17048WAT      O51385   9.540   6.616   1.421
17048WAT     H151386   9.515   6.533   1.472
17048WAT     H251387   9.511   6.607   1.326
17049WAT      O51388   3.888   0.030   6.912
17049WAT     H151389   3.893   0.097   6.985
17049WAT     H251390   3.862   0.075   6.827
17050WAT      O51391   9.157   8.794   9.847
17050WAT     H151392   9.144   8.710   9.794
17050WAT     H251393   9.163   8.872   9.784
17051WAT      O51394   8.012   0.772   6.585
17051WAT     H151395   8.027   0.694   6.524
17051WAT     H251396   7.993   0.738   6.677
17052WAT      O51397   2.096   2.440   8.473
17052WAT     H151398   2.141   2.475   8.391
17052WAT     H251399   2.003   2.478   8.479
17053WAT      O51400   9.553   4.026   7.445
17053WAT     H151401   9.588   4.084   7.371
17053WAT     H251402   9.530   3.935   7.409
17054WAT      O51403   4.658   1.008   8.989
17054WAT     H151404   4.684   0.964   8.903
17054WAT     H251405   4.564   1.041   8.983
17055WAT      O51406   1.223   6.026   1.856
17055WAT     H151407   1.192   5.938   1.821
17055WAT     H251408   1.198   6.035   1.952
17056WAT      O51409   3.748   7.750   8.347
17056WAT     H151410   3.687   7.745   8.268
17056WAT     H251411   3.834   7.703   8.325
17057WAT      O51412   1.481   9.148   3.315
17057WAT     H151413   1.476   9.111   3.222
17057WAT     H251414   1.546   9.225   3.317
17058WAT      O51415   3.351   9.286   4.392
17058WAT     H151416   3.401   9.311   4.309
17058WAT     H251417   3.328   9.189   4.388
17059WAT      O51418   4.072   8.480   8.195
17059WAT     H151419   4.031   8.509   8.108
17059WAT     H251420   4.120   8.557   8.237
17060WAT      O51421   6.677   0.278   1.129
17060WAT     H151422   6.658   0.248   1.223
17060WAT     H251423   6.768   0.321   1.127
17061WAT      O51424   9.665   3.711   1.953
17061WAT     H151425   9.579   3.659   1.947
17061WAT     H251426   9.694   3.716   2.048
17062WAT      O51427   1.400   4.677   3.662
17062WAT     H151428   1.427   4.587   3.629
17062WAT     H251429   1.407   4.744   3.588
17063WAT      O51430   4.232   7.735   1.019
17063WAT     H151431   4.216   7.645   1.060
17063WAT     H251432   4.242   7.725   0.920
17064WAT      O51433   0.902   7.958   1.336
17064WAT     H151434   0.986   7.912   1.367
17064WAT     H251435   0.911   8.057   1.350
17065WAT      O51436   9.005   9.578   5.873
17065WAT     H151437   8.963   9.544   5.789
17065WAT     H251438   8.976   9.522   5.950
17066WAT      O51439   9.802   7.182   4.670
17066WAT     H151440   9.830   7.278   4.669
17066WAT     H251441   9.705   7.176   4.691
17067WAT      O51442   9.244   3.397   4.858
17067WAT     H151443   9.315   3.437   4.801
17067WAT     H251444   9.282   3.372   4.947
17068WAT      O51445   8.244   6.126   3.252
17068WAT     H151446   8.228   6.222   3.277
17068WAT     H251447   8.212   6.110   3.159
17069WAT      O51448   7.212   6.198   6.489
17069WAT     H151449   7.157   6.275   6.523
17069WAT     H251450   7.155   6.139   6.432
17070WAT      O51451   7.929   1.659   8.495
17070WAT     H151452   7.942   1.647   8.396
17070WAT     H251453   7.956   1.576   8.543
17071WAT      O51454   8.873   9.794   6.901
17071WAT     H151455   8.923   9.816   6.985
17071WAT     H251456   8.889   9.698   6.877
17072WAT      O51457   3.964   8.416   1.520
17072WAT     H151458   4.008   8.387   1.435
17072WAT     H251459   4.034   8.450   1.584
17073WAT      O51460   5.779   1.726   6.247
17073WAT     H151461   5.858   1.666   6.243
17073WAT     H251462   5.711   1.688   6.310
17074WAT      O51463   7.417   2.015   0.378
17074WAT     H151464   7.503   1.988   0.420
17074WAT     H251465   7.342   1.998   0.442
17075WAT      O51466   2.438   9.096   1.549
17075WAT     H151467   2.419   9.141   1.462
17075WAT     H251468   2.362   9.111   1.612
17076WAT      O51469   3.857   6.912   3.783
17076WAT     H151470   3.948   6.897   3.823
17076WAT     H251471   3.789   6.863   3.837
17077WAT      O51472   7.560   2.863   0.463
17077WAT     H151473   7.462   2.884   0.472
17077WAT     H251474   7.594   2.824   0.548
17078WAT      O51475   7.801   2.032   2.774
17078WAT     H151476   7.777   2.110   2.832
17078WAT     H251477   7.876   2.058   2.713
17079WAT      O51478   5.534   4.543   9.729
17079WAT     H151479   5.602   4.530   9.801
17079WAT     H251480   5.459   4.479   9.742
17080WAT      O51481   3.263   4.803   1.159
17080WAT     H151482   3.281   4.865   1.235
17080WAT     H251483   3.302   4.840   1.075
17081WAT      O51484   2.202   0.725   0.086
17081WAT     H151485   2.221   0.696   0.180
17081WAT     H251486   2.196   0.825   0.082
17082WAT      O51487   1.829   2.193   7.339
17082WAT     H151488   1.739   2.221   7.307
17082WAT     H251489   1.888   2.274   7.345
17083WAT      O51490   7.363   4.747   0.371
17083WAT     H151491   7.272   4.706   0.358
17083WAT     H251492   7.416   4.690   0.433
17084WAT      O51493   3.870   0.869   5.104
17084WAT     H151494   3.821   0.791   5.145
17084WAT     H251495   3.876   0.856   5.005
17085WAT      O51496   1.738   7.732   8.543
17085WAT     H151497   1.650   7.699   8.507
17085WAT     H251498   1.721   7.797   8.617
17086WAT      O51499   6.308   0.293   2.717
17086WAT     H151500   6.224   0.289   2.664
17086WAT     H251501   6.344   0.200   2.731
17087WAT      O51502   2.802   7.330   6.415
17087WAT     H151503   2.854   7.267   6.473
17087WAT     H251504   2.704   7.308   6.422
17088WAT      O51505   1.791   0.362   0.615
17088WAT     H151506   1.878   0.413   0.609
17088WAT     H251507   1.740   0.394   0.694
17089WAT      O51508   6.271   3.160   6.007
17089WAT     H151509   6.230   3.071   6.024
17089WAT     H251510   6.209   3.215   5.951
17090WAT      O51511   0.484   5.685   9.549
17090WAT     H151512   0.426   5.610   9.581
17090WAT     H251513   0.486   5.757   9.619
17091WAT      O51514   4.143   6.197   0.949
17091WAT     H151515   4.226   6.250   0.933
17091WAT     H251516   4.124   6.195   1.048
17092WAT      O51517   6.331   2.735   1.908
17092WAT     H151518   6.321   2.638   1.926
17092WAT     H251519   6.383   2.748   1.824
17093WAT      O51520   7.108   8.366   1.546
17093WAT     H151521   7.164   8.292   1.584
17093WAT     H251522   7.057   8.411   1.619
17094WAT      O51523   6.510   2.158   5.007
17094WAT     H151524   6.443   2.232   5.015
17094WAT     H251525   6.481   2.081   5.064
17095WAT      O51526   8.287   7.482   2.330
17095WAT     H151527   8.291   7.465   2.231
17095WAT     H251528   8.290   7.580   2.347
17096WAT      O51529   8.994   3.387   1.805
17096WAT     H151530   9.078   3.442   1.807
17096WAT     H251531   8.932   3.420   1.876
17097WAT      O51532   9.583   8.583   3.538
17097WAT     H151533   9.517   8.518   3.499
17097WAT     H251534   9.553   8.608   3.630
17098WAT      O51535   7.916   5.650   2.456
17098WAT     H151536   7.909   5.630   2.553
17098WAT     H251537   8.011   5.668   2.432
17099WAT      O51538   9.721   8.001   3.733
17099WAT     H151539   9.742   8.096   3.754
17099WAT     H251540   9.625   7.982   3.755
17100WAT      O51541   2.135   7.679   8.799
17100WAT     H151542   2.189   7.708   8.721
17100WAT     H251543   2.049   7.639   8.768
17101WAT      O51544   5.072   4.305   1.427
17101WAT     H151545   5.049   4.401   1.411
17101WAT     H251546   5.171   4.295   1.436
17102WAT      O51547   0.227   0.156   8.342
17102WAT     H151548   0.211   0.065   8.303
17102WAT     H251549   0.242   0.148   8.441
17103WAT      O51550   6.558   0.186   1.358
17103WAT     H151551   6.573   0.244   1.439
17103WAT     H251552   6.526   0.096   1.388
17104WAT      O51553   2.529   1.546   4.376
17104WAT     H151554   2.603   1.496   4.330
17104WAT     H251555   2.556   1.567   4.470
17105WAT      O51556   6.780   8.977   4.365
17105WAT     H151557   6.818   9.005   4.276
17105WAT     H251558   6.745   8.884   4.358
17106WAT      O51559   9.261   3.451   0.145
17106WAT     H151560   9.287   3.410   0.058
17106WAT     H251561   9.177   3.408   0.178
17107WAT      O51562   3.949   8.807   4.024
17107WAT     H151563   3.921   8.797   4.120
17107WAT     H251564   3.930   8.721   3.976
17108WAT      O51565   1.657   1.395   4.139
17108WAT     H151566   1.650   1.427   4.234
17108WAT     H251567   1.727   1.323   4.134
17109WAT      O51568   7.555   8.191   8.504
17109WAT     H151569   7.610   8.109   8.486
17109WAT     H251570   7.575   8.223   8.597
17110WAT      O51571   1.214   3.741   2.948
17110WAT     H151572   1.180   3.743   2.854
17110WAT     H251573   1.298   3.795   2.953
17111WAT      O51574   3.557   1.768   0.590
17111WAT     H151575   3.476   1.761   0.532
17111WAT     H251576   3.577   1.679   0.631
17112WAT      O51577   0.447   3.608   6.698
17112WAT     H151578   0.487   3.672   6.633
17112WAT     H251579   0.510   3.596   6.775
17113WAT      O51580   0.444   8.939   7.987
17113WAT     H151581   0.414   8.956   7.893
17113WAT     H251582   0.508   9.010   8.015
17114WAT      O51583   7.330   9.306   6.254
17114WAT     H151584   7.407   9.269   6.306
17114WAT     H251585   7.352   9.399   6.224
17115WAT      O51586   3.874   8.770   3.275
17115WAT     H151587   3.920   8.856   3.294
17115WAT     H251588   3.922   8.722   3.201
17116WAT      O51589   9.038   4.251   2.077
17116WAT     H151590   8.983   4.272   2.158
17116WAT     H251591   9.090   4.332   2.050
17117WAT      O51592   4.525   4.246   6.782
17117WAT     H151593   4.554   4.187   6.858
17117WAT     H251594   4.466   4.195   6.720
17118WAT      O51595   3.013   2.286   4.960
17118WAT     H151596   3.063   2.203   4.933
17118WAT     H251597   3.079   2.358   4.980
17119WAT      O51598   3.828   9.436   7.986
17119WAT     H151599   3.776   9.518   7.961
17119WAT     H251600   3.924   9.461   8.000
17120WAT      O51601   8.422   1.168   8.213
17120WAT     H151602   8.464   1.258   8.224
17120WAT     H251603   8.373   1.164   8.127
17121WAT      O51604   2.442   2.371   2.138
17121WAT     H151605   2.467   2.438   2.067
17121WAT     H251606   2.496   2.287   2.124
17122WAT      O51607   3.837   7.901   7.547
17122WAT     H151608   3.895   7.978   7.572
17122WAT     H251609   3.761   7.932   7.490
17123WAT      O51610   6.779   2.687   7.158
17123WAT     H151611   6.815   2.687   7.065
17123WAT     H251612   6.837   2.743   7.216
17124WAT      O51613   8.851   4.129   5.194
17124WAT     H151614   8.768   4.078   5.173
17124WAT     H251615   8.923   4.102   5.130
17125WAT      O51616   5.540   8.594   4.736
17125WAT     H151617   5.493   8.533   4.671
17125WAT     H251618   5.495   8.684   4.734
17126WAT      O51619   2.532   0.546   1.517
17126WAT     H151620   2.629   0.523   1.527
17126WAT     H251621   2.477   0.469   1.550
17127WAT      O51622   4.447   1.648   1.818
17127WAT     H151623   4.349   1.668   1.812
17127WAT     H251624   4.492   1.716   1.876
17128WAT      O51625   3.984   8.819   6.294
17128WAT     H151626   3.974   8.812   6.195
17128WAT     H251627   4.048   8.749   6.326
17129WAT      O51628   8.913   2.892   1.244
17129WAT     H151629   8.898   2.795   1.227
17129WAT     H251630   9.003   2.905   1.284
17130WAT      O51631   4.145   9.243   7.218
17130WAT     H151632   4.210   9.179   7.178
17130WAT     H251633   4.091   9.197   7.288
17131WAT      O51634   1.018   3.063   6.777
17131WAT     H151635   1.002   3.107   6.865
17131WAT     H251636   1.051   3.130   6.711
17132WAT      O51637   0.481   7.344   7.920
17132WAT     H151638   0.481   7.278   7.996
17132WAT     H251639   0.531   7.305   7.842
17133WAT      O51640   1.075   6.867   4.748
17133WAT     H151641   1.002   6.914   4.698
17133WAT     H251642   1.152   6.930   4.761
17134WAT      O51643   2.651   1.538   3.829
17134WAT     H151644   2.600   1.474   3.886
17134WAT     H251645   2.635   1.632   3.861
17135WAT      O51646   3.622   8.625   8.213
17135WAT     H151647   3.675   8.544   8.241
17135WAT     H251648   3.529   8.616   8.247
17136WAT      O51649   8.191   0.183   3.467
17136WAT     H151650   8.109   0.212   3.517
17136WAT     H251651   8.176   0.194   3.369
17137WAT      O51652   7.683   6.095   3.164
17137WAT     H151653   7.703   6.134   3.073
17137WAT     H251654   7.671   5.996   3.155
17138WAT      O51655   8.230   1.874   6.828
17138WAT     H151656   8.247   1.901   6.733
17138WAT     H251657   8.277   1.788   6.846
17139WAT      O51658   4.273   2.574   0.066
17139WAT     H151659   4.306   2.480   0.079
17139WAT     H251660   4.351   2.636   0.061
17140WAT      O51661   6.540   8.524   0.660
17140WAT     H151662   6.504   8.617   0.671
17140WAT     H251663   6.470   8.465   0.620
17141WAT      O51664   9.508   8.137   5.064
17141WAT     H151665   9.588   8.178   5.020
17141WAT     H251666   9.518   8.038   5.067
17142WAT      O51667   2.863   6.645   6.153
17142WAT     H151668   2.920   6.563   6.162
17142WAT     H251669   2.922   6.725   6.139
17143WAT      O51670   3.032   8.317   5.704
17143WAT     H151671   3.021   8.236   5.646
17143WAT     H251672   2.974   8.391   5.669
17144WAT      O51673   8.669   7.816   3.408
17144WAT     H151674   8.718   7.804   3.494
17144WAT     H251675   8.707   7.895   3.360
17145WAT      O51676   9.227   0.696   1.856
17145WAT     H151677   9.245   0.784   1.899
17145WAT     H251678   9.215   0.709   1.758
17146WAT      O51679   2.196   4.182   2.063
17146WAT     H151680   2.288   4.216   2.084
17146WAT     H251681   2.147   4.165   2.148
17147WAT      O51682   9.891   1.465   1.168
17147WAT     H151683   9.864   1.441   1.261
17147WAT     H251684   9.890   1.383   1.110
17148WAT      O51685   3.900   1.582   0.274
17148WAT     H151686   3.995   1.554   0.271
17148WAT     H251687   3.857   1.551   0.358
17149WAT      O51688   0.326   2.560   2.932
17149WAT     H151689   0.386   2.492   2.890
17149WAT     H251690   0.308   2.535   3.027
17150WAT      O51691   7.699   8.940   2.166
17150WAT     H151692   7.673   8.867   2.230
17150WAT     H251693   7.633   9.015   2.172
17151WAT      O51694   0.525   1.635   6.099
17151WAT     H151695   0.495   1.716   6.151
17151WAT     H251696   0.468   1.624   6.018
17152WAT      O51697   4.662   7.661   3.105
17152WAT     H151698   4.579   7.616   3.073
17152WAT     H251699   4.741   7.601   3.088
17153WAT      O51700   8.242   7.901   4.503
17153WAT     H151701   8.189   7.937   4.579
17153WAT     H251702   8.332   7.873   4.535
17154WAT      O51703   5.369   1.376   6.295
17154WAT     H151704   5.291   1.353   6.352
17154WAT     H251705   5.453   1.373   6.349
17155WAT      O51706   9.500   8.632   0.850
17155WAT     H151707   9.516   8.540   0.885
17155WAT     H251708   9.514   8.699   0.923
17156WAT      O51709   7.281   2.335   3.870
17156WAT     H151710   7.267   2.345   3.772
17156WAT     H251711   7.196   2.354   3.918
17157WAT      O51712   2.812   7.260   5.837
17157WAT     H151713   2.884   7.191   5.843
17157WAT     H251714   2.723   7.217   5.847
17158WAT      O51715   3.182   6.610   0.989
17158WAT     H151716   3.253   6.614   1.060
17158WAT     H251717   3.224   6.619   0.899
17159WAT      O51718   6.174   8.294   6.745
17159WAT     H151719   6.229   8.271   6.665
17159WAT     H251720   6.155   8.211   6.797
17160WAT      O51721   4.680   1.365   5.629
17160WAT     H151722   4.678   1.431   5.704
17160WAT     H251723   4.714   1.411   5.546
17161WAT      O51724   8.139   0.268   8.997
17161WAT     H151725   8.048   0.305   8.979
17161WAT     H251726   8.189   0.329   9.058
17162WAT      O51727   7.550   8.258   9.842
17162WAT     H151728   7.629   8.314   9.866
17162WAT     H251729   7.569   8.162   9.865
17163WAT      O51730   5.274   9.004   9.819
17163WAT     H151731   5.371   9.021   9.805
17163WAT     H251732   5.250   8.915   9.781
17164WAT      O51733   8.519   4.953   7.256
17164WAT     H151734   8.611   4.973   7.222
17164WAT     H251735   8.521   4.866   7.306
17165WAT      O51736   6.399   3.752   4.296
17165WAT     H151737   6.390   3.679   4.363
17165WAT     H251738   6.489   3.748   4.253
17166WAT      O51739   4.213   1.709   8.117
17166WAT     H151740   4.274   1.774   8.073
17166WAT     H251741   4.126   1.706   8.069
17167WAT      O51742   1.573   4.081   8.781
17167WAT     H151743   1.502   4.036   8.834
17167WAT     H251744   1.590   4.172   8.820
17168WAT      O51745   7.017   3.899   5.546
17168WAT     H151746   7.019   3.940   5.637
17168WAT     H251747   7.027   3.799   5.555
17169WAT      O51748   6.857   3.501   3.277
17169WAT     H151749   6.900   3.590   3.290
17169WAT     H251750   6.819   3.469   3.364
17170WAT      O51751   8.986   9.025   1.657
17170WAT     H151752   8.889   9.046   1.646
17170WAT     H251753   8.999   8.926   1.653
17171WAT      O51754   5.042   9.076   1.427
17171WAT     H151755   5.122   9.136   1.423
17171WAT     H251756   4.982   9.105   1.501
17172WAT      O51757   3.265   2.561   1.128
17172WAT     H151758   3.268   2.656   1.097
17172WAT     H251759   3.358   2.526   1.138
17173WAT      O51760   8.197   3.353   6.634
17173WAT     H151761   8.127   3.296   6.676
17173WAT     H251762   8.278   3.297   6.615
17174WAT      O51763   2.814   1.817   0.231
17174WAT     H151764   2.811   1.736   0.173
17174WAT     H251765   2.862   1.796   0.316
17175WAT      O51766   8.429   7.574   9.269
17175WAT     H151767   8.363   7.646   9.287
17175WAT     H251768   8.512   7.613   9.229
17176WAT      O51769   0.961   4.659   2.597
17176WAT     H151770   0.948   4.726   2.523
17176WAT     H251771   0.885   4.667   2.662
17177WAT      O51772   0.782   6.772   2.491
17177WAT     H151773   0.872   6.814   2.475
17177WAT     H251774   0.753   6.789   2.585
17178WAT      O51775   0.481   9.545   2.891
17178WAT     H151776   0.399   9.599   2.911
17178WAT     H251777   0.457   9.471   2.828
17179WAT      O51778   0.779   5.929   8.874
17179WAT     H151779   0.725   5.960   8.952
17179WAT     H251780   0.718   5.892   8.804
17180WAT      O51781   2.030   2.199   9.449
17180WAT     H151782   2.071   2.249   9.373
17180WAT     H251783   1.937   2.171   9.424
17181WAT      O51784   0.841   4.253   5.977
17181WAT     H151785   0.838   4.193   6.056
17181WAT     H251786   0.832   4.199   5.893
17182WAT      O51787   9.390   8.412   9.185
17182WAT     H151788   9.419   8.381   9.276
17182WAT     H251789   9.319   8.351   9.151
17183WAT      O51790   6.192   0.012   6.290
17183WAT     H151791   6.207  -0.068   6.349
17183WAT     H251792   6.139  -0.015   6.209
17184WAT      O51793   2.816   3.892   1.875
17184WAT     H151794   2.795   3.893   1.973
17184WAT     H251795   2.763   3.963   1.829
17185WAT      O51796   6.376   9.002   9.025
17185WAT     H151797   6.299   9.063   9.003
17185WAT     H251798   6.461   9.054   9.021
17186WAT      O51799   8.133   0.440   0.415
17186WAT     H151800   8.200   0.440   0.489
17186WAT     H251801   8.135   0.528   0.368
17187WAT      O51802   8.286   5.560   0.235
17187WAT     H151803   8.278   5.658   0.215
17187WAT     H251804   8.383   5.536   0.248
17188WAT      O51805   7.542   6.470   7.752
17188WAT     H151806   7.444   6.461   7.733
17188WAT     H251807   7.562   6.565   7.779
17189WAT      O51808   8.141   9.456   8.214
17189WAT     H151809   8.049   9.470   8.250
17189WAT     H251810   8.137   9.395   8.136
17190WAT      O51811   4.445   1.883   6.508
17190WAT     H151812   4.483   1.829   6.433
17190WAT     H251813   4.519   1.911   6.570
17191WAT      O51814   6.178   8.674   7.979
17191WAT     H151815   6.083   8.692   7.955
17191WAT     H251816   6.194   8.575   7.981
17192WAT      O51817   1.225   5.239   3.607
17192WAT     H151818   1.252   5.148   3.576
17192WAT     H251819   1.300   5.280   3.659
17193WAT      O51820   1.713   6.553   8.265
17193WAT     H151821   1.643   6.609   8.310
17193WAT     H251822   1.798   6.558   8.318
17194WAT      O51823   0.386   7.734   2.741
17194WAT     H151824   0.363   7.640   2.717
17194WAT     H251825   0.304   7.782   2.772
17195WAT      O51826   4.905   0.659   6.737
17195WAT     H151827   4.821   0.611   6.712
17195WAT     H251828   4.913   0.743   6.685
17196WAT      O51829   7.373   1.383   7.563
17196WAT     H151830   7.367   1.297   7.614
17196WAT     H251831   7.411   1.454   7.622
17197WAT      O51832   4.118   4.002   0.035
17197WAT     H151833   4.215   3.997   0.008
17197WAT     H251834   4.098   4.092   0.073
17198WAT      O51835   3.263   2.582   1.427
17198WAT     H151836   3.189   2.543   1.481
17198WAT     H251837   3.248   2.563   1.330
17199WAT      O51838   0.204   3.537   6.024
17199WAT     H151839   0.141   3.494   5.961
17199WAT     H251840   0.194   3.497   6.115
17200WAT      O51841   2.606   3.548   4.606
17200WAT     H151842   2.571   3.620   4.665
17200WAT     H251843   2.564   3.461   4.632
17201WAT      O51844   3.554   3.368   7.768
17201WAT     H151845   3.558   3.300   7.841
17201WAT     H251846   3.607   3.449   7.794
17202WAT      O51847   5.200   1.472   4.306
17202WAT     H151848   5.187   1.434   4.214
17202WAT     H251849   5.171   1.404   4.374
17203WAT      O51850   9.811   9.491   7.514
17203WAT     H151851   9.808   9.574   7.458
17203WAT     H251852   9.898   9.444   7.500
17204WAT      O51853   0.249   8.753   4.757
17204WAT     H151854   0.227   8.833   4.813
17204WAT     H251855   0.174   8.687   4.763
17205WAT      O51856   0.374   7.867   7.855
17205WAT     H151857   0.417   7.875   7.765
17205WAT     H251858   0.353   7.959   7.890
17206WAT      O51859   8.165   5.068   3.397
17206WAT     H151860   8.114   5.097   3.478
17206WAT     H251861   8.180   4.969   3.401
17207WAT      O51862   2.484   6.902   5.354
17207WAT     H151863   2.480   7.001   5.364
17207WAT     H251864   2.438   6.858   5.431
17208WAT      O51865   0.179   9.172   5.108
17208WAT     H151866   0.092   9.213   5.133
17208WAT     H251867   0.241   9.242   5.072
17209WAT      O51868   7.961   2.848   8.495
17209WAT     H151869   8.010   2.878   8.577
17209WAT     H251870   7.972   2.916   8.422
17210WAT      O51871   9.260   5.204   7.426
17210WAT     H151872   9.354   5.169   7.427
17210WAT     H251873   9.254   5.283   7.366
17211WAT      O51874   7.003   6.802   7.452
17211WAT     H151875   6.946   6.773   7.375
17211WAT     H251876   6.949   6.800   7.536
17212WAT      O51877   2.269   8.664   7.635
17212WAT     H151878   2.169   8.665   7.635
17212WAT     H251879   2.301   8.572   7.661
17213WAT      O51880   7.958   7.760   4.263
17213WAT     H151881   7.892   7.729   4.331
17213WAT     H251882   8.037   7.801   4.309
17214WAT      O51883   2.207   2.039   6.110
17214WAT     H151884   2.207   2.024   6.209
17214WAT     H251885   2.114   2.028   6.075
17215WAT      O51886   5.800   5.613   5.713
17215WAT     H151887   5.739   5.540   5.742
17215WAT     H251888   5.769   5.650   5.625
17216WAT      O51889   0.898   3.984   4.833
17216WAT     H151890   0.983   3.961   4.880
17216WAT     H251891   0.853   3.900   4.804
17217WAT      O51892   0.895   0.651   2.317
17217WAT     H151893   0.847   0.650   2.229
17217WAT     H251894   0.952   0.569   2.324
17218WAT      O51895   4.773   9.801   5.518
17218WAT     H151896   4.865   9.766   5.496
17218WAT     H251897   4.706   9.729   5.500
17219WAT      O51898   2.323   4.701   6.164
17219WAT     H151899   2.304   4.612   6.124
17219WAT     H251900   2.411   4.735   6.132
17220WAT      O51901   3.615   8.916   5.672
17220WAT     H151902   3.587   8.900   5.767
17220WAT     H251903   3.553   8.982   5.630
17221WAT      O51904   0.355   5.457   5.132
17221WAT     H151905   0.355   5.525   5.060
17221WAT     H251906   0.352   5.365   5.091
17222WAT      O51907   6.508   8.850   0.283
17222WAT     H151908   6.526   8.756   0.313
17222WAT     H251909   6.530   8.913   0.358
17223WAT      O51910   5.664   1.359   3.881
17223WAT     H151911   5.632   1.387   3.791
17223WAT     H251912   5.680   1.441   3.938
17224WAT      O51913   9.006   6.576   8.933
17224WAT     H151914   8.915   6.541   8.954
17224WAT     H251915   8.997   6.665   8.889
17225WAT      O51916   5.982   4.875   0.453
17225WAT     H151917   6.082   4.875   0.442
17225WAT     H251918   5.959   4.841   0.544
17226WAT      O51919   1.263   6.376   0.517
17226WAT     H151920   1.225   6.283   0.511
17226WAT     H251921   1.354   6.371   0.558
17227WAT      O51922   8.884   4.277   7.254
17227WAT     H151923   8.892   4.177   7.250
17227WAT     H251924   8.789   4.302   7.274
17228WAT      O51925   3.446   4.499   3.517
17228WAT     H151926   3.481   4.406   3.517
17228WAT     H251927   3.348   4.498   3.494
17229WAT      O51928   4.075   3.505   2.881
17229WAT     H151929   4.102   3.409   2.875
17229WAT     H251930   4.156   3.563   2.871
17230WAT      O51931   5.490   1.282   0.393
17230WAT     H151932   5.493   1.375   0.429
17230WAT     H251933   5.500   1.217   0.468
17231WAT      O51934   9.432   2.512   7.025
17231WAT     H151935   9.516   2.546   7.067
17231WAT     H251936   9.405   2.426   7.069
17232WAT      O51937   4.377   8.017   2.550
17232WAT     H151938   4.393   8.116   2.561
17232WAT     H251939   4.293   8.003   2.498
17233WAT      O51940   9.078   7.496   6.930
17233WAT     H151941   9.070   7.396   6.931
17233WAT     H251942   9.119   7.524   6.843
17234WAT      O51943   7.486   7.727   2.565
17234WAT     H151944   7.572   7.681   2.588
17234WAT     H251945   7.443   7.760   2.649
17235WAT      O51946   2.915   1.535   7.656
17235WAT     H151947   2.818   1.557   7.646
17235WAT     H251948   2.965   1.570   7.577
17236WAT      O51949   2.558   7.845   0.221
17236WAT     H151950   2.570   7.822   0.124
17236WAT     H251951   2.537   7.763   0.273
17237WAT      O51952   5.220   1.469   2.303
17237WAT     H151953   5.302   1.416   2.282
17237WAT     H251954   5.180   1.438   2.389
17238WAT      O51955   3.829   6.180   1.850
17238WAT     H151956   3.752   6.118   1.867
17238WAT     H251957   3.808   6.270   1.889
17239WAT      O51958   8.836   0.431   9.316
17239WAT     H151959   8.935   0.434   9.306
17239WAT     H251960   8.801   0.347   9.276
17240WAT      O51961   9.268   1.816   4.151
17240WAT     H151962   9.234   1.761   4.075
17240WAT     H251963   9.261   1.764   4.236
17241WAT      O51964   6.561   6.536   8.880
17241WAT     H151965   6.530   6.475   8.806
17241WAT     H251966   6.486   6.548   8.945
17242WAT      O51967   6.338   0.542   5.407
17242WAT     H151968   6.433   0.530   5.378
17242WAT     H251969   6.283   0.568   5.328
17243WAT      O51970   1.220   0.774   5.704
17243WAT     H151971   1.312   0.801   5.675
17243WAT     H251972   1.169   0.854   5.733
17244WAT      O51973   9.257   9.024   7.791
17244WAT     H151974   9.318   8.959   7.835
17244WAT     H251975   9.268   9.114   7.833
17245WAT      O51976   0.674   1.789   1.798
17245WAT     H151977   0.627   1.711   1.755
17245WAT     H251978   0.693   1.858   1.728
17246WAT      O51979   6.024   3.231   2.956
17246WAT     H151980   5.980   3.309   2.913
17246WAT     H251981   6.061   3.258   3.045
17247WAT      O51982   7.979   0.915   8.143
17247WAT     H151983   7.923   0.838   8.112
17247WAT     H251984   8.034   0.887   8.221
17248WAT      O51985   5.125   6.761   7.842
17248WAT     H151986   5.087   6.676   7.805
17248WAT     H251987   5.072   6.790   7.921
17249WAT      O51988   7.635   0.172   7.598
17249WAT     H151989   7.720   0.153   7.550
17249WAT     H251990   7.567   0.103   7.574
17250WAT      O51991   9.088   1.326   2.660
17250WAT     H151992   9.029   1.320   2.741
17250WAT     H251993   9.080   1.241   2.607
17251WAT      O51994   5.037   8.369   1.896
17251WAT     H151995   5.000   8.317   1.973
17251WAT     H251996   5.034   8.313   1.813
17252WAT      O51997   3.876   2.379   4.134
17252WAT     H151998   3.898   2.307   4.200
17252WAT     H251999   3.934   2.459   4.152
17253WAT      O52000   2.596   4.233   3.127
17253WAT     H152001   2.559   4.317   3.088
17253WAT     H252002   2.612   4.247   3.225
17254WAT      O52003   7.762   9.276   4.894
17254WAT     H152004   7.811   9.363   4.888
17254WAT     H252005   7.788   9.228   4.978
17255WAT      O52006   8.849   8.141   6.229
17255WAT     H152007   8.948   8.138   6.245
17255WAT     H252008   8.831   8.133   6.131
17256WAT      O52009   3.105   7.294   6.094
17256WAT     H152010   3.081   7.266   6.001
17256WAT     H252011   3.134   7.214   6.146
17257WAT      O52012   9.548   0.056   9.125
17257WAT     H152013   9.567   0.145   9.082
17257WAT     H252014   9.469   0.065   9.186
17258WAT      O52015   9.588   1.292   1.168
17258WAT     H152016   9.616   1.248   1.253
17258WAT     H252017   9.490   1.312   1.172
17259WAT      O52018   1.111   0.727   2.832
17259WAT     H152019   1.175   0.789   2.877
17259WAT     H252020   1.033   0.779   2.798
17260WAT      O52021   4.199   2.526   5.392
17260WAT     H152022   4.108   2.494   5.418
17260WAT     H252023   4.194   2.621   5.362
17261WAT      O52024   3.186   2.867   6.953
17261WAT     H152025   3.243   2.810   6.895
17261WAT     H252026   3.243   2.915   7.020
17262WAT      O52027   5.919   1.979   6.305
17262WAT     H152028   5.871   1.896   6.274
17262WAT     H252029   5.852   2.048   6.331
17263WAT      O52030   6.014   2.231   4.703
17263WAT     H152031   6.010   2.239   4.803
17263WAT     H252032   6.095   2.179   4.677
17264WAT      O52033   8.669   5.344   4.620
17264WAT     H152034   8.664   5.441   4.643
17264WAT     H252035   8.697   5.292   4.701
17265WAT      O52036   8.667   4.737   1.784
17265WAT     H152037   8.601   4.675   1.741
17265WAT     H252038   8.665   4.826   1.738
17266WAT      O52039   0.462   4.458   0.710
17266WAT     H152040   0.397   4.382   0.707
17266WAT     H252041   0.552   4.423   0.737
17267WAT      O52042   5.543   4.057   5.974
17267WAT     H152043   5.606   4.107   6.033
17267WAT     H252044   5.576   3.964   5.961
17268WAT      O52045   2.653   5.143   1.003
17268WAT     H152046   2.614   5.235   1.005
17268WAT     H252047   2.623   5.092   1.084
17269WAT      O52048   3.596   0.205   7.920
17269WAT     H152049   3.676   0.240   7.870
17269WAT     H252050   3.519   0.268   7.908
17270WAT      O52051   2.356   6.669   3.088
17270WAT     H152052   2.329   6.613   3.009
17270WAT     H252053   2.305   6.639   3.169
17271WAT      O52054   2.413   2.719   2.542
17271WAT     H152055   2.435   2.701   2.638
17271WAT     H252056   2.404   2.632   2.494
17272WAT      O52057   2.019   0.030   7.759
17272WAT     H152058   2.092   0.054   7.823
17272WAT     H252059   2.059  -0.012   7.678
17273WAT      O52060   6.793   8.313   5.116
17273WAT     H152061   6.770   8.393   5.062
17273WAT     H252062   6.891   8.311   5.134
17274WAT      O52063   5.058   3.945   1.325
17274WAT     H152064   5.130   3.975   1.388
17274WAT     H252065   5.036   4.019   1.262
17275WAT      O52066   4.171   1.864   6.531
17275WAT     H152067   4.158   1.809   6.449
17275WAT     H252068   4.266   1.855   6.562
17276WAT      O52069   3.304   5.502   5.145
17276WAT     H152070   3.241   5.451   5.085
17276WAT     H252071   3.263   5.512   5.235
17277WAT      O52072   4.170   1.230   6.382
17277WAT     H152073   4.223   1.150   6.411
17277WAT     H252074   4.231   1.310   6.376
17278WAT      O52075   3.819   1.597   5.174
17278WAT     H152076   3.866   1.607   5.086
17278WAT     H252077   3.805   1.500   5.193
17279WAT      O52078   1.206   2.643   1.095
17279WAT     H152079   1.109   2.638   1.072
17279WAT     H252080   1.219   2.713   1.166
17280WAT      O52081   5.335   2.884   4.029
17280WAT     H152082   5.303   2.821   4.099
17280WAT     H252083   5.272   2.962   4.022
17281WAT      O52084   2.528   4.741   6.827
17281WAT     H152085   2.445   4.689   6.849
17281WAT     H252086   2.608   4.681   6.835
17282WAT      O52087   0.068   2.935   6.373
17282WAT     H152088   0.014   2.866   6.421
17282WAT     H252089   0.142   2.891   6.323
17283WAT      O52090   5.387   8.301   1.632
17283WAT     H152091   5.350   8.208   1.631
17283WAT     H252092   5.314   8.366   1.614
17284WAT      O52093   5.206   9.612   0.557
17284WAT     H152094   5.281   9.668   0.590
17284WAT     H252095   5.238   9.552   0.484
17285WAT      O52096   7.718   1.489   7.645
17285WAT     H152097   7.789   1.558   7.662
17285WAT     H252098   7.630   1.535   7.630
17286WAT      O52099   4.045   8.068   7.590
17286WAT     H152100   4.100   7.985   7.576
17286WAT     H252101   4.020   8.076   7.686
17287WAT      O52102   9.486   7.085   1.836
17287WAT     H152103   9.524   7.000   1.799
17287WAT     H252104   9.439   7.066   1.922
17288WAT      O52105   9.157   1.179   7.264
17288WAT     H152106   9.210   1.094   7.259
17288WAT     H252107   9.134   1.197   7.360
17289WAT      O52108   9.448   3.285   8.578
17289WAT     H152109   9.467   3.345   8.500
17289WAT     H252110   9.520   3.217   8.586
17290WAT      O52111   1.156   6.207   4.315
17290WAT     H152112   1.158   6.151   4.398
17290WAT     H252113   1.061   6.227   4.291
17291WAT      O52114   9.563   3.999   2.682
17291WAT     H152115   9.499   4.021   2.608
17291WAT     H252116   9.558   4.069   2.753
17292WAT      O52117   2.486   4.513   2.566
17292WAT     H152118   2.535   4.426   2.574
17292WAT     H252119   2.552   4.587   2.552
17293WAT      O52120   4.395   4.180   1.778
17293WAT     H152121   4.430   4.172   1.872
17293WAT     H252122   4.461   4.141   1.714
17294WAT      O52123   7.947   3.122   9.474
17294WAT     H152124   7.877   3.167   9.530
17294WAT     H252125   7.962   3.029   9.508
17295WAT      O52126   0.304   1.767   5.165
17295WAT     H152127   0.340   1.856   5.194
17295WAT     H252128   0.314   1.701   5.240
17296WAT      O52129   2.510   2.362   4.348
17296WAT     H152130   2.503   2.265   4.321
17296WAT     H252131   2.421   2.405   4.341
17297WAT      O52132   0.261   2.901   9.677
17297WAT     H152133   0.281   2.849   9.594
17297WAT     H252134   0.177   2.865   9.719
17298WAT      O52135   3.644   9.003   4.347
17298WAT     H152136   3.731   9.033   4.310
17298WAT     H252137   3.570   9.029   4.285
17299WAT      O52138   0.775   4.362   9.087
17299WAT     H152139   0.721   4.428   9.139
17299WAT     H252140   0.741   4.270   9.105
17300WAT      O52141   3.955   8.421   8.762
17300WAT     H152142   3.952   8.328   8.725
17300WAT     H252143   4.050   8.452   8.765
17301WAT      O52144   5.583   5.501   5.875
17301WAT     H152145   5.627   5.411   5.876
17301WAT     H252146   5.495   5.496   5.922
17302WAT      O52147   8.880   3.178   0.486
17302WAT     H152148   8.793   3.133   0.503
17302WAT     H252149   8.899   3.243   0.559
17303WAT      O52150   2.976   2.894   8.929
17303WAT     H152151   2.914   2.836   8.982
17303WAT     H252152   2.953   2.888   8.832
17304WAT      O52153   2.944   8.022   4.315
17304WAT     H152154   2.848   8.049   4.316
17304WAT     H252155   2.998   8.089   4.367
17305WAT      O52156   2.861   2.716   3.269
17305WAT     H152157   2.772   2.682   3.298
17305WAT     H252158   2.875   2.809   3.304
17306WAT      O52159   9.656   5.445   1.588
17306WAT     H152160   9.621   5.414   1.499
17306WAT     H252161   9.695   5.368   1.637
17307WAT      O52162   2.340   0.429   3.675
17307WAT     H152163   2.307   0.503   3.615
17307WAT     H252164   2.411   0.464   3.735
17308WAT      O52165   7.773   8.623   7.057
17308WAT     H152166   7.813   8.563   6.988
17308WAT     H252167   7.844   8.681   7.096
17309WAT      O52168   4.640   2.112   3.596
17309WAT     H152169   4.572   2.131   3.525
17309WAT     H252170   4.674   2.199   3.634
17310WAT      O52171   0.241   9.001   7.469
17310WAT     H152172   0.195   9.052   7.396
17310WAT     H252173   0.328   9.047   7.490
17311WAT      O52174   2.883   2.913   0.196
17311WAT     H152175   2.886   2.813   0.199
17311WAT     H252176   2.812   2.942   0.132
17312WAT      O52177   1.105   9.306   6.928
17312WAT     H152178   1.076   9.299   6.832
17312WAT     H252179   1.161   9.227   6.951
17313WAT      O52180   3.987   0.989   3.437
17313WAT     H152181   4.018   1.065   3.494
17313WAT     H252182   4.065   0.945   3.393
17314WAT      O52183   4.736   2.171   8.013
17314WAT     H152184   4.815   2.220   7.976
17314WAT     H252185   4.754   2.146   8.108
17315WAT      O52186   6.477   9.552   4.857
17315WAT     H152187   6.517   9.602   4.780
17315WAT     H252188   6.440   9.618   4.923
17316WAT      O52189   8.141   6.271   5.456
17316WAT     H152190   8.168   6.367   5.459
17316WAT     H252191   8.054   6.260   5.504
17317WAT      O52192   3.920   8.921   0.950
17317WAT     H152193   3.847   8.915   1.017
17317WAT     H252194   3.887   8.886   0.862
17318WAT      O52195   4.527   5.997   4.288
17318WAT     H152196   4.499   5.904   4.264
17318WAT     H252197   4.585   5.994   4.370
17319WAT      O52198   1.062   3.339   9.009
17319WAT     H152199   0.973   3.384   9.012
17319WAT     H252200   1.123   3.390   8.949
17320WAT      O52201   5.269   4.739   7.747
17320WAT     H152202   5.272   4.704   7.841
17320WAT     H252203   5.337   4.692   7.692
17321WAT      O52204   5.704   1.393   8.559
17321WAT     H152205   5.760   1.394   8.642
17321WAT     H252206   5.612   1.426   8.581
17322WAT      O52207   3.018   4.309   1.261
17322WAT     H152208   3.087   4.267   1.320
17322WAT     H252209   3.026   4.408   1.266
17323WAT      O52210   5.223   5.465   7.820
17323WAT     H152211   5.214   5.418   7.908
17323WAT     H252212   5.314   5.506   7.814
17324WAT      O52213   7.382   7.581   0.292
17324WAT     H152214   7.437   7.650   0.340
17324WAT     H252215   7.398   7.589   0.193
17325WAT      O52216   0.161   0.721   3.285
17325WAT     H152217   0.137   0.671   3.369
17325WAT     H252218   0.215   0.802   3.309
17326WAT      O52219   7.761   6.397   0.681
17326WAT     H152220   7.687   6.455   0.649
17326WAT     H252221   7.752   6.306   0.640
17327WAT      O52222   2.331   6.899   8.528
17327WAT     H152223   2.307   6.986   8.570
17327WAT     H252224   2.429   6.882   8.539
17328WAT      O52225   5.955   2.830   5.791
17328WAT     H152226   5.932   2.908   5.732
17328WAT     H252227   6.021   2.772   5.744
17329WAT      O52228   5.652   9.288   6.538
17329WAT     H152229   5.709   9.369   6.546
17329WAT     H252230   5.656   9.252   6.445
17330WAT      O52231   6.488   7.204   1.083
17330WAT     H152232   6.500   7.243   0.992
17330WAT     H252233   6.390   7.198   1.104
17331WAT      O52234   2.939   3.887   7.776
17331WAT     H152235   3.008   3.898   7.704
17331WAT     H252236   2.924   3.790   7.793
17332WAT      O52237   1.228   3.964   4.674
17332WAT     H152238   1.202   4.004   4.761
17332WAT     H252239   1.327   3.950   4.672
17333WAT      O52240   8.200   6.183   2.165
17333WAT     H152241   8.263   6.151   2.236
17333WAT     H252242   8.118   6.126   2.166
17334WAT      O52243   1.574   7.372   4.966
17334WAT     H152244   1.508   7.448   4.966
17334WAT     H252245   1.552   7.309   5.040
17335WAT      O52246   6.786   2.695   4.608
17335WAT     H152247   6.845   2.662   4.681
17335WAT     H252248   6.744   2.618   4.561
17336WAT      O52249   1.617   1.958   6.417
17336WAT     H152250   1.702   2.011   6.424
17336WAT     H252251   1.638   1.865   6.387
17337WAT      O52252   5.822   8.762   9.264
17337WAT     H152253   5.763   8.684   9.240
17337WAT     H252254   5.911   8.749   9.221
17338WAT      O52255   2.097   5.985   9.451
17338WAT     H152256   2.144   5.923   9.513
17338WAT     H252257   2.079   6.072   9.497
17339WAT      O52258   9.457   6.950   6.139
17339WAT     H152259   9.504   7.034   6.114
17339WAT     H252260   9.477   6.879   6.072
17340WAT      O52261   5.268   3.290   1.070
17340WAT     H152262   5.274   3.390   1.075
17340WAT     H252263   5.209   3.256   1.143
17341WAT      O52264   5.269   2.379   6.698
17341WAT     H152265   5.193   2.423   6.747
17341WAT     H252266   5.355   2.404   6.742
17342WAT      O52267   8.968   6.079   5.003
17342WAT     H152268   8.921   6.098   5.090
17342WAT     H252269   8.960   5.982   4.981
17343WAT      O52270   9.870   2.995   2.646
17343WAT     H152271   9.791   2.933   2.641
17343WAT     H252272   9.841   3.082   2.686
17344WAT      O52273   6.670   7.960   2.914
17344WAT     H152274   6.739   7.892   2.938
17344WAT     H252275   6.643   8.011   2.996
17345WAT      O52276   8.839   9.118   0.495
17345WAT     H152277   8.924   9.084   0.535
17345WAT     H252278   8.762   9.067   0.532
17346WAT      O52279   6.196   4.425   0.149
17346WAT     H152280   6.143   4.466   0.224
17346WAT     H252281   6.183   4.479   0.066
17347WAT      O52282   9.305   2.679   1.809
17347WAT     H152283   9.364   2.743   1.760
17347WAT     H252284   9.291   2.597   1.753
17348WAT      O52285   7.115   5.844   3.515
17348WAT     H152286   7.197   5.900   3.512
17348WAT     H252287   7.065   5.863   3.599
17349WAT      O52288   2.449   1.121   8.928
17349WAT     H152289   2.408   1.157   8.844
17349WAT     H252290   2.464   1.023   8.918
17350WAT      O52291   6.733   6.150   7.853
17350WAT     H152292   6.745   6.238   7.899
17350WAT     H252293   6.814   6.130   7.798
17351WAT      O52294   6.149   0.918   9.013
17351WAT     H152295   6.157   0.867   8.927
17351WAT     H252296   6.100   0.863   9.080
17352WAT      O52297   7.173   3.989   1.639
17352WAT     H152298   7.269   3.966   1.620
17352WAT     H252299   7.155   3.978   1.737
17353WAT      O52300   3.886   9.795   2.139
17353WAT     H152301   3.972   9.845   2.127
17353WAT     H252302   3.818   9.854   2.181
17354WAT      O52303   4.209   7.112   5.394
17354WAT     H152304   4.241   7.204   5.369
17354WAT     H252305   4.114   7.101   5.366
17355WAT      O52306   3.601   2.641   9.123
17355WAT     H152307   3.649   2.570   9.071
17355WAT     H252308   3.668   2.700   9.169
17356WAT      O52309   7.534   9.519   9.563
17356WAT     H152310   7.606   9.491   9.626
17356WAT     H252311   7.445   9.495   9.601
17357WAT      O52312   6.563   7.462   1.964
17357WAT     H152313   6.642   7.432   2.016
17357WAT     H252314   6.554   7.562   1.972
17358WAT      O52315   1.702   5.105   4.730
17358WAT     H152316   1.604   5.095   4.712
17358WAT     H252317   1.718   5.111   4.829
17359WAT      O52318   5.223   4.436   1.885
17359WAT     H152319   5.287   4.450   1.961
17359WAT     H252320   5.264   4.372   1.820
17360WAT      O52321   0.241   6.892   4.233
17360WAT     H152322   0.215   6.825   4.303
17360WAT     H252323   0.255   6.981   4.275
17361WAT      O52324   3.957   6.353   0.827
17361WAT     H152325   3.921   6.303   0.748
17361WAT     H252326   4.014   6.293   0.882
17362WAT      O52327   8.738   2.039   2.114
17362WAT     H152328   8.781   1.968   2.169
17362WAT     H252329   8.752   2.128   2.156
17363WAT      O52330   5.744   2.832   1.583
17363WAT     H152331   5.774   2.808   1.491
17363WAT     H252332   5.648   2.805   1.595
17364WAT      O52333   6.131   7.894   8.239
17364WAT     H152334   6.190   7.942   8.305
17364WAT     H252335   6.054   7.953   8.215
17365WAT      O52336   3.849   7.179   2.520
17365WAT     H152337   3.814   7.158   2.429
17365WAT     H252338   3.945   7.207   2.513
17366WAT      O52339   3.512   8.414   3.726
17366WAT     H152340   3.458   8.422   3.810
17366WAT     H252341   3.510   8.319   3.694
17367WAT      O52342   0.890   3.116   5.216
17367WAT     H152343   0.847   3.030   5.244
17367WAT     H252344   0.989   3.109   5.225
17368WAT      O52345   7.255   7.120   7.633
17368WAT     H152346   7.168   7.111   7.682
17368WAT     H252347   7.289   7.029   7.609
17369WAT      O52348   2.008   2.331   3.200
17369WAT     H152349   2.021   2.429   3.216
17369WAT     H252350   1.991   2.286   3.288
17370WAT      O52351   0.459   1.274   9.664
17370WAT     H152352   0.435   1.186   9.622
17370WAT     H252353   0.558   1.288   9.657
17371WAT      O52354   6.682   4.673   2.189
17371WAT     H152355   6.696   4.574   2.203
17371WAT     H252356   6.723   4.723   2.265
17372WAT      O52357   1.286   8.965   0.407
17372WAT     H152358   1.330   8.883   0.368
17372WAT     H252359   1.356   9.030   0.434
17373WAT      O52360   8.607   0.696   1.363
17373WAT     H152361   8.606   0.629   1.288
17373WAT     H252362   8.656   0.778   1.333
17374WAT      O52363   2.935  -0.000   8.765
17374WAT     H152364   2.868  -0.002   8.690
17374WAT     H252365   2.889   0.024   8.850
17375WAT      O52366   0.538   9.744   0.101
17375WAT     H152367   0.523   9.839   0.076
17375WAT     H252368   0.622   9.711   0.057
17376WAT      O52369   8.379   2.358   8.903
17376WAT     H152370   8.461   2.415   8.912
17376WAT     H252371   8.300   2.407   8.939
17377WAT      O52372   2.517   3.217   2.560
17377WAT     H152373   2.538   3.235   2.464
17377WAT     H252374   2.597   3.176   2.605
17378WAT      O52375   2.461   2.695   4.862
17378WAT     H152376   2.524   2.728   4.791
17378WAT     H252377   2.509   2.689   4.949
17379WAT      O52378   8.135   3.414   4.812
17379WAT     H152379   8.164   3.345   4.746
17379WAT     H252380   8.048   3.386   4.854
17380WAT      O52381   5.560   0.573   0.215
17380WAT     H152382   5.473   0.525   0.230
17380WAT     H252383   5.610   0.528   0.142
17381WAT      O52384   4.138   4.290   7.346
17381WAT     H152385   4.084   4.207   7.359
17381WAT     H252386   4.215   4.271   7.284
17382WAT      O52387   0.493   0.344   0.188
17382WAT     H152388   0.579   0.390   0.168
17382WAT     H252389   0.426   0.411   0.221
17383WAT      O52390   1.323   8.624   9.223
17383WAT     H152391   1.343   8.720   9.247
17383WAT     H252392   1.398   8.587   9.169
17384WAT      O52393   0.880   3.509   5.491
17384WAT     H152394   0.786   3.485   5.512
17384WAT     H252395   0.937   3.427   5.489
17385WAT      O52396   9.421   2.453   7.489
17385WAT     H152397   9.371   2.385   7.435
17385WAT     H252398   9.484   2.407   7.551
17386WAT      O52399   4.666   6.799   0.251
17386WAT     H152400   4.639   6.703   0.258
17386WAT     H252401   4.635   6.836   0.163
17387WAT      O52402   4.487   2.364   6.568
17387WAT     H152403   4.519   2.436   6.506
17387WAT     H252404   4.470   2.281   6.515
17388WAT      O52405   4.262   2.334   1.266
17388WAT     H152406   4.323   2.257   1.284
17388WAT     H252407   4.308   2.420   1.289
17389WAT      O52408   4.335   1.078   9.277
17389WAT     H152409   4.405   1.048   9.342
17389WAT     H252410   4.289   0.999   9.237
17390WAT      O52411   9.532   5.573   2.241
17390WAT     H152412   9.628   5.591   2.216
17390WAT     H252413   9.473   5.635   2.189
17391WAT      O52414   6.212   1.250   0.602
17391WAT     H152415   6.284   1.257   0.670
17391WAT     H252416   6.224   1.166   0.549
17392WAT      O52417   9.337   5.844   5.588
17392WAT     H152418   9.408   5.791   5.634
17392WAT     H252419   9.364   5.860   5.492
17393WAT      O52420   3.252   6.302   8.365
17393WAT     H152421   3.152   6.296   8.364
17393WAT     H252422   3.291   6.210   8.366
17394WAT      O52423   8.024   4.113   6.022
17394WAT     H152424   7.957   4.053   6.066
17394WAT     H252425   7.978   4.196   5.990
17395WAT      O52426   9.007   8.215   5.438
17395WAT     H152427   9.024   8.165   5.353
17395WAT     H252428   8.941   8.165   5.494
17396WAT      O52429   5.721   8.181   3.929
17396WAT     H152430   5.624   8.200   3.945
17396WAT     H252431   5.774   8.264   3.944
17397WAT      O52432   8.590   4.117   2.958
17397WAT     H152433   8.493   4.119   2.933
17397WAT     H252434   8.645   4.092   2.879
17398WAT      O52435   3.377   7.873   1.031
17398WAT     H152436   3.410   7.959   1.071
17398WAT     H252437   3.291   7.889   0.984
17399WAT      O52438   7.726   8.256   4.786
17399WAT     H152439   7.783   8.336   4.765
17399WAT     H252440   7.639   8.287   4.826
17400WAT      O52441   5.970   0.546   6.642
17400WAT     H152442   6.032   0.601   6.699
17400WAT     H252443   6.017   0.463   6.613
17401WAT      O52444   3.599   7.228   7.247
17401WAT     H152445   3.674   7.275   7.201
17401WAT     H252446   3.524   7.214   7.182
17402WAT      O52447   6.614   5.898   3.861
17402WAT     H152448   6.673   5.960   3.913
17402WAT     H252449   6.562   5.841   3.925
17403WAT      O52450   3.496   1.387   0.890
17403WAT     H152451   3.455   1.457   0.949
17403WAT     H252452   3.480   1.297   0.929
17404WAT      O52453   8.052   5.804   7.785
17404WAT     H152454   8.071   5.897   7.815
17404WAT     H252455   8.116   5.779   7.712
17405WAT      O52456   3.146   0.217   7.443
17405WAT     H152457   3.137   0.245   7.347
17405WAT     H252458   3.239   0.234   7.474
17406WAT      O52459   1.916   9.829   2.327
17406WAT     H152460   1.979   9.884   2.273
17406WAT     H252461   1.920   9.858   2.422
17407WAT      O52462   9.254   8.016   7.136
17407WAT     H152463   9.204   7.936   7.168
17407WAT     H252464   9.215   8.047   7.049
17408WAT      O52465   2.162   9.833   2.934
17408WAT     H152466   2.176   9.928   2.964
17408WAT     H252467   2.072   9.802   2.964
17409WAT      O52468   8.797   7.598   4.197
17409WAT     H152469   8.784   7.685   4.148
17409WAT     H252470   8.746   7.526   4.150
17410WAT      O52471   7.225   1.561   6.308
17410WAT     H152472   7.162   1.627   6.267
17410WAT     H252473   7.247   1.590   6.401
17411WAT      O52474   0.184   3.654   3.276
17411WAT     H152475   0.133   3.569   3.265
17411WAT     H252476   0.197   3.674   3.373
17412WAT      O52477   1.552   9.415   0.149
17412WAT     H152478   1.608   9.338   0.180
17412WAT     H252479   1.612   9.484   0.107
17413WAT      O52480   1.263   8.588   4.430
17413WAT     H152481   1.179   8.537   4.410
17413WAT     H252482   1.325   8.531   4.484
17414WAT      O52483   7.858   7.373   2.389
17414WAT     H152484   7.824   7.285   2.421
17414WAT     H252485   7.921   7.412   2.457
17415WAT      O52486   1.183   3.408   4.863
17415WAT     H152487   1.240   3.477   4.818
17415WAT     H252488   1.123   3.452   4.929
17416WAT      O52489   6.469   8.875   8.583
17416WAT     H152490   6.463   8.936   8.504
17416WAT     H252491   6.409   8.795   8.568
17417WAT      O52492   8.550   2.035   4.087
17417WAT     H152493   8.519   2.114   4.034
17417WAT     H252494   8.553   2.058   4.184
17418WAT      O52495   0.126   9.381   4.043
17418WAT     H152496   0.169   9.418   4.126
17418WAT     H252497   0.196   9.363   3.975
17419WAT      O52498   2.677   7.986   7.590
17419WAT     H152499   2.593   8.022   7.631
17419WAT     H252500   2.670   7.886   7.583
17420WAT      O52501   2.507   8.130   0.189
17420WAT     H152502   2.533   8.133   0.285
17420WAT     H252503   2.495   8.034   0.161
17421WAT      O52504   8.417   9.651   1.525
17421WAT     H152505   8.486   9.581   1.541
17421WAT     H252506   8.456   9.741   1.542
17422WAT      O52507   9.736   2.091   1.487
17422WAT     H152508   9.816   2.035   1.513
17422WAT     H252509   9.743   2.180   1.530
17423WAT      O52510   0.702   8.131   5.602
17423WAT     H152511   0.666   8.150   5.693
17423WAT     H252512   0.795   8.094   5.610
17424WAT      O52513   0.110   5.727   5.884
17424WAT     H152514   0.177   5.754   5.815
17424WAT     H252515   0.067   5.808   5.923
17425WAT      O52516   3.051   1.774   2.897
17425WAT     H152517   3.148   1.778   2.920
17425WAT     H252518   2.997   1.775   2.981
17426WAT      O52519   6.006   3.132   8.365
17426WAT     H152520   5.910   3.157   8.367
17426WAT     H252521   6.014   3.032   8.358
17427WAT      O52522   6.363   6.655   1.166
17427WAT     H152523   6.271   6.646   1.205
17427WAT     H252524   6.428   6.604   1.222
17428WAT      O52525   2.155   2.344   6.598
17428WAT     H152526   2.212   2.391   6.530
17428WAT     H252527   2.197   2.257   6.623
17429WAT      O52528   3.696   4.486   6.543
17429WAT     H152529   3.669   4.446   6.455
17429WAT     H252530   3.692   4.416   6.614
17430WAT      O52531   4.780   6.729   0.501
17430WAT     H152532   4.786   6.789   0.421
17430WAT     H252533   4.692   6.742   0.547
17431WAT      O52534   0.636   3.169   6.901
17431WAT     H152535   0.673   3.149   6.992
17431WAT     H252536   0.542   3.203   6.911
17432WAT      O52537   5.140   6.285   6.261
17432WAT     H152538   5.201   6.276   6.182
17432WAT     H252539   5.053   6.325   6.233
17433WAT      O52540   6.243   9.612   3.855
17433WAT     H152541   6.300   9.693   3.837
17433WAT     H252542   6.298   9.543   3.903
17434WAT      O52543   3.459   8.394   0.291
17434WAT     H152544   3.443   8.298   0.266
17434WAT     H252545   3.463   8.450   0.209
17435WAT      O52546   9.504   1.889   0.640
17435WAT     H152547   9.591   1.932   0.662
17435WAT     H252548   9.507   1.792   0.664
17436WAT      O52549   2.526   9.780   4.293
17436WAT     H152550   2.541   9.711   4.222
17436WAT     H252551   2.609   9.835   4.302
17437WAT      O52552   5.914   0.696   3.655
17437WAT     H152553   5.975   0.775   3.650
17437WAT     H252554   5.955   0.626   3.713
17438WAT      O52555   4.409   0.653   8.221
17438WAT     H152556   4.359   0.703   8.151
17438WAT     H252557   4.347   0.589   8.268
17439WAT      O52558   3.819   5.275   9.098
17439WAT     H152559   3.908   5.307   9.129
17439WAT     H252560   3.749   5.303   9.163
17440WAT      O52561   1.214   2.901   5.830
17440WAT     H152562   1.247   2.809   5.852
17440WAT     H252563   1.273   2.969   5.871
17441WAT      O52564   4.556   2.066   3.047
17441WAT     H152565   4.639   2.094   3.095
17441WAT     H252566   4.492   2.142   3.044
17442WAT      O52567   8.148   3.954   4.853
17442WAT     H152568   8.193   3.981   4.938
17442WAT     H252569   8.162   3.856   4.837
17443WAT      O52570   9.313   6.306   7.268
17443WAT     H152571   9.271   6.224   7.229
17443WAT     H252572   9.307   6.381   7.202
17444WAT      O52573   4.246   2.547   7.794
17444WAT     H152574   4.284   2.470   7.743
17444WAT     H252575   4.240   2.524   7.890
17445WAT      O52576   7.249   8.909   1.793
17445WAT     H152577   7.235   8.954   1.705
17445WAT     H252578   7.332   8.853   1.789
17446WAT      O52579   8.846   4.555   1.175
17446WAT     H152580   8.924   4.611   1.203
17446WAT     H252581   8.786   4.540   1.253
17447WAT      O52582   4.506   6.891   0.063
17447WAT     H152583   4.494   6.979   0.016
17447WAT     H252584   4.418   6.859   0.097
17448WAT      O52585   7.930   6.607   4.560
17448WAT     H152586   8.002   6.599   4.629
17448WAT     H252587   7.873   6.686   4.581
17449WAT      O52588   1.512   8.236   0.832
17449WAT     H152589   1.581   8.181   0.877
17449WAT     H252590   1.542   8.332   0.829
17450WAT      O52591   5.454   3.772   6.473
17450WAT     H152592   5.454   3.770   6.373
17450WAT     H252593   5.513   3.847   6.505
17451WAT      O52594   1.459   5.915   5.183
17451WAT     H152595   1.414   5.827   5.201
17451WAT     H252596   1.390   5.982   5.155
17452WAT      O52597   8.797   2.195   8.206
17452WAT     H152598   8.777   2.274   8.148
17452WAT     H252599   8.738   2.118   8.179
17453WAT      O52600   3.227   0.198   0.012
17453WAT     H152601   3.165   0.249   0.071
17453WAT     H252602   3.300   0.157   0.067
17454WAT      O52603   4.493   8.156   2.183
17454WAT     H152604   4.457   8.081   2.127
17454WAT     H252605   4.536   8.224   2.124
17455WAT      O52606   4.043   3.246   6.305
17455WAT     H152607   4.095   3.329   6.323
17455WAT     H252608   4.065   3.177   6.375
17456WAT      O52609   8.408   8.493   5.496
17456WAT     H152610   8.380   8.398   5.481
17456WAT     H252611   8.458   8.526   5.416
17457WAT      O52612   4.337   5.538   5.252
17457WAT     H152613   4.422   5.591   5.254
17457WAT     H252614   4.273   5.576   5.320
17458WAT      O52615   3.766   5.404   2.904
17458WAT     H152616   3.850   5.428   2.952
17458WAT     H252617   3.789   5.358   2.818
17459WAT      O52618   1.230   7.268   3.719
17459WAT     H152619   1.179   7.261   3.805
17459WAT     H252620   1.264   7.361   3.708
17460WAT      O52621   1.990   8.383   1.758
17460WAT     H152622   1.917   8.447   1.782
17460WAT     H252623   1.997   8.313   1.828
17461WAT      O52624   7.728   8.055   1.129
17461WAT     H152625   7.679   8.091   1.049
17461WAT     H252626   7.690   8.097   1.212
17462WAT      O52627   4.118   3.219   0.037
17462WAT     H152628   4.205   3.268   0.036
17462WAT     H252629   4.053   3.265  -0.024
17463WAT      O52630   3.752   2.510   3.642
17463WAT     H152631   3.666   2.500   3.692
17463WAT     H252632   3.778   2.423   3.602
17464WAT      O52633   1.827   5.713   6.556
17464WAT     H152634   1.741   5.749   6.521
17464WAT     H252635   1.849   5.627   6.510
17465WAT      O52636   4.441   8.034   4.950
17465WAT     H152637   4.455   7.960   5.016
17465WAT     H252638   4.376   8.005   4.881
17466WAT      O52639   2.236   6.714   3.565
17466WAT     H152640   2.143   6.718   3.601
17466WAT     H252641   2.294   6.660   3.626
17467WAT      O52642   1.075   2.484   4.975
17467WAT     H152643   1.097   2.545   4.899
17467WAT     H252644   1.135   2.404   4.972
17468WAT      O52645   4.617   4.358   9.691
17468WAT     H152646   4.541   4.376   9.629
17468WAT     H252647   4.691   4.424   9.674
17469WAT      O52648   9.076   2.158   5.747
17469WAT     H152649   9.140   2.082   5.738
17469WAT     H252650   9.037   2.158   5.839
17470WAT      O52651   1.055   1.860   4.204
17470WAT     H152652   1.034   1.919   4.281
17470WAT     H252653   1.154   1.856   4.191
17471WAT      O52654   7.214   1.627   8.577
17471WAT     H152655   7.184   1.532   8.568
17471WAT     H252656   7.220   1.651   8.674
17472WAT      O52657   2.200   0.044   7.272
17472WAT     H152658   2.295   0.066   7.251
17472WAT     H252659   2.150   0.025   7.188
17473WAT      O52660   7.044   9.466   0.256
17473WAT     H152661   6.969   9.407   0.227
17473WAT     H252662   7.032   9.557   0.216
17474WAT      O52663   9.761   5.470   9.397
17474WAT     H152664   9.735   5.401   9.465
17474WAT     H252665   9.859   5.463   9.377
17475WAT      O52666   0.587   3.892   9.602
17475WAT     H152667   0.501   3.888   9.652
17475WAT     H252668   0.574   3.855   9.510
17476WAT      O52669   3.497   1.229   2.093
17476WAT     H152670   3.449   1.141   2.095
17476WAT     H252671   3.490   1.272   2.183
17477WAT      O52672   5.662   5.604   2.605
17477WAT     H152673   5.653   5.682   2.544
17477WAT     H252674   5.581   5.545   2.596
17478WAT      O52675   8.801   4.772   7.020
17478WAT     H152676   8.711   4.808   6.994
17478WAT     H252677   8.818   4.793   7.117
17479WAT      O52678   5.565   3.072   8.461
17479WAT     H152679   5.608   3.090   8.549
17479WAT     H252680   5.514   3.153   8.432
17480WAT      O52681   1.076   1.166   8.902
17480WAT     H152682   1.136   1.110   8.845
17480WAT     H252683   1.068   1.257   8.863
17481WAT      O52684   5.358   1.853   9.062
17481WAT     H152685   5.350   1.761   9.024
17481WAT     H252686   5.293   1.864   9.137
17482WAT      O52687   1.566   5.773   8.786
17482WAT     H152688   1.488   5.828   8.817
17482WAT     H252689   1.612   5.820   8.711
17483WAT      O52690   9.517   2.713   1.012
17483WAT     H152691   9.472   2.766   1.084
17483WAT     H252692   9.580   2.647   1.055
17484WAT      O52693   2.757   0.386   6.224
17484WAT     H152694   2.711   0.448   6.161
17484WAT     H252695   2.828   0.436   6.275
17485WAT      O52696   6.930   1.504   6.960
17485WAT     H152697   6.959   1.416   6.996
17485WAT     H252698   7.007   1.567   6.958
17486WAT      O52699   3.762   7.009   7.189
17486WAT     H152700   3.699   7.076   7.229
17486WAT     H252701   3.792   6.945   7.259
17487WAT      O52702   4.494   8.637   1.051
17487WAT     H152703   4.395   8.639   1.066
17487WAT     H252704   4.530   8.731   1.055
17488WAT      O52705   5.002   6.250   8.676
17488WAT     H152706   4.955   6.331   8.711
17488WAT     H252707   4.937   6.193   8.626
17489WAT      O52708   8.991   1.530   2.482
17489WAT     H152709   9.020   1.451   2.536
17489WAT     H252710   8.891   1.530   2.476
17490WAT      O52711   4.612   3.923   8.529
17490WAT     H152712   4.644   4.017   8.534
17490WAT     H252713   4.553   3.904   8.607
17491WAT      O52714   2.478   7.434   6.309
17491WAT     H152715   2.384   7.418   6.278
17491WAT     H252716   2.533   7.465   6.232
17492WAT      O52717   8.965   4.092   6.195
17492WAT     H152718   8.995   4.039   6.275
17492WAT     H252719   8.892   4.042   6.148
17493WAT      O52720   1.351   1.335   0.092
17493WAT     H152721   1.330   1.433   0.094
17493WAT     H252722   1.362   1.306  -0.003
17494WAT      O52723   6.815   4.099   0.169
17494WAT     H152724   6.785   4.191   0.195
17494WAT     H252725   6.736   4.046   0.137
17495WAT      O52726   7.739   7.672   1.794
17495WAT     H152727   7.837   7.686   1.786
17495WAT     H252728   7.690   7.752   1.759
17496WAT      O52729   3.204   8.369   4.625
17496WAT     H152730   3.195   8.464   4.594
17496WAT     H252731   3.263   8.365   4.705
17497WAT      O52732   9.321   0.104   1.775
17497WAT     H152733   9.351   0.133   1.866
17497WAT     H252734   9.388   0.040   1.738
17498WAT      O52735   3.262   4.766   4.049
17498WAT     H152736   3.282   4.754   4.147
17498WAT     H252737   3.341   4.736   3.995
17499WAT      O52738   9.405   0.056   8.865
17499WAT     H152739   9.404  -0.012   8.939
17499WAT     H252740   9.352   0.136   8.892
17500WAT      O52741   7.798   5.918   7.754
17500WAT     H152742   7.881   5.866   7.733
17500WAT     H252743   7.819   5.992   7.818
17501WAT      O52744   1.443   3.540   8.969
17501WAT     H152745   1.460   3.599   8.890
17501WAT     H252746   1.388   3.589   9.036
17502WAT      O52747   8.381   2.530   5.851
17502WAT     H152748   8.419   2.456   5.907
17502WAT     H252749   8.401   2.513   5.755
17503WAT      O52750   7.840   8.215   8.127
17503WAT     H152751   7.801   8.276   8.196
17503WAT     H252752   7.809   8.122   8.144
17504WAT      O52753   7.214   0.022   1.490
17504WAT     H152754   7.151  -0.016   1.558
17504WAT     H252755   7.303  -0.025   1.497
17505WAT      O52756   3.775   1.167   9.803
17505WAT     H152757   3.823   1.109   9.870
17505WAT     H252758   3.829   1.171   9.719
17506WAT      O52759   5.585   7.506   4.711
17506WAT     H152760   5.668   7.544   4.671
17506WAT     H252761   5.599   7.411   4.736
17507WAT      O52762   7.970   6.145   6.939
17507WAT     H152763   7.930   6.168   7.028
17507WAT     H252764   8.070   6.147   6.946
17508WAT      O52765   4.073   6.623   0.775
17508WAT     H152766   4.008   6.677   0.828
17508WAT     H252767   4.034   6.532   0.758
17509WAT      O52768   4.635   6.093   0.141
17509WAT     H152769   4.598   6.016   0.089
17509WAT     H252770   4.717   6.064   0.189
17510WAT      O52771   4.118   0.042   5.806
17510WAT     H152772   4.149   0.137   5.807
17510WAT     H252773   4.177  -0.012   5.866
17511WAT      O52774   9.796   1.349   6.374
17511WAT     H152775   9.814   1.252   6.388
17511WAT     H252776   9.708   1.373   6.413
17512WAT      O52777   2.027   2.234   1.132
17512WAT     H152778   2.074   2.223   1.220
17512WAT     H252779   2.083   2.291   1.072
17513WAT      O52780   0.174   3.197   5.462
17513WAT     H152781   0.174   3.097   5.458
17513WAT     H252782   0.228   3.233   5.387
17514WAT      O52783   6.072   4.553   3.902
17514WAT     H152784   6.146   4.545   3.835
17514WAT     H252785   6.033   4.645   3.897
17515WAT      O52786   0.764   2.509   4.311
17515WAT     H152787   0.741   2.472   4.221
17515WAT     H252788   0.777   2.608   4.304
17516WAT      O52789   5.846   3.449   6.547
17516WAT     H152790   5.927   3.447   6.606
17516WAT     H252791   5.770   3.492   6.597
17517WAT      O52792   4.976   8.232   4.451
17517WAT     H152793   5.045   8.292   4.491
17517WAT     H252794   4.951   8.160   4.516
17518WAT      O52795   3.718   4.692   7.354
17518WAT     H152796   3.792   4.736   7.406
17518WAT     H252797   3.752   4.609   7.311
17519WAT      O52798   1.077   9.722   7.020
17519WAT     H152799   0.986   9.750   6.991
17519WAT     H252800   1.129   9.690   6.941
17520WAT      O52801   2.164   3.490   1.829
17520WAT     H152802   2.093   3.422   1.849
17520WAT     H252803   2.215   3.462   1.748
17521WAT      O52804   8.144   4.429   5.083
17521WAT     H152805   8.068   4.486   5.050
17521WAT     H252806   8.169   4.364   5.012
17522WAT      O52807   7.607   3.000   0.912
17522WAT     H152808   7.526   3.050   0.883
17522WAT     H252809   7.686   3.029   0.857
17523WAT      O52810   7.660   2.787   1.572
17523WAT     H152811   7.737   2.851   1.573
17523WAT     H252812   7.654   2.744   1.482
17524WAT      O52813   8.959   0.840   6.250
17524WAT     H152814   8.938   0.757   6.199
17524WAT     H252815   9.057   0.860   6.243
17525WAT      O52816   1.657   3.363   0.199
17525WAT     H152817   1.725   3.398   0.263
17525WAT     H252818   1.700   3.294   0.139
17526WAT      O52819   9.692   4.335   3.652
17526WAT     H152820   9.649   4.247   3.628
17526WAT     H252821   9.724   4.379   3.568
17527WAT      O52822   8.587   2.233   2.822
17527WAT     H152823   8.530   2.185   2.889
17527WAT     H252824   8.547   2.223   2.731
17528WAT      O52825   2.983   2.526   4.283
17528WAT     H152826   2.885   2.539   4.268
17528WAT     H252827   2.997   2.453   4.351
17529WAT      O52828   4.306   7.599   3.680
17529WAT     H152829   4.376   7.528   3.688
17529WAT     H252830   4.217   7.561   3.704
17530WAT      O52831   7.320   5.783   2.509
17530WAT     H152832   7.311   5.852   2.437
17530WAT     H252833   7.293   5.694   2.474
17531WAT      O52834   2.512   4.377   8.977
17531WAT     H152835   2.531   4.426   9.062
17531WAT     H252836   2.595   4.330   8.946
17532WAT      O52837   3.432   0.935   3.279
17532WAT     H152838   3.525   0.948   3.313
17532WAT     H252839   3.429   0.957   3.181
17533WAT      O52840   2.308   4.072   6.742
17533WAT     H152841   2.308   3.976   6.770
17533WAT     H252842   2.261   4.127   6.810
17534WAT      O52843   2.654   0.131   8.856
17534WAT     H152844   2.575   0.182   8.890
17534WAT     H252845   2.710   0.100   8.933
17535WAT      O52846   1.701   7.768   4.496
17535WAT     H152847   1.683   7.794   4.590
17535WAT     H252848   1.686   7.846   4.435
17536WAT      O52849   7.759   4.558   3.737
17536WAT     H152850   7.730   4.482   3.795
17536WAT     H252851   7.751   4.644   3.788
17537WAT      O52852   1.685   0.766   3.134
17537WAT     H152853   1.644   0.682   3.098
17537WAT     H252854   1.651   0.783   3.226
17538WAT      O52855   0.347   2.937   5.631
17538WAT     H152856   0.297   2.939   5.543
17538WAT     H252857   0.339   2.846   5.671
17539WAT      O52858   0.296   5.074   5.530
17539WAT     H152859   0.262   5.126   5.452
17539WAT     H252860   0.228   5.075   5.604
17540WAT      O52861   8.296   2.561   8.519
17540WAT     H152862   8.219   2.605   8.474
17540WAT     H252863   8.271   2.467   8.543
17541WAT      O52864   1.821   8.140   5.038
17541WAT     H152865   1.765   8.190   5.103
17541WAT     H252866   1.772   8.131   4.951
17542WAT      O52867   8.816   7.818   2.303
17542WAT     H152868   8.779   7.781   2.218
17542WAT     H252869   8.907   7.780   2.318
17543WAT      O52870   5.700   8.499   6.710
17543WAT     H152871   5.719   8.412   6.757
17543WAT     H252872   5.626   8.547   6.758
17544WAT      O52873   4.792   8.544   0.149
17544WAT     H152874   4.866   8.527   0.215
17544WAT     H252875   4.782   8.464   0.090
17545WAT      O52876   0.216   8.488   4.997
17545WAT     H152877   0.149   8.498   4.923
17545WAT     H252878   0.270   8.572   5.005
17546WAT      O52879   6.801   7.630   1.187
17546WAT     H152880   6.783   7.634   1.285
17546WAT     H252881   6.842   7.542   1.164
17547WAT      O52882   0.629   1.453   6.379
17547WAT     H152883   0.657   1.434   6.285
17547WAT     H252884   0.535   1.485   6.380
17548WAT      O52885   0.686   2.022   6.933
17548WAT     H152886   0.631   2.045   6.853
17548WAT     H252887   0.780   2.055   6.920
17549WAT      O52888   3.353   6.482   3.524
17549WAT     H152889   3.451   6.486   3.544
17549WAT     H252890   3.339   6.445   3.432
17550WAT      O52891   6.280   6.968   1.199
17550WAT     H152892   6.187   6.999   1.220
17550WAT     H252893   6.281   6.868   1.191
17551WAT      O52894   6.960   6.758   0.012
17551WAT     H152895   7.044   6.812   0.004
17551WAT     H252896   6.906   6.767  -0.073
17552WAT      O52897   7.200   5.627   0.607
17552WAT     H152898   7.196   5.628   0.707
17552WAT     H252899   7.119   5.672   0.570
17553WAT      O52900   5.584   0.451   3.832
17553WAT     H152901   5.670   0.408   3.804
17553WAT     H252902   5.519   0.449   3.756
17554WAT      O52903   9.877   6.652   0.279
17554WAT     H152904   9.802   6.698   0.326
17554WAT     H252905   9.870   6.553   0.293
17555WAT      O52906   8.374   4.226   7.572
17555WAT     H152907   8.296   4.257   7.626
17555WAT     H252908   8.357   4.245   7.475
17556WAT      O52909   5.678   9.042   3.032
17556WAT     H152910   5.613   9.116   3.015
17556WAT     H252911   5.727   9.060   3.117
17557WAT      O52912   0.690   5.632   4.237
17557WAT     H152913   0.756   5.705   4.220
17557WAT     H252914   0.602   5.672   4.264
17558WAT      O52915   5.079   1.215   5.189
17558WAT     H152916   5.158   1.256   5.234
17558WAT     H252917   5.005   1.203   5.255
17559WAT      O52918   6.833   2.902   4.439
17559WAT     H152919   6.799   2.836   4.505
17559WAT     H252920   6.906   2.957   4.481
17560WAT      O52921   4.795   8.603   5.978
17560WAT     H152922   4.765   8.698   5.990
17560WAT     H252923   4.715   8.546   5.959
17561WAT      O52924   1.891   5.191   3.565
17561WAT     H152925   1.816   5.257   3.576
17561WAT     H252926   1.862   5.118   3.504
17562WAT      O52927   4.983   8.067   8.450
17562WAT     H152928   5.026   8.007   8.382
17562WAT     H252929   4.897   8.026   8.481
17563WAT      O52930   0.548   9.765   2.066
17563WAT     H152931   0.478   9.723   2.123
17563WAT     H252932   0.551   9.718   1.977
17564WAT      O52933   8.230   3.023   7.794
17564WAT     H152934   8.234   3.112   7.840
17564WAT     H252935   8.277   3.029   7.706
17565WAT      O52936   8.120   6.597   8.273
17565WAT     H152937   8.089   6.508   8.238
17565WAT     H252938   8.064   6.623   8.352
17566WAT      O52939   8.456   1.734   2.061
17566WAT     H152940   8.518   1.744   1.983
17566WAT     H252941   8.365   1.768   2.037
17567WAT      O52942   2.366   9.741   0.792
17567WAT     H152943   2.413   9.758   0.705
17567WAT     H252944   2.319   9.825   0.821
17568WAT      O52945   0.481   5.262   5.644
17568WAT     H152946   0.489   5.319   5.562
17568WAT     H252947   0.410   5.193   5.630
17569WAT      O52948   2.432   8.341   8.941
17569WAT     H152949   2.362   8.409   8.925
17569WAT     H252950   2.520   8.386   8.956
17570WAT      O52951   0.047   4.382   2.429
17570WAT     H152952   0.118   4.441   2.469
17570WAT     H252953   0.072   4.358   2.336
17571WAT      O52954   5.211   1.202   0.108
17571WAT     H152955   5.190   1.104   0.107
17571WAT     H252956   5.132   1.253   0.072
17572WAT      O52957   6.215   2.185   6.448
17572WAT     H152958   6.219   2.105   6.388
17572WAT     H252959   6.175   2.159   6.536
17573WAT      O52960   4.942   9.562   9.791
17573WAT     H152961   4.945   9.652   9.747
17573WAT     H252962   5.034   9.529   9.808
17574WAT      O52963   0.457   6.932   6.945
17574WAT     H152964   0.556   6.947   6.954
17574WAT     H252965   0.440   6.845   6.899
17575WAT      O52966   9.494   2.313   1.502
17575WAT     H152967   9.586   2.323   1.541
17575WAT     H252968   9.483   2.377   1.426
17576WAT      O52969   3.953   7.508   3.149
17576WAT     H152970   3.999   7.592   3.120
17576WAT     H252971   3.873   7.493   3.091
17577WAT      O52972   5.636   0.251   9.865
17577WAT     H152973   5.568   0.180   9.848
17577WAT     H252974   5.675   0.238   9.956
17578WAT      O52975   3.330   4.773   3.640
17578WAT     H152976   3.382   4.701   3.686
17578WAT     H252977   3.375   4.798   3.554
17579WAT      O52978   1.401   2.414   1.953
17579WAT     H152979   1.461   2.342   1.917
17579WAT     H252980   1.456   2.479   2.005
17580WAT      O52981   8.174   8.821   1.072
17580WAT     H152982   8.260   8.867   1.093
17580WAT     H252983   8.128   8.796   1.157
17581WAT      O52984   5.112   3.041   0.485
17581WAT     H152985   5.106   2.956   0.433
17581WAT     H252986   5.071   3.028   0.575
17582WAT      O52987   0.764   7.026   0.648
17582WAT     H152988   0.695   7.092   0.677
17582WAT     H252989   0.720   6.939   0.626
17583WAT      O52990   1.716   2.878   7.127
17583WAT     H152991   1.809   2.883   7.092
17583WAT     H252992   1.712   2.918   7.218
17584WAT      O52993   3.026   3.922   0.611
17584WAT     H152994   3.067   3.837   0.578
17584WAT     H252995   3.037   3.993   0.541
17585WAT      O52996   0.705   3.116   7.227
17585WAT     H152997   0.766   3.038   7.242
17585WAT     H252998   0.706   3.174   7.308
17586WAT      O52999   6.782   4.517   6.012
17586WAT     H153000   6.827   4.514   5.922
17586WAT     H253001   6.684   4.529   6.000
17587WAT      O53002   6.393   1.753   8.797
17587WAT     H153003   6.488   1.735   8.770
17587WAT     H253004   6.348   1.805   8.724
17588WAT      O53005   2.938   2.485   9.118
17588WAT     H153006   2.903   2.437   9.199
17588WAT     H253007   2.925   2.428   9.037
17589WAT      O53008   0.095   2.398   1.101
17589WAT     H153009   0.082   2.300   1.118
17589WAT     H253010   0.168   2.411   1.034
17590WAT      O53011   2.364   5.528   4.459
17590WAT     H153012   2.374   5.587   4.379
17590WAT     H253013   2.279   5.476   4.452
17591WAT      O53014   2.677   1.186   5.707
17591WAT     H153015   2.674   1.275   5.663
17591WAT     H253016   2.704   1.116   5.641
17592WAT      O53017   4.788   2.312   2.787
17592WAT     H153018   4.814   2.340   2.694
17592WAT     H253019   4.840   2.365   2.854
17593WAT      O53020   8.675   0.621   1.093
17593WAT     H153021   8.716   0.547   1.146
17593WAT     H253022   8.723   0.631   1.006
17594WAT      O53023   8.345   6.969   0.932
17594WAT     H153024   8.344   7.068   0.939
17594WAT     H253025   8.337   6.942   0.836
17595WAT      O53026   2.225   1.926   2.142
17595WAT     H153027   2.285   1.913   2.063
17595WAT     H253028   2.151   1.860   2.139
17596WAT      O53029   1.962   4.070   5.887
17596WAT     H153030   1.969   4.065   5.788
17596WAT     H253031   2.015   3.995   5.928
17597WAT      O53032   0.786   5.218   1.214
17597WAT     H153033   0.760   5.292   1.276
17597WAT     H253034   0.766   5.130   1.256
17598WAT      O53035   5.611   0.794   5.894
17598WAT     H153036   5.614   0.888   5.928
17598WAT     H253037   5.578   0.794   5.799
17599WAT      O53038   0.726   2.795   6.353
17599WAT     H153039   0.813   2.757   6.386
17599WAT     H253040   0.684   2.731   6.289
17600WAT      O53041   0.426   1.054   0.063
17600WAT     H153042   0.432   1.021   0.157
17600WAT     H253043   0.518   1.070   0.027
17601WAT      O53044   7.332   6.571   7.252
17601WAT     H153045   7.309   6.499   7.186
17601WAT     H253046   7.288   6.552   7.339
17602WAT      O53047   9.710   7.627   4.677
17602WAT     H153048   9.761   7.541   4.684
17602WAT     H253049   9.748   7.683   4.604
17603WAT      O53050   2.126   0.426   0.164
17603WAT     H153051   2.030   0.401   0.179
17603WAT     H253052   2.143   0.518   0.200
17604WAT      O53053   6.709   6.892   8.047
17604WAT     H153054   6.621   6.844   8.040
17604WAT     H253055   6.737   6.896   8.143
17605WAT      O53056   4.120   2.246   0.054
17605WAT     H153057   4.210   2.203   0.052
17605WAT     H253058   4.113   2.304   0.135
17606WAT      O53059   4.071   1.270   5.357
17606WAT     H153060   4.052   1.182   5.400
17606WAT     H253061   4.090   1.256   5.259
17607WAT      O53062   6.660   3.907   4.052
17607WAT     H153063   6.626   4.000   4.062
17607WAT     H253064   6.691   3.872   4.140
17608WAT      O53065   4.522   0.413   7.491
17608WAT     H153066   4.616   0.380   7.492
17608WAT     H253067   4.511   0.484   7.561
17609WAT      O53068   0.983   7.106   0.243
17609WAT     H153069   1.042   7.026   0.252
17609WAT     H253070   1.015   7.163   0.167
17610WAT      O53071   4.755   2.513   1.716
17610WAT     H153072   4.679   2.497   1.653
17610WAT     H253073   4.787   2.607   1.706
17611WAT      O53074   7.491   7.219   0.088
17611WAT     H153075   7.481   7.120   0.095
17611WAT     H253076   7.574   7.248   0.136
17612WAT      O53077   6.807   5.029   7.726
17612WAT     H153078   6.849   5.022   7.816
17612WAT     H253079   6.750   4.948   7.709
17613WAT      O53080   2.382   7.169   6.202
17613WAT     H153081   2.316   7.119   6.257
17613WAT     H253082   2.333   7.236   6.145
17614WAT      O53083   9.334   8.050   1.408
17614WAT     H153084   9.398   7.980   1.439
17614WAT     H253085   9.379   8.139   1.410
17615WAT      O53086   9.076   4.222   1.369
17615WAT     H153087   9.049   4.157   1.440
17615WAT     H253088   9.066   4.179   1.279
17616WAT      O53089   1.446   7.386   2.233
17616WAT     H153090   1.507   7.464   2.219
17616WAT     H253091   1.351   7.415   2.223
17617WAT      O53092   3.753   0.745   3.007
17617WAT     H153093   3.740   0.837   2.972
17617WAT     H253094   3.833   0.704   2.963
17618WAT      O53095   4.150   7.966   3.500
17618WAT     H153096   4.085   7.890   3.506
17618WAT     H253097   4.134   8.016   3.416
17619WAT      O53098   4.992   8.669   0.589
17619WAT     H153099   5.065   8.727   0.626
17619WAT     H253100   4.916   8.665   0.655
17620WAT      O53101   1.176   2.687   3.709
17620WAT     H153102   1.188   2.736   3.795
17620WAT     H253103   1.214   2.595   3.717
17621WAT      O53104   9.018   6.670   3.016
17621WAT     H153105   9.066   6.747   2.974
17621WAT     H253106   8.929   6.658   2.973
17622WAT      O53107   3.980   3.112   0.291
17622WAT     H153108   4.024   3.128   0.203
17622WAT     H253109   4.049   3.099   0.362
17623WAT      O53110   8.202   5.028   2.590
17623WAT     H153111   8.175   5.107   2.645
17623WAT     H253112   8.125   4.996   2.537
17624WAT      O53113   2.709   0.692   8.408
17624WAT     H153114   2.805   0.677   8.431
17624WAT     H253115   2.651   0.639   8.470
17625WAT      O53116   7.880   9.707   6.050
17625WAT     H153117   7.902   9.732   6.144
17625WAT     H253118   7.961   9.667   6.006
17626WAT      O53119   7.812   4.079   9.456
17626WAT     H153120   7.825   4.088   9.554
17626WAT     H253121   7.730   4.129   9.428
17627WAT      O53122   1.248   8.820   6.554
17627WAT     H153123   1.179   8.758   6.591
17627WAT     H253124   1.202   8.899   6.511
17628WAT      O53125   4.955   3.545   4.464
17628WAT     H153126   4.954   3.445   4.463
17628WAT     H253127   4.867   3.579   4.498
17629WAT      O53128   8.246   1.971   7.539
17629WAT     H153129   8.149   1.951   7.552
17629WAT     H253130   8.285   1.909   7.471
17630WAT      O53131   8.992   7.968   6.796
17630WAT     H153132   8.924   8.011   6.736
17630WAT     H253133   9.056   8.037   6.829
17631WAT      O53134   3.331   1.303   3.300
17631WAT     H153135   3.244   1.351   3.316
17631WAT     H253136   3.315   1.222   3.245
17632WAT      O53137   5.427   1.190   5.791
17632WAT     H153138   5.373   1.227   5.866
17632WAT     H253139   5.483   1.262   5.751
17633WAT      O53140   5.804   9.281   9.581
17633WAT     H153141   5.791   9.252   9.676
17633WAT     H253142   5.814   9.381   9.577
17634WAT      O53143   7.097   2.866   8.733
17634WAT     H153144   7.196   2.853   8.726
17634WAT     H253145   7.052   2.817   8.659
17635WAT      O53146   4.593   1.975   6.719
17635WAT     H153147   4.692   1.989   6.707
17635WAT     H253148   4.566   2.005   6.810
17636WAT      O53149   8.555   5.252   1.057
17636WAT     H153150   8.634   5.218   1.108
17636WAT     H253151   8.471   5.233   1.108
17637WAT      O53152   3.427   6.197   3.302
17637WAT     H153153   3.351   6.258   3.278
17637WAT     H253154   3.512   6.250   3.309
17638WAT      O53155   7.127   6.487   6.248
17638WAT     H153156   7.226   6.484   6.264
17638WAT     H253157   7.088   6.396   6.259
17639WAT      O53158   9.032   9.219   8.215
17639WAT     H153159   8.937   9.208   8.243
17639WAT     H253160   9.060   9.314   8.227
17640WAT      O53161   5.072   4.570   5.061
17640WAT     H153162   5.022   4.619   5.133
17640WAT     H253163   5.019   4.572   4.976
17641WAT      O53164   1.675   3.905   4.103
17641WAT     H153165   1.689   3.999   4.135
17641WAT     H253166   1.636   3.850   4.177
17642WAT      O53167   1.055   0.945   7.488
17642WAT     H153168   1.132   1.004   7.512
17642WAT     H253169   1.010   0.980   7.406
17643WAT      O53170   6.013   8.832   3.395
17643WAT     H153171   6.047   8.740   3.380
17643WAT     H253172   6.060   8.873   3.473
17644WAT      O53173   7.639   7.517   9.733
17644WAT     H153174   7.708   7.445   9.724
17644WAT     H253175   7.664   7.595   9.676
17645WAT      O53176   0.280   5.065   5.167
17645WAT     H153177   0.312   5.118   5.089
17645WAT     H253178   0.231   5.126   5.231
17646WAT      O53179   5.780   6.412   5.958
17646WAT     H153180   5.757   6.472   5.882
17646WAT     H253181   5.749   6.319   5.938
17647WAT      O53182   8.835   5.627   3.297
17647WAT     H153183   8.916   5.585   3.257
17647WAT     H253184   8.850   5.643   3.394
17648WAT      O53185   7.351   2.334   6.709
17648WAT     H153186   7.303   2.403   6.763
17648WAT     H253187   7.289   2.296   6.640
17649WAT      O53188   4.147   1.931   8.870
17649WAT     H153189   4.168   1.834   8.875
17649WAT     H253190   4.203   1.981   8.937
17650WAT      O53191   6.254   9.593   5.333
17650WAT     H153192   6.301   9.676   5.304
17650WAT     H253193   6.253   9.527   5.259
17651WAT      O53194   4.226   4.548   3.776
17651WAT     H153195   4.323   4.567   3.793
17651WAT     H253196   4.217   4.484   3.700
17652WAT      O53197   0.599   8.196   6.561
17652WAT     H153198   0.628   8.279   6.610
17652WAT     H253199   0.586   8.218   6.464
17653WAT      O53200   9.697   2.540   1.096
17653WAT     H153201   9.670   2.458   1.046
17653WAT     H253202   9.787   2.527   1.137
17654WAT      O53203   7.450   8.369   5.737
17654WAT     H153204   7.387   8.336   5.666
17654WAT     H253205   7.444   8.468   5.742
17655WAT      O53206   4.664   5.344   5.323
17655WAT     H153207   4.631   5.364   5.415
17655WAT     H253208   4.617   5.402   5.257
17656WAT      O53209   2.607   7.737   1.415
17656WAT     H153210   2.635   7.776   1.503
17656WAT     H253211   2.543   7.799   1.370
17657WAT      O53212   9.724   7.311   8.307
17657WAT     H153213   9.804   7.252   8.300
17657WAT     H253214   9.644   7.256   8.332
17658WAT      O53215   1.426   8.279   1.894
17658WAT     H153216   1.350   8.302   1.832
17658WAT     H253217   1.395   8.212   1.961
17659WAT      O53218   1.076   4.431   8.266
17659WAT     H153219   1.022   4.353   8.234
17659WAT     H253220   1.155   4.398   8.317
17660WAT      O53221   8.984   9.815   6.193
17660WAT     H153222   9.057   9.862   6.244
17660WAT     H253223   8.942   9.746   6.252
17661WAT      O53224   0.909   8.683   0.442
17661WAT     H153225   0.955   8.657   0.358
17661WAT     H253226   0.889   8.781   0.441
17662WAT      O53227   3.312   7.285   6.687
17662WAT     H153228   3.311   7.321   6.594
17662WAT     H253229   3.252   7.206   6.693
17663WAT      O53230   3.051   8.344   4.055
17663WAT     H153231   2.960   8.308   4.034
17663WAT     H253232   3.049   8.444   4.055
17664WAT      O53233   0.893   5.799   4.131
17664WAT     H153234   0.884   5.828   4.036
17664WAT     H253235   0.978   5.748   4.143
17665WAT      O53236   8.876   5.803   0.760
17665WAT     H153237   8.906   5.882   0.706
17665WAT     H253238   8.813   5.833   0.831
17666WAT      O53239   3.126   4.004   3.749
17666WAT     H153240   3.216   3.983   3.787
17666WAT     H253241   3.056   3.987   3.818
17667WAT      O53242   2.398   0.349   1.646
17667WAT     H153243   2.307   0.369   1.682
17667WAT     H253244   2.408   0.251   1.631
17668WAT      O53245   8.881   7.669   0.105
17668WAT     H153246   8.853   7.611   0.181
17668WAT     H253247   8.807   7.674   0.038
17669WAT      O53248   2.140   5.429   6.566
17669WAT     H153249   2.200   5.359   6.527
17669WAT     H253250   2.152   5.431   6.665
17670WAT      O53251   0.228   8.467   5.563
17670WAT     H153252   0.155   8.463   5.631
17670WAT     H253253   0.257   8.374   5.541
17671WAT      O53254   1.701   7.347   1.059
17671WAT     H153255   1.711   7.378   1.153
17671WAT     H253256   1.728   7.420   0.997
17672WAT      O53257   6.816   3.382   8.051
17672WAT     H153258   6.784   3.397   7.957
17672WAT     H253259   6.869   3.461   8.081
17673WAT      O53260   3.764   7.075   8.271
17673WAT     H153261   3.755   7.169   8.304
17673WAT     H253262   3.684   7.022   8.299
17674WAT      O53263   5.861   1.898   5.778
17674WAT     H153264   5.949   1.939   5.752
17674WAT     H253265   5.813   1.960   5.841
17675WAT      O53266   9.024   9.842   0.893
17675WAT     H153267   8.952   9.908   0.873
17675WAT     H253268   9.015   9.763   0.833
17676WAT      O53269   7.843   4.779   0.718
17676WAT     H153270   7.942   4.792   0.725
17676WAT     H253271   7.824   4.690   0.677
17677WAT      O53272   8.916   5.368   8.518
17677WAT     H153273   8.890   5.286   8.467
17677WAT     H253274   8.882   5.449   8.472
17678WAT      O53275   0.016   5.366   2.860
17678WAT     H153276   0.072   5.449   2.856
17678WAT     H253277  -0.081   5.391   2.865
17679WAT      O53278   9.278   0.608   5.224
17679WAT     H153279   9.277   0.532   5.158
17679WAT     H253280   9.188   0.652   5.224
17680WAT      O53281   1.978   0.224   3.107
17680WAT     H153282   2.020   0.191   3.192
17680WAT     H253283   2.049   0.259   3.046
17681WAT      O53284   9.304   8.578   7.507
17681WAT     H153285   9.369   8.502   7.503
17681WAT     H253286   9.212   8.542   7.523
17682WAT      O53287   3.514   8.158   3.658
17682WAT     H153288   3.558   8.086   3.604
17682WAT     H253289   3.429   8.123   3.697
17683WAT      O53290   7.554   4.834   9.002
17683WAT     H153291   7.617   4.838   9.079
17683WAT     H253292   7.589   4.770   8.933
17684WAT      O53293   0.383   6.373   5.437
17684WAT     H153294   0.377   6.458   5.385
17684WAT     H253295   0.320   6.306   5.399
17685WAT      O53296   8.076   4.783   6.909
17685WAT     H153297   7.977   4.796   6.915
17685WAT     H253298   8.100   4.695   6.947
17686WAT      O53299   6.239   9.220   8.268
17686WAT     H153300   6.225   9.223   8.367
17686WAT     H253301   6.202   9.135   8.231
17687WAT      O53302   1.296   8.046   0.500
17687WAT     H153303   1.388   8.073   0.529
17687WAT     H253304   1.232   8.120   0.520
17688WAT      O53305   1.184   4.652   3.800
17688WAT     H153306   1.168   4.556   3.776
17688WAT     H253307   1.263   4.686   3.750
17689WAT      O53308   0.046   2.671   0.836
17689WAT     H153309  -0.010   2.592   0.810
17689WAT     H253310   0.077   2.719   0.754
17690WAT      O53311   2.990   9.545   6.156
17690WAT     H153312   2.967   9.448   6.165
17690WAT     H253313   3.040   9.560   6.071
17691WAT      O53314   0.135   1.786   9.151
17691WAT     H153315   0.181   1.722   9.089
17691WAT     H253316   0.051   1.819   9.108
17692WAT      O53317   3.858   3.947   5.303
17692WAT     H153318   3.847   3.879   5.230
17692WAT     H253319   3.918   3.911   5.374
17693WAT      O53320   8.029   1.588   2.875
17693WAT     H153321   7.964   1.663   2.858
17693WAT     H253322   8.027   1.563   2.972
17694WAT      O53323   3.664   3.746   4.512
17694WAT     H153324   3.585   3.714   4.460
17694WAT     H253325   3.735   3.775   4.448
17695WAT      O53326   9.618   3.220   1.066
17695WAT     H153327   9.681   3.252   0.996
17695WAT     H253328   9.622   3.281   1.145
17696WAT      O53329   9.387   3.868   5.290
17696WAT     H153330   9.287   3.873   5.282
17696WAT     H253331   9.423   3.809   5.218
17697WAT      O53332   8.727   9.617   5.638
17697WAT     H153333   8.821   9.646   5.620
17697WAT     H253334   8.707   9.534   5.587
17698WAT      O53335   6.295   6.454   3.044
17698WAT     H153336   6.249   6.366   3.031
17698WAT     H253337   6.369   6.442   3.111
17699WAT      O53338   2.786   2.130   2.607
17699WAT     H153339   2.725   2.200   2.643
17699WAT     H253340   2.827   2.161   2.522
17700WAT      O53341   0.370   0.035   0.541
17700WAT     H153342   0.429   0.062   0.464
17700WAT     H253343   0.410  -0.044   0.587
17701WAT      O53344   4.981   0.007   4.009
17701WAT     H153345   4.915   0.032   3.938
17701WAT     H253346   5.073   0.006   3.971
17702WAT      O53347   4.342   2.110   2.496
17702WAT     H153348   4.397   2.180   2.541
17702WAT     H253349   4.346   2.025   2.548
17703WAT      O53350   7.491   0.142   2.648
17703WAT     H153351   7.535   0.069   2.701
17703WAT     H253352   7.449   0.102   2.566
17704WAT      O53353   4.773   2.607   8.768
17704WAT     H153354   4.856   2.642   8.723
17704WAT     H253355   4.793   2.518   8.808
17705WAT      O53356   7.221   3.384   0.499
17705WAT     H153357   7.264   3.325   0.567
17705WAT     H253358   7.183   3.465   0.543
17706WAT      O53359   5.636   5.534   7.031
17706WAT     H153360   5.703   5.608   7.023
17706WAT     H253361   5.583   5.546   7.115
17707WAT      O53362   0.806   4.535   5.302
17707WAT     H153363   0.766   4.535   5.210
17707WAT     H253364   0.756   4.600   5.359
17708WAT      O53365   6.728   2.845   2.148
17708WAT     H153366   6.749   2.769   2.088
17708WAT     H253367   6.628   2.858   2.153
17709WAT      O53368   9.821   1.226   4.264
17709WAT     H153369   9.886   1.158   4.297
17709WAT     H253370   9.835   1.312   4.314
17710WAT      O53371   3.188   5.070   8.595
17710WAT     H153372   3.265   5.090   8.655
17710WAT     H253373   3.216   5.084   8.500
17711WAT      O53374   4.773   0.306   3.838
17711WAT     H153375   4.739   0.351   3.921
17711WAT     H253376   4.732   0.349   3.758
17712WAT      O53377   4.339   0.033   7.859
17712WAT     H153378   4.255  -0.020   7.857
17712WAT     H253379   4.418  -0.030   7.856
17713WAT      O53380   8.190   6.756   7.691
17713WAT     H153381   8.147   6.715   7.610
17713WAT     H253382   8.193   6.689   7.764
17714WAT      O53383   0.681   8.468   4.898
17714WAT     H153384   0.596   8.494   4.853
17714WAT     H253385   0.667   8.464   4.997
17715WAT      O53386   4.266   0.709   1.467
17715WAT     H153387   4.322   0.642   1.515
17715WAT     H253388   4.283   0.800   1.505
17716WAT      O53389   0.094   4.668   3.116
17716WAT     H153390   0.092   4.756   3.163
17716WAT     H253391   0.177   4.661   3.061
17717WAT      O53392   4.502   4.759   2.154
17717WAT     H153393   4.566   4.733   2.081
17717WAT     H253394   4.420   4.800   2.113
17718WAT      O53395   5.229   1.584   6.572
17718WAT     H153396   5.232   1.490   6.538
17718WAT     H253397   5.242   1.648   6.496
17719WAT      O53398   7.652   8.306   7.503
17719WAT     H153399   7.714   8.360   7.561
17719WAT     H253400   7.699   8.225   7.469
17720WAT      O53401   5.076   5.607   9.838
17720WAT     H153402   5.021   5.675   9.790
17720WAT     H253403   5.153   5.652   9.883
17721WAT      O53404   8.165   1.572   1.262
17721WAT     H153405   8.227   1.606   1.333
17721WAT     H253406   8.086   1.528   1.305
17722WAT      O53407   2.230   3.318   4.557
17722WAT     H153408   2.148   3.304   4.613
17722WAT     H253409   2.311   3.315   4.615
17723WAT      O53410   6.524   5.635   3.766
17723WAT     H153411   6.542   5.727   3.800
17723WAT     H253412   6.557   5.627   3.672
17724WAT      O53413   5.055   5.255   1.683
17724WAT     H153414   5.110   5.337   1.669
17724WAT     H253415   5.018   5.254   1.776
17725WAT      O53416   6.794   1.409   5.410
17725WAT     H153417   6.781   1.508   5.408
17725WAT     H253418   6.705   1.364   5.411
17726WAT      O53419   7.975   1.029   6.605
17726WAT     H153420   7.975   0.929   6.602
17726WAT     H253421   7.902   1.064   6.547
17727WAT      O53422   3.157   6.406   5.392
17727WAT     H153423   3.078   6.465   5.373
17727WAT     H253424   3.241   6.453   5.364
17728WAT      O53425   2.391   6.839   6.116
17728WAT     H153426   2.394   6.843   6.016
17728WAT     H253427   2.462   6.899   6.154
17729WAT      O53428   9.565   2.006   8.146
17729WAT     H153429   9.525   1.918   8.119
17729WAT     H253430   9.635   2.032   8.079
17730WAT      O53431   9.393   9.604   5.202
17730WAT     H153432   9.402   9.613   5.302
17730WAT     H253433   9.348   9.685   5.165
17731WAT      O53434   8.740   3.453   8.155
17731WAT     H153435   8.681   3.524   8.115
17731WAT     H253436   8.698   3.419   8.239
17732WAT      O53437   1.918   7.693   5.577
17732WAT     H153438   1.825   7.728   5.589
17732WAT     H253439   1.971   7.711   5.660
17733WAT      O53440   7.532   6.557   9.276
17733WAT     H153441   7.580   6.567   9.190
17733WAT     H253442   7.476   6.474   9.274
17734WAT      O53443   8.903   9.397   5.316
17734WAT     H153444   8.955   9.311   5.311
17734WAT     H253445   8.899   9.438   5.225
17735WAT      O53446   5.997   5.300   2.783
17735WAT     H153447   6.053   5.273   2.862
17735WAT     H253448   5.918   5.238   2.776
17736WAT      O53449   7.318   8.541   0.192
17736WAT     H153450   7.397   8.481   0.208
17736WAT     H253451   7.299   8.546   0.094
17737WAT      O53452   3.462   5.496   5.609
17737WAT     H153453   3.475   5.587   5.650
17737WAT     H253454   3.494   5.426   5.672
17738WAT      O53455   8.829   4.357   6.570
17738WAT     H153456   8.796   4.398   6.655
17738WAT     H253457   8.920   4.392   6.549
17739WAT      O53458   4.430   8.431   2.566
17739WAT     H153459   4.496   8.382   2.509
17739WAT     H253460   4.471   8.516   2.598
17740WAT      O53461   6.095   9.618   4.173
17740WAT     H153462   6.145   9.607   4.259
17740WAT     H253463   6.091   9.531   4.125
17741WAT      O53464   1.872   2.681   9.843
17741WAT     H153465   1.827   2.658   9.930
17741WAT     H253466   1.948   2.744   9.861
17742WAT      O53467   0.430   7.126   8.493
17742WAT     H153468   0.493   7.204   8.489
17742WAT     H253469   0.344   7.151   8.448
17743WAT      O53470   8.129   2.138   3.835
17743WAT     H153471   8.204   2.109   3.776
17743WAT     H253472   8.053   2.171   3.780
17744WAT      O53473   1.177   8.115   1.175
17744WAT     H153474   1.218   8.025   1.160
17744WAT     H253475   1.105   8.130   1.108
17745WAT      O53476   8.653   7.541   7.433
17745WAT     H153477   8.717   7.480   7.387
17745WAT     H253478   8.658   7.632   7.391
17746WAT      O53479   5.012   8.027   7.592
17746WAT     H153480   5.016   7.953   7.660
17746WAT     H253481   4.957   8.102   7.629
17747WAT      O53482   9.227   1.876   9.855
17747WAT     H153483   9.275   1.885   9.768
17747WAT     H253484   9.294   1.869   9.929
17748WAT      O53485   1.612   5.310   4.455
17748WAT     H153486   1.533   5.255   4.426
17748WAT     H253487   1.696   5.266   4.425
17749WAT      O53488   4.658   4.573   2.973
17749WAT     H153489   4.739   4.515   2.963
17749WAT     H253490   4.686   4.669   2.979
17750WAT      O53491   5.687   0.211   2.809
17750WAT     H153492   5.622   0.172   2.744
17750WAT     H253493   5.779   0.179   2.788
17751WAT      O53494   6.626   5.504   9.766
17751WAT     H153495   6.689   5.518   9.843
17751WAT     H253496   6.661   5.551   9.685
17752WAT      O53497   5.702   7.079   8.408
17752WAT     H153498   5.685   7.130   8.323
17752WAT     H253499   5.718   7.144   8.482
17753WAT      O53500   9.577   7.448   5.644
17753WAT     H153501   9.542   7.424   5.554
17753WAT     H253502   9.624   7.536   5.639
17754WAT      O53503   5.868   8.192   0.299
17754WAT     H153504   5.947   8.134   0.320
17754WAT     H253505   5.891   8.287   0.322
17755WAT      O53506   8.487   5.915   5.517
17755WAT     H153507   8.433   5.984   5.469
17755WAT     H253508   8.558   5.960   5.571
17756WAT      O53509   8.201   7.156   8.029
17756WAT     H153510   8.213   7.122   7.935
17756WAT     H253511   8.266   7.230   8.046
17757WAT      O53512   3.325   5.882   5.999
17757WAT     H153513   3.397   5.944   6.028
17757WAT     H253514   3.363   5.791   5.984
17758WAT      O53515   6.253   3.156   1.573
17758WAT     H153516   6.162   3.143   1.612
17758WAT     H253517   6.267   3.089   1.499
17759WAT      O53518   0.055   2.892   6.986
17759WAT     H153519   0.063   2.893   6.886
17759WAT     H253520   0.138   2.854   7.026
17760WAT      O53521   0.388   2.983   6.689
17760WAT     H153522   0.461   2.966   6.624
17760WAT     H253523   0.380   2.905   6.752
17761WAT      O53524   0.092   9.212   3.454
17761WAT     H153525   0.032   9.209   3.374
17761WAT     H253526   0.138   9.124   3.464
17762WAT      O53527   7.229   5.403   2.889
17762WAT     H153528   7.281   5.395   2.974
17762WAT     H253529   7.241   5.319   2.835
17763WAT      O53530   0.553   3.874   9.315
17763WAT     H153531   0.493   3.820   9.257
17763WAT     H253532   0.645   3.875   9.277
17764WAT      O53533   4.774   5.499   2.763
17764WAT     H153534   4.740   5.420   2.814
17764WAT     H253535   4.755   5.583   2.814
17765WAT      O53536   0.273   0.034   8.895
17765WAT     H153537   0.317   0.119   8.868
17765WAT     H253538   0.331  -0.014   8.961
17766WAT      O53539   9.357   5.504   5.328
17766WAT     H153540   9.437   5.565   5.325
17766WAT     H253541   9.284   5.542   5.270
17767WAT      O53542   7.246   2.629   1.121
17767WAT     H153543   7.311   2.572   1.072
17767WAT     H253544   7.172   2.657   1.060
17768WAT      O53545   3.092   8.424   6.102
17768WAT     H153546   3.132   8.504   6.056
17768WAT     H253547   3.142   8.406   6.187
17769WAT      O53548   0.399   0.606   8.801
17769WAT     H153549   0.491   0.568   8.814
17769WAT     H253550   0.373   0.598   8.705
17770WAT      O53551   4.552   2.496   2.207
17770WAT     H153552   4.470   2.536   2.248
17770WAT     H253553   4.539   2.398   2.194
17771WAT      O53554   9.745   7.401   3.998
17771WAT     H153555   9.678   7.392   3.925
17771WAT     H253556   9.838   7.389   3.961
17772WAT      O53557   0.671   7.066   3.912
17772WAT     H153558   0.698   7.150   3.866
17772WAT     H253559   0.605   7.016   3.856
17773WAT      O53560   5.310   9.498   5.244
17773WAT     H153561   5.266   9.460   5.162
17773WAT     H253562   5.405   9.469   5.247
17774WAT      O53563   2.721   3.465   7.308
17774WAT     H153564   2.630   3.478   7.269
17774WAT     H253565   2.739   3.535   7.377
17775WAT      O53566   1.622   4.081   0.808
17775WAT     H153567   1.611   4.044   0.901
17775WAT     H253568   1.540   4.059   0.754
17776WAT      O53569   6.427   5.471   1.521
17776WAT     H153570   6.412   5.378   1.486
17776WAT     H253571   6.342   5.507   1.558
17777WAT      O53572   2.052   5.571   2.557
17777WAT     H153573   2.073   5.523   2.472
17777WAT     H253574   2.122   5.550   2.626
17778WAT      O53575   3.828   4.864   4.480
17778WAT     H153576   3.798   4.953   4.447
17778WAT     H253577   3.927   4.866   4.496
17779WAT      O53578   3.057   6.190   6.376
17779WAT     H153579   3.103   6.278   6.382
17779WAT     H253580   3.119   6.123   6.333
17780WAT      O53581   9.415   1.413   4.186
17780WAT     H153582   9.458   1.472   4.256
17780WAT     H253583   9.388   1.469   4.108
17781WAT      O53584   9.319   9.384   4.762
17781WAT     H153585   9.288   9.474   4.731
17781WAT     H253586   9.302   9.374   4.860
17782WAT      O53587   3.242   7.643   5.149
17782WAT     H153588   3.270   7.692   5.232
17782WAT     H253589   3.271   7.694   5.069
17783WAT      O53590   0.209   0.473   1.028
17783WAT     H153591   0.129   0.527   1.054
17783WAT     H253592   0.196   0.379   1.058
17784WAT      O53593   6.076   8.180   0.673
17784WAT     H153594   6.147   8.127   0.627
17784WAT     H253595   6.106   8.275   0.680
17785WAT      O53596   1.877   8.029   3.595
17785WAT     H153597   1.910   7.987   3.511
17785WAT     H253598   1.852   8.124   3.578
17786WAT      O53599   2.613   1.852   6.665
17786WAT     H153600   2.700   1.805   6.680
17786WAT     H253601   2.579   1.832   6.573
17787WAT      O53602   8.905   3.496   9.876
17787WAT     H153603   8.941   3.405   9.856
17787WAT     H253604   8.805   3.495   9.866
17788WAT      O53605   7.215   3.977   6.099
17788WAT     H153606   7.242   3.881   6.089
17788WAT     H253607   7.202   4.017   6.009
17789WAT      O53608   4.616   0.733   4.124
17789WAT     H153609   4.544   0.801   4.116
17789WAT     H253610   4.705   0.778   4.132
17790WAT      O53611   1.492   2.062   6.060
17790WAT     H153612   1.525   2.153   6.086
17790WAT     H253613   1.482   2.058   5.961
17791WAT      O53614   3.191   5.795   2.669
17791WAT     H153615   3.287   5.779   2.647
17791WAT     H253616   3.134   5.758   2.596
17792WAT      O53617   9.335   3.560   8.712
17792WAT     H153618   9.373   3.480   8.665
17792WAT     H253619   9.311   3.535   8.806
17793WAT      O53620   4.335   7.672   8.272
17793WAT     H153621   4.307   7.763   8.302
17793WAT     H253622   4.427   7.652   8.305
17794WAT      O53623   7.794   0.558   1.423
17794WAT     H153624   7.873   0.600   1.378
17794WAT     H253625   7.710   0.596   1.386
17795WAT      O53626   7.383   5.227   3.850
17795WAT     H153627   7.352   5.247   3.757
17795WAT     H253628   7.341   5.291   3.914
17796WAT      O53629   9.363   9.724   3.582
17796WAT     H153630   9.359   9.653   3.653
17796WAT     H253631   9.294   9.794   3.602
17797WAT      O53632   5.690   1.624   4.581
17797WAT     H153633   5.759   1.598   4.513
17797WAT     H253634   5.631   1.546   4.601
17798WAT      O53635   9.577   7.628   6.818
17798WAT     H153636   9.565   7.560   6.746
17798WAT     H253637   9.490   7.671   6.839
17799WAT      O53638   0.515   2.823   0.509
17799WAT     H153639   0.531   2.859   0.418
17799WAT     H253640   0.493   2.898   0.572
17800WAT      O53641   6.964   0.353   2.974
17800WAT     H153642   6.907   0.315   3.046
17800WAT     H253643   7.018   0.429   3.011
17801WAT      O53644   0.830   2.396   0.937
17801WAT     H153645   0.779   2.360   0.859
17801WAT     H253646   0.769   2.402   1.017
17802WAT      O53647   2.156   6.390   8.478
17802WAT     H153648   2.252   6.414   8.487
17802WAT     H253649   2.142   6.339   8.393
17803WAT      O53650   7.643   6.836   3.578
17803WAT     H153651   7.695   6.909   3.623
17803WAT     H253652   7.648   6.848   3.479
17804WAT      O53653   8.398   8.330   2.479
17804WAT     H153654   8.374   8.235   2.460
17804WAT     H253655   8.337   8.391   2.428
17805WAT      O53656   8.278   8.744   3.755
17805WAT     H153657   8.239   8.835   3.770
17805WAT     H253658   8.377   8.751   3.747
17806WAT      O53659   1.629   8.737   2.143
17806WAT     H153660   1.612   8.685   2.226
17806WAT     H253661   1.693   8.812   2.162
17807WAT      O53662   6.386   4.345   4.684
17807WAT     H153663   6.425   4.305   4.766
17807WAT     H253664   6.351   4.437   4.704
17808WAT      O53665   3.052   7.916   6.274
17808WAT     H153666   3.082   7.880   6.363
17808WAT     H253667   3.132   7.934   6.217
17809WAT      O53668   2.854   1.237   2.159
17809WAT     H153669   2.888   1.203   2.071
17809WAT     H253670   2.866   1.166   2.229
17810WAT      O53671   4.788   0.041   3.824
17810WAT     H153672   4.703   0.002   3.790
17810WAT     H253673   4.777   0.140   3.835
17811WAT      O53674   0.392   6.779   6.369
17811WAT     H153675   0.362   6.862   6.322
17811WAT     H253676   0.441   6.804   6.452
17812WAT      O53677   3.449   5.851   5.585
17812WAT     H153678   3.445   5.949   5.606
17812WAT     H253679   3.357   5.812   5.594
17813WAT      O53680   0.229   0.154   6.778
17813WAT     H153681   0.238   0.236   6.722
17813WAT     H253682   0.314   0.102   6.777
17814WAT      O53683   9.515   1.512   0.448
17814WAT     H153684   9.534   1.609   0.437
17814WAT     H253685   9.438   1.499   0.511
17815WAT      O53686   8.444   5.150   6.568
17815WAT     H153687   8.401   5.226   6.520
17815WAT     H253688   8.459   5.174   6.664
17816WAT      O53689   7.726   7.373   2.152
17816WAT     H153690   7.727   7.281   2.113
17816WAT     H253691   7.774   7.372   2.240
17817WAT      O53692   4.359   1.059   8.929
17817WAT     H153693   4.357   0.981   8.992
17817WAT     H253694   4.394   1.030   8.840
17818WAT      O53695   8.758   2.429   0.100
17818WAT     H153696   8.725   2.362   0.034
17818WAT     H253697   8.816   2.496   0.054
17819WAT      O53698   7.650   8.582   1.869
17819WAT     H153699   7.673   8.522   1.945
17819WAT     H253700   7.676   8.538   1.783
17820WAT      O53701   6.470   4.813   0.785
17820WAT     H153702   6.501   4.908   0.786
17820WAT     H253703   6.415   4.795   0.866
17821WAT      O53704   8.615   6.849   3.044
17821WAT     H153705   8.681   6.898   3.101
17821WAT     H253706   8.591   6.905   2.964
17822WAT      O53707   5.124   2.678   7.856
17822WAT     H153708   5.065   2.758   7.842
17822WAT     H253709   5.121   2.620   7.774
17823WAT      O53710   1.890   9.249   2.106
17823WAT     H153711   1.811   9.295   2.063
17823WAT     H253712   1.974   9.290   2.072
17824WAT      O53713   4.537   5.853   9.879
17824WAT     H153714   4.442   5.881   9.893
17824WAT     H253715   4.541   5.755   9.862
17825WAT      O53716   2.124   2.263   0.461
17825WAT     H153717   2.067   2.268   0.380
17825WAT     H253718   2.115   2.172   0.502
17826WAT      O53719   3.606   7.510   1.829
17826WAT     H153720   3.679   7.575   1.851
17826WAT     H253721   3.596   7.503   1.730
17827WAT      O53722   0.908   9.452   6.027
17827WAT     H153723   0.885   9.391   6.103
17827WAT     H253724   0.917   9.545   6.061
17828WAT      O53725   4.105   4.072   5.768
17828WAT     H153726   4.025   4.080   5.709
17828WAT     H253727   4.167   4.003   5.731
17829WAT      O53728   2.752   1.882   6.159
17829WAT     H153729   2.781   1.977   6.153
17829WAT     H253730   2.821   1.823   6.116
17830WAT      O53731   1.057   5.369   7.011
17830WAT     H153732   1.131   5.352   6.947
17830WAT     H253733   1.043   5.468   7.021
17831WAT      O53734   1.530   4.607   2.157
17831WAT     H153735   1.503   4.627   2.251
17831WAT     H253736   1.449   4.606   2.099
17832WAT      O53737   0.399   7.095   9.277
17832WAT     H153738   0.312   7.139   9.253
17832WAT     H253739   0.391   7.051   9.366
17833WAT      O53740   3.909   4.103   7.650
17833WAT     H153741   3.939   4.120   7.557
17833WAT     H253742   3.860   4.184   7.685
17834WAT      O53743   3.200   9.282   1.979
17834WAT     H153744   3.246   9.291   1.891
17834WAT     H253745   3.243   9.342   2.047
17835WAT      O53746   4.074   7.393   8.023
17835WAT     H153747   4.085   7.308   7.972
17835WAT     H253748   4.113   7.469   7.970
17836WAT      O53749   7.274   3.125   3.520
17836WAT     H153750   7.262   3.199   3.586
17836WAT     H253751   7.261   3.161   3.427
17837WAT      O53752   4.212   3.200   5.162
17837WAT     H153753   4.153   3.157   5.094
17837WAT     H253754   4.164   3.207   5.249
17838WAT      O53755   5.491   8.394   3.676
17838WAT     H153756   5.538   8.307   3.659
17838WAT     H253757   5.499   8.417   3.773
17839WAT      O53758   6.865   6.429   2.414
17839WAT     H153759   6.844   6.475   2.500
17839WAT     H253760   6.962   6.441   2.392
17840WAT      O53761   7.041   0.447   5.237
17840WAT     H153762   6.985   0.464   5.156
17840WAT     H253763   7.116   0.513   5.240
17841WAT      O53764   6.204   3.635   7.210
17841WAT     H153765   6.260   3.552   7.218
17841WAT     H253766   6.122   3.626   7.266
17842WAT      O53767   2.141   3.546   9.453
17842WAT     H153768   2.161   3.642   9.476
17842WAT     H253769   2.227   3.497   9.438
17843WAT      O53770   6.009   7.016   5.054
17843WAT     H153771   5.997   7.004   5.153
17843WAT     H253772   6.004   7.113   5.031
17844WAT      O53773   1.097   4.330   5.495
17844WAT     H153774   1.089   4.241   5.450
17844WAT     H253775   1.013   4.349   5.547
17845WAT      O53776   8.807   5.088   2.703
17845WAT     H153777   8.767   5.179   2.695
17845WAT     H253778   8.875   5.075   2.631
17846WAT      O53779   0.466   9.181   7.530
17846WAT     H153780   0.492   9.127   7.450
17846WAT     H253781   0.464   9.278   7.505
17847WAT      O53782   9.851   9.053   2.618
17847WAT     H153783   9.772   9.007   2.658
17847WAT     H253784   9.860   9.028   2.522
17848WAT      O53785   0.180   1.277   6.705
17848WAT     H153786   0.097   1.307   6.752
17848WAT     H253787   0.165   1.280   6.606
17849WAT      O53788   5.185   2.892   1.124
17849WAT     H153789   5.252   2.941   1.068
17849WAT     H253790   5.096   2.936   1.116
17850WAT      O53791   7.873   9.017   6.528
17850WAT     H153792   7.829   9.054   6.611
17850WAT     H253793   7.968   9.049   6.525
17851WAT      O53794   2.137   2.382   7.534
17851WAT     H153795   2.078   2.407   7.457
17851WAT     H253796   2.217   2.442   7.535
17852WAT      O53797   0.335   9.542   2.557
17852WAT     H153798   0.370   9.635   2.565
17852WAT     H253799   0.270   9.524   2.631
17853WAT      O53800   3.690   2.389   5.501
17853WAT     H153801   3.626   2.360   5.430
17853WAT     H253802   3.659   2.355   5.590
17854WAT      O53803   9.616   4.500   2.270
17854WAT     H153804   9.541   4.434   2.281
17854WAT     H253805   9.658   4.519   2.359
17855WAT      O53806   8.790   2.945   9.475
17855WAT     H153807   8.709   2.914   9.427
17855WAT     H253808   8.843   2.866   9.506
17856WAT      O53809   1.210   7.340   3.342
17856WAT     H153810   1.226   7.280   3.264
17856WAT     H253811   1.289   7.399   3.355
17857WAT      O53812   1.021   2.871   3.185
17857WAT     H153813   0.976   2.885   3.273
17857WAT     H253814   1.044   2.960   3.146
17858WAT      O53815   4.441   2.139   1.341
17858WAT     H153816   4.431   2.078   1.263
17858WAT     H253817   4.474   2.087   1.420
17859WAT      O53818   6.636   8.041   9.504
17859WAT     H153819   6.581   8.110   9.552
17859WAT     H253820   6.710   8.087   9.455
17860WAT      O53821   6.603   3.479   6.141
17860WAT     H153822   6.657   3.418   6.082
17860WAT     H253823   6.612   3.573   6.108
17861WAT      O53824   5.879   7.842   5.873
17861WAT     H153825   5.839   7.809   5.788
17861WAT     H253826   5.969   7.800   5.886
17862WAT      O53827   9.718   5.645   4.476
17862WAT     H153828   9.801   5.676   4.521
17862WAT     H253829   9.675   5.721   4.428
17863WAT      O53830   4.457   2.938   1.036
17863WAT     H153831   4.524   2.943   0.962
17863WAT     H253832   4.414   2.848   1.035
17864WAT      O53833   9.497   5.885   7.361
17864WAT     H153834   9.479   5.929   7.449
17864WAT     H253835   9.426   5.816   7.343
17865WAT      O53836   3.387   9.351   8.564
17865WAT     H153837   3.387   9.290   8.643
17865WAT     H253838   3.468   9.409   8.567
17866WAT      O53839   1.192   7.196   8.985
17866WAT     H153840   1.108   7.215   8.934
17866WAT     H253841   1.235   7.282   9.012
17867WAT      O53842   3.054   1.220   7.463
17867WAT     H153843   3.094   1.271   7.540
17867WAT     H253844   3.109   1.138   7.446
17868WAT      O53845   9.451   2.172   3.285
17868WAT     H153846   9.538   2.217   3.306
17868WAT     H253847   9.423   2.196   3.193
17869WAT      O53848   4.897   1.425   6.180
17869WAT     H153849   4.901   1.325   6.181
17869WAT     H253850   4.936   1.459   6.095
17870WAT      O53851   3.174   3.542   4.950
17870WAT     H153852   3.222   3.608   4.892
17870WAT     H253853   3.116   3.484   4.894
17871WAT      O53854   5.430   4.270   9.780
17871WAT     H153855   5.519   4.251   9.823
17871WAT     H253856   5.358   4.266   9.850
17872WAT      O53857   0.051   0.377   7.773
17872WAT     H153858   0.058   0.297   7.714
17872WAT     H253859  -0.002   0.448   7.727
17873WAT      O53860   3.894   1.744   2.488
17873WAT     H153861   3.818   1.735   2.423
17873WAT     H253862   3.969   1.683   2.460
17874WAT      O53863   9.713   6.685   7.906
17874WAT     H153864   9.619   6.714   7.923
17874WAT     H253865   9.754   6.654   7.991
17875WAT      O53866   6.600   1.955   5.167
17875WAT     H153867   6.557   1.880   5.217
17875WAT     H253868   6.648   1.918   5.087
17876WAT      O53869   7.749   7.237   3.846
17876WAT     H153870   7.650   7.254   3.847
17876WAT     H253871   7.782   7.231   3.940
17877WAT      O53872   8.564   3.089   4.923
17877WAT     H153873   8.536   3.185   4.931
17877WAT     H253874   8.484   3.030   4.933
17878WAT      O53875   8.465   6.009   8.851
17878WAT     H153876   8.441   6.099   8.813
17878WAT     H253877   8.384   5.951   8.853
17879WAT      O53878   0.699   7.293   0.094
17879WAT     H153879   0.684   7.207   0.044
17879WAT     H253880   0.660   7.369   0.042
17880WAT      O53881   2.901   9.588   0.212
17880WAT     H153882   2.976   9.640   0.172
17880WAT     H253883   2.906   9.593   0.311
17881WAT      O53884   4.478   2.416   3.755
17881WAT     H153885   4.442   2.509   3.744
17881WAT     H253886   4.567   2.409   3.710
17882WAT      O53887   6.785   6.964   3.653
17882WAT     H153888   6.685   6.960   3.644
17882WAT     H253889   6.824   6.876   3.627
17883WAT      O53890   9.639   0.603   6.177
17883WAT     H153891   9.722   0.657   6.166
17883WAT     H253892   9.560   0.664   6.182
17884WAT      O53893   1.096   6.834   0.528
17884WAT     H153894   1.120   6.858   0.434
17884WAT     H253895   1.072   6.917   0.579
17885WAT      O53896   3.129   1.655   3.484
17885WAT     H153897   3.061   1.688   3.550
17885WAT     H253898   3.158   1.731   3.426
17886WAT      O53899   5.772   7.170   3.527
17886WAT     H153900   5.806   7.238   3.592
17886WAT     H253901   5.715   7.103   3.575
17887WAT      O53902   8.300   8.798   4.838
17887WAT     H153903   8.280   8.837   4.928
17887WAT     H253904   8.387   8.749   4.841
17888WAT      O53905   6.349   0.230   5.279
17888WAT     H153906   6.424   0.295   5.291
17888WAT     H253907   6.275   0.274   5.228
17889WAT      O53908   8.882   6.860   7.390
17889WAT     H153909   8.862   6.947   7.436
17889WAT     H253910   8.928   6.878   7.303
17890WAT      O53911   1.142   3.871   2.713
17890WAT     H153912   1.170   3.881   2.618
17890WAT     H253913   1.047   3.901   2.724
17891WAT      O53914   3.917   0.004   7.990
17891WAT     H153915   3.995  -0.020   7.931
17891WAT     H253916   3.943   0.079   8.050
17892WAT      O53917   0.094   6.750   4.675
17892WAT     H153918   0.138   6.749   4.585
17892WAT     H253919   0.101   6.660   4.716
17893WAT      O53920   7.752   8.923   9.499
17893WAT     H153921   7.656   8.933   9.475
17893WAT     H253922   7.775   8.989   9.570
17894WAT      O53923   7.252   3.511   3.148
17894WAT     H153924   7.229   3.605   3.123
17894WAT     H253925   7.184   3.476   3.212
17895WAT      O53926   8.360   7.172   2.697
17895WAT     H153927   8.377   7.235   2.622
17895WAT     H253928   8.262   7.150   2.702
17896WAT      O53929   0.174   9.137   4.226
17896WAT     H153930   0.116   9.066   4.266
17896WAT     H253931   0.119   9.195   4.166
17897WAT      O53932   3.818   9.098   7.081
17897WAT     H153933   3.875   9.179   7.090
17897WAT     H253934   3.825   9.042   7.163
17898WAT      O53935   4.987   3.922   6.999
17898WAT     H153936   5.023   4.009   6.965
17898WAT     H253937   4.896   3.937   7.039
17899WAT      O53938   0.221   0.391   6.640
17899WAT     H153939   0.282   0.469   6.653
17899WAT     H253940   0.128   0.424   6.624
17900WAT      O53941   3.703   9.622   1.750
17900WAT     H153942   3.658   9.693   1.696
17900WAT     H253943   3.670   9.626   1.844
17901WAT      O53944   4.053   7.847   1.999
17901WAT     H153945   4.074   7.891   1.911
17901WAT     H253946   4.138   7.834   2.050
17902WAT      O53947   6.058   8.025   0.364
17902WAT     H153948   6.128   8.047   0.432
17902WAT     H253949   6.043   7.926   0.364
17903WAT      O53950   4.227   6.293   9.434
17903WAT     H153951   4.275   6.213   9.399
17903WAT     H253952   4.288   6.345   9.494
17904WAT      O53953   9.138   2.581   7.268
17904WAT     H153954   9.184   2.625   7.190
17904WAT     H253955   9.195   2.508   7.304
17905WAT      O53956   0.474   2.601   0.934
17905WAT     H153957   0.486   2.506   0.962
17905WAT     H253958   0.383   2.633   0.961
17906WAT      O53959   4.450   3.616   6.715
17906WAT     H153960   4.440   3.661   6.804
17906WAT     H253961   4.398   3.530   6.715
17907WAT      O53962   2.591   0.792   9.134
17907WAT     H153963   2.524   0.718   9.123
17907WAT     H253964   2.679   0.753   9.159
17908WAT      O53965   2.588   8.970   3.984
17908WAT     H153966   2.516   8.928   3.929
17908WAT     H253967   2.561   8.972   4.080
17909WAT      O53968   8.223   5.075   7.726
17909WAT     H153969   8.303   5.015   7.719
17909WAT     H253970   8.203   5.093   7.822
17910WAT      O53971   8.103   2.177   9.165
17910WAT     H153972   8.015   2.181   9.212
17910WAT     H253973   8.109   2.094   9.111
17911WAT      O53974   6.642   1.685   5.686
17911WAT     H153975   6.604   1.741   5.759
17911WAT     H253976   6.570   1.630   5.644
17912WAT      O53977   4.254   3.036   6.179
17912WAT     H153978   4.324   2.967   6.161
17912WAT     H253979   4.283   3.124   6.141
17913WAT      O53980   1.033   6.047   6.160
17913WAT     H153981   0.946   6.096   6.151
17913WAT     H253982   1.029   5.961   6.110
17914WAT      O53983   0.642   6.544   4.204
17914WAT     H153984   0.573   6.615   4.189
17914WAT     H253985   0.639   6.514   4.299
17915WAT      O53986   9.656   2.186   9.004
17915WAT     H153987   9.704   2.273   9.017
17915WAT     H253988   9.705   2.114   9.053
17916WAT      O53989   9.868   8.972   4.371
17916WAT     H153990   9.780   9.006   4.401
17916WAT     H253991   9.923   8.946   4.451
17917WAT      O53992   9.626   0.519   8.020
17917WAT     H153993   9.559   0.591   8.039
17917WAT     H253994   9.713   0.561   7.992
17918WAT      O53995   8.608   6.267   0.808
17918WAT     H153996   8.700   6.301   0.828
17918WAT     H253997   8.610   6.214   0.723
17919WAT      O53998   1.248   7.055   2.803
17919WAT     H153999   1.189   6.979   2.831
17919WAT     H254000   1.211   7.098   2.721
17920WAT      O54001   8.840   3.357   4.746
17920WAT     H154002   8.746   3.336   4.719
17920WAT     H254003   8.896   3.275   4.737
17921WAT      O54004   7.170   3.755   3.097
17921WAT     H154005   7.244   3.796   3.150
17921WAT     H254006   7.170   3.795   3.005
17922WAT      O54007   5.430   9.617   5.807
17922WAT     H154008   5.464   9.647   5.718
17922WAT     H254009   5.396   9.696   5.858
17923WAT      O54010   6.504   2.332   3.291
17923WAT     H154011   6.602   2.347   3.306
17923WAT     H254012   6.470   2.399   3.224
17924WAT      O54013   6.505   3.668   7.588
17924WAT     H154014   6.480   3.618   7.671
17924WAT     H254015   6.550   3.753   7.613
17925WAT      O54016   8.412   1.490   3.658
17925WAT     H154017   8.414   1.476   3.559
17925WAT     H254018   8.355   1.569   3.679
17926WAT      O54019   1.233   6.035   3.820
17926WAT     H154020   1.270   6.103   3.757
17926WAT     H254021   1.212   6.078   3.908
17927WAT      O54022   1.102   1.938   9.835
17927WAT     H154023   1.015   1.986   9.843
17927WAT     H254024   1.136   1.944   9.741
17928WAT      O54025   7.545   8.495   3.023
17928WAT     H154026   7.516   8.465   3.114
17928WAT     H254027   7.603   8.425   2.982
17929WAT      O54028   6.164   7.928   1.019
17929WAT     H154029   6.139   7.844   0.971
17929WAT     H254030   6.212   7.905   1.103
17930WAT      O54031   4.764   9.188   5.816
17930WAT     H154032   4.805   9.098   5.801
17930WAT     H254033   4.814   9.257   5.763
17931WAT      O54034   4.702   7.835   2.900
17931WAT     H154035   4.689   7.796   2.991
17931WAT     H254036   4.614   7.844   2.854
17932WAT      O54037   1.328   1.416   1.919
17932WAT     H154038   1.358   1.321   1.927
17932WAT     H254039   1.278   1.428   1.833
17933WAT      O54040   6.908   4.441   4.250
17933WAT     H154041   6.818   4.480   4.232
17933WAT     H254042   6.905   4.342   4.238
17934WAT      O54043   0.084   3.369   7.703
17934WAT     H154044   0.179   3.339   7.692
17934WAT     H254045   0.065   3.444   7.640
17935WAT      O54046   0.624   5.874   0.871
17935WAT     H154047   0.690   5.945   0.896
17935WAT     H254048   0.564   5.910   0.799
17936WAT      O54049   6.494   4.864   8.015
17936WAT     H154050   6.494   4.790   7.948
17936WAT     H254051   6.534   4.946   7.974
17937WAT      O54052   0.545   7.657   3.882
17937WAT     H154053   0.511   7.563   3.888
17937WAT     H254054   0.558   7.681   3.786
17938WAT      O54055   1.738   3.279   3.041
17938WAT     H154056   1.784   3.304   3.126
17938WAT     H254057   1.644   3.313   3.042
17939WAT      O54058   7.109   6.474   3.854
17939WAT     H154059   7.140   6.397   3.798
17939WAT     H254060   7.074   6.440   3.941
17940WAT      O54061   2.854   6.011   4.130
17940WAT     H154062   2.851   6.078   4.204
17940WAT     H254063   2.896   5.927   4.163
17941WAT      O54064   3.797   7.495   8.066
17941WAT     H154065   3.804   7.585   8.023
17941WAT     H254066   3.888   7.463   8.092
17942WAT      O54067   4.687   9.509   0.922
17942WAT     H154068   4.722   9.480   1.011
17942WAT     H254069   4.685   9.609   0.918
17943WAT      O54070   7.706   8.363   1.684
17943WAT     H154071   7.715   8.272   1.725
17943WAT     H254072   7.796   8.407   1.683
17944WAT      O54073   0.179   3.781   6.294
17944WAT     H154074   0.176   3.878   6.317
17944WAT     H254075   0.272   3.755   6.270
17945WAT      O54076   3.356   6.904   2.167
17945WAT     H154077   3.325   6.945   2.253
17945WAT     H254078   3.404   6.974   2.113
17946WAT      O54079   2.126   9.457   7.440
17946WAT     H154080   2.193   9.414   7.379
17946WAT     H254081   2.056   9.391   7.465
17947WAT      O54082   3.335   1.378   1.683
17947WAT     H154083   3.238   1.404   1.692
17947WAT     H254084   3.366   1.400   1.591
17948WAT      O54085   7.794   7.172   1.341
17948WAT     H154086   7.824   7.252   1.289
17948WAT     H254087   7.714   7.196   1.395
17949WAT      O54088   2.021   7.765   4.873
17949WAT     H154089   2.037   7.671   4.843
17949WAT     H254090   1.925   7.789   4.857
17950WAT      O54091   7.436   4.337   2.184
17950WAT     H154092   7.505   4.280   2.140
17950WAT     H254093   7.347   4.320   2.142
17951WAT      O54094   3.073   4.783   9.658
17951WAT     H154095   3.137   4.724   9.608
17951WAT     H254096   3.052   4.864   9.603
17952WAT      O54097   9.751   9.726   2.066
17952WAT     H154098   9.654   9.707   2.051
17952WAT     H254099   9.792   9.759   1.981
17953WAT      O54100   6.945   9.097   6.336
17953WAT     H154101   6.939   9.195   6.318
17953WAT     H254102   7.004   9.081   6.415
17954WAT      O54103   8.113   9.235   4.812
17954WAT     H154104   8.031   9.236   4.755
17954WAT     H254105   8.090   9.259   4.906
17955WAT      O54106   9.832   3.706   5.859
17955WAT     H154107   9.792   3.763   5.787
17955WAT     H254108   9.874   3.764   5.928
17956WAT      O54109   4.956   3.041   1.608
17956WAT     H154110   4.874   3.001   1.567
17956WAT     H254111   5.021   3.064   1.536
17957WAT      O54112   3.631   8.283   7.492
17957WAT     H154113   3.542   8.328   7.480
17957WAT     H254114   3.704   8.350   7.478
17958WAT      O54115   0.881   3.881   3.327
17958WAT     H154116   0.962   3.840   3.369
17958WAT     H254117   0.814   3.900   3.399
17959WAT      O54118   4.844   9.224   6.078
17959WAT     H154119   4.798   9.243   5.991
17959WAT     H254120   4.778   9.187   6.143
17960WAT      O54121   6.333   5.138   6.413
17960WAT     H154122   6.421   5.181   6.436
17960WAT     H254123   6.308   5.074   6.486
17961WAT      O54124   3.086   3.848   5.174
17961WAT     H154125   3.106   3.756   5.206
17961WAT     H254126   3.034   3.843   5.089
17962WAT      O54127   6.706   8.011   7.989
17962WAT     H154128   6.762   8.082   7.947
17962WAT     H254129   6.650   7.967   7.920
17963WAT      O54130   7.229   9.801   0.158
17963WAT     H154131   7.281   9.740   0.218
17963WAT     H254132   7.135   9.767   0.151
17964WAT      O54133   4.873   4.839   9.133
17964WAT     H154134   4.837   4.748   9.110
17964WAT     H254135   4.959   4.854   9.085
17965WAT      O54136   0.416   6.781   5.461
17965WAT     H154137   0.343   6.790   5.528
17965WAT     H254138   0.420   6.863   5.404
17966WAT      O54139   7.656   0.483   3.866
17966WAT     H154140   7.689   0.503   3.774
17966WAT     H254141   7.733   0.457   3.924
17967WAT      O54142   8.556   6.964   1.632
17967WAT     H154143   8.491   6.901   1.675
17967WAT     H254144   8.506   7.038   1.587
17968WAT      O54145   0.391   1.090   7.348
17968WAT     H154146   0.366   1.146   7.269
17968WAT     H254147   0.358   1.133   7.432
17969WAT      O54148   8.318   1.123   7.985
17969WAT     H154149   8.373   1.177   7.921
17969WAT     H254150   8.292   1.037   7.940
17970WAT      O54151   9.862   5.260   5.985
17970WAT     H154152   9.940   5.201   5.967
17970WAT     H254153   9.828   5.243   6.078
17971WAT      O54154   0.293   9.515   3.138
17971WAT     H154155   0.375   9.458   3.145
17971WAT     H254156   0.235   9.480   3.064
17972WAT      O54157   0.856   2.902   8.359
17972WAT     H154158   0.828   2.811   8.390
17972WAT     H254159   0.896   2.896   8.267
17973WAT      O54160   5.307   4.882   1.114
17973WAT     H154161   5.266   4.933   1.190
17973WAT     H254162   5.391   4.838   1.145
17974WAT      O54163   3.299   7.123   0.263
17974WAT     H154164   3.287   7.038   0.212
17974WAT     H254165   3.269   7.109   0.358
17975WAT      O54166   4.004   3.644   7.005
17975WAT     H154167   3.911   3.672   7.029
17975WAT     H254168   4.043   3.710   6.940
17976WAT      O54169   3.641   0.134   5.314
17976WAT     H154170   3.680   0.042   5.310
17976WAT     H254171   3.713   0.201   5.296
17977WAT      O54172   5.529   3.857   3.386
17977WAT     H154173   5.577   3.871   3.300
17977WAT     H254174   5.444   3.807   3.369
17978WAT      O54175   5.935   4.957   2.534
17978WAT     H154176   5.892   4.947   2.444
17978WAT     H254177   6.004   5.029   2.530
17979WAT      O54178   3.430   5.199   7.074
17979WAT     H154179   3.500   5.171   7.140
17979WAT     H254180   3.391   5.117   7.031
17980WAT      O54181   7.367   2.509   7.151
17980WAT     H154182   7.426   2.517   7.232
17980WAT     H254183   7.424   2.493   7.070
17981WAT      O54184   7.685   2.097   3.334
17981WAT     H154185   7.678   2.152   3.417
17981WAT     H254186   7.744   2.018   3.350
17982WAT      O54187   3.826   0.531   3.905
17982WAT     H154188   3.730   0.527   3.879
17982WAT     H254189   3.881   0.559   3.825
17983WAT      O54190   0.200   1.180   5.902
17983WAT     H154191   0.231   1.109   5.839
17983WAT     H254192   0.203   1.269   5.856
17984WAT      O54193   5.783   5.535   9.303
17984WAT     H154194   5.832   5.569   9.383
17984WAT     H254195   5.730   5.453   9.328
17985WAT      O54196   1.279   6.473   3.047
17985WAT     H154197   1.355   6.435   2.993
17985WAT     H254198   1.241   6.401   3.105
17986WAT      O54199   2.899   9.629   1.830
17986WAT     H154200   2.846   9.569   1.890
17986WAT     H254201   2.862   9.722   1.835
17987WAT      O54202   9.155   6.155   3.528
17987WAT     H154203   9.224   6.228   3.530
17987WAT     H254204   9.072   6.186   3.575
17988WAT      O54205   3.490   0.570   1.064
17988WAT     H154206   3.436   0.497   1.023
17988WAT     H254207   3.573   0.584   1.011
17989WAT      O54208   7.792   4.612   0.363
17989WAT     H154209   7.889   4.591   0.356
17989WAT     H254210   7.759   4.586   0.454
17990WAT      O54211   2.822   4.115   2.993
17990WAT     H154212   2.801   4.031   3.044
17990WAT     H254213   2.771   4.191   3.032
17991WAT      O54214   6.615   4.739   3.357
17991WAT     H154215   6.608   4.644   3.390
17991WAT     H254216   6.696   4.782   3.397
17992WAT      O54217   0.305   3.305   0.770
17992WAT     H154218   0.295   3.235   0.700
17992WAT     H254219   0.357   3.269   0.847
17993WAT      O54220   5.396   3.509   7.751
17993WAT     H154221   5.455   3.429   7.762
17993WAT     H254222   5.446   3.592   7.776
17994WAT      O54223   8.408   6.568   9.183
17994WAT     H154224   8.362   6.517   9.110
17994WAT     H254225   8.500   6.531   9.196
17995WAT      O54226   1.178   6.953   8.737
17995WAT     H154227   1.248   6.932   8.805
17995WAT     H254228   1.216   7.012   8.666
17996WAT      O54229   1.038   7.056   6.790
17996WAT     H154230   1.094   7.124   6.839
17996WAT     H254231   1.020   7.089   6.698
17997WAT      O54232   6.327   1.480   9.350
17997WAT     H154233   6.340   1.570   9.393
17997WAT     H254234   6.416   1.447   9.316
17998WAT      O54235   2.681   1.466   7.111
17998WAT     H154236   2.647   1.427   7.197
17998WAT     H254237   2.756   1.529   7.131
17999WAT      O54238   0.100   0.059   1.712
17999WAT     H154239   0.063   0.001   1.785
17999WAT     H254240   0.025   0.101   1.661
18000WAT      O54241   7.772   2.957   5.893
18000WAT     H154242   7.725   2.872   5.917
18000WAT     H254243   7.865   2.936   5.863
18001WAT      O54244   2.941   6.560   5.724
18001WAT     H154245   2.906   6.640   5.675
18001WAT     H254246   3.038   6.548   5.704
18002WAT      O54247   0.546   0.309   1.731
18002WAT     H154248   0.599   0.263   1.659
18002WAT     H254249   0.467   0.253   1.755
18003WAT      O54250   1.526   6.723   6.290
18003WAT     H154251   1.489   6.698   6.379
18003WAT     H254252   1.607   6.780   6.302
18004WAT      O54253   2.668   8.810   7.042
18004WAT     H154254   2.727   8.733   7.019
18004WAT     H254255   2.575   8.777   7.058
18005WAT      O54256   9.787   8.314   1.437
18005WAT     H154257   9.810   8.400   1.482
18005WAT     H254258   9.839   8.239   1.480
18006WAT      O54259   7.739   5.084   4.352
18006WAT     H154260   7.699   5.009   4.405
18006WAT     H254261   7.739   5.060   4.255
18007WAT      O54262   3.700   3.550   4.118
18007WAT     H154263   3.760   3.621   4.155
18007WAT     H254264   3.719   3.463   4.163
18008WAT      O54265   3.195   8.399   2.169
18008WAT     H154266   3.255   8.326   2.137
18008WAT     H254267   3.176   8.387   2.267
18009WAT      O54268   6.541   0.899   9.709
18009WAT     H154269   6.461   0.953   9.682
18009WAT     H254270   6.593   0.949   9.779
18010WAT      O54271   3.359   2.681   4.746
18010WAT     H154272   3.290   2.720   4.808
18010WAT     H254273   3.355   2.581   4.750
18011WAT      O54274   2.540   0.848   2.251
18011WAT     H154275   2.590   0.783   2.308
18011WAT     H254276   2.516   0.928   2.306
18012WAT      O54277   4.682   5.588   8.092
18012WAT     H154278   4.742   5.656   8.050
18012WAT     H254279   4.587   5.605   8.065
18013WAT      O54280   1.714   5.469   2.415
18013WAT     H154281   1.785   5.452   2.483
18013WAT     H254282   1.727   5.406   2.338
18014WAT      O54283   6.873   5.314   8.509
18014WAT     H154284   6.852   5.409   8.486
18014WAT     H254285   6.790   5.260   8.508
18015WAT      O54286   2.029   8.816   3.538
18015WAT     H154287   2.121   8.827   3.574
18015WAT     H254288   2.025   8.734   3.480
18016WAT      O54289   2.727   4.912   4.564
18016WAT     H154290   2.736   4.816   4.538
18016WAT     H254291   2.633   4.942   4.548
18017WAT      O54292   2.241   7.865   6.449
18017WAT     H154293   2.246   7.767   6.468
18017WAT     H254294   2.305   7.913   6.508
18018WAT      O54295   0.302   8.929   1.975
18018WAT     H154296   0.275   8.993   1.903
18018WAT     H254297   0.223   8.909   2.033
18019WAT      O54298   6.244   2.445   8.405
18019WAT     H154299   6.273   2.468   8.498
18019WAT     H254300   6.275   2.516   8.342
18020WAT      O54301   2.416   6.033   5.121
18020WAT     H154302   2.454   5.971   5.052
18020WAT     H254303   2.436   6.127   5.095
18021WAT      O54304   4.376   5.570   9.456
18021WAT     H154305   4.424   5.656   9.435
18021WAT     H254306   4.280   5.590   9.475
18022WAT      O54307   3.036   1.638   6.392
18022WAT     H154308   3.029   1.738   6.392
18022WAT     H254309   3.042   1.605   6.486
18023WAT      O54310   9.218   1.607   2.409
18023WAT     H154311   9.130   1.573   2.441
18023WAT     H254312   9.241   1.691   2.459
18024WAT      O54313   8.288   1.515   8.332
18024WAT     H154314   8.296   1.614   8.330
18024WAT     H254315   8.205   1.487   8.284
18025WAT      O54316   5.322   5.579   1.859
18025WAT     H154317   5.242   5.587   1.919
18025WAT     H254318   5.394   5.528   1.907
18026WAT      O54319   0.468   3.561   6.215
18026WAT     H154320   0.497   3.653   6.239
18026WAT     H254321   0.370   3.561   6.196
18027WAT      O54322   4.533   9.061   4.752
18027WAT     H154323   4.553   8.988   4.687
18027WAT     H254324   4.435   9.063   4.771
18028WAT      O54325   3.154   9.250   0.960
18028WAT     H154326   3.106   9.162   0.961
18028WAT     H254327   3.227   9.249   1.028
18029WAT      O54328   7.693   0.056   0.541
18029WAT     H154329   7.599   0.029   0.519
18029WAT     H254330   7.698   0.083   0.637
18030WAT      O54331   3.634   6.982   8.002
18030WAT     H154332   3.576   7.063   7.999
18030WAT     H254333   3.595   6.917   8.068
18031WAT      O54334   0.744   3.294   1.420
18031WAT     H154335   0.770   3.198   1.410
18031WAT     H254336   0.715   3.311   1.514
18032WAT      O54337   6.043   1.534   6.135
18032WAT     H154338   6.058   1.436   6.151
18032WAT     H254339   6.108   1.567   6.067
18033WAT      O54340   6.772   3.388   3.518
18033WAT     H154341   6.770   3.292   3.492
18033WAT     H254342   6.724   3.400   3.605
18034WAT      O54343   0.713   3.788   0.785
18034WAT     H154344   0.724   3.885   0.763
18034WAT     H254345   0.637   3.777   0.850
18035WAT      O54346   4.528   9.354   3.194
18035WAT     H154347   4.557   9.265   3.229
18035WAT     H254348   4.550   9.361   3.097
18036WAT      O54349   9.594   1.084   7.401
18036WAT     H154350   9.649   1.128   7.472
18036WAT     H254351   9.524   1.027   7.444
18037WAT      O54352   1.427   0.627   1.051
18037WAT     H154353   1.357   0.697   1.037
18037WAT     H254354   1.383   0.537   1.054
18038WAT      O54355   0.179   5.677   9.113
18038WAT     H154356   0.266   5.665   9.064
18038WAT     H254357   0.195   5.730   9.196
18039WAT      O54358   8.356   2.806   4.105
18039WAT     H154359   8.263   2.773   4.095
18039WAT     H254360   8.419   2.747   4.055
18040WAT      O54361   8.799   7.172   5.856
18040WAT     H154362   8.740   7.251   5.872
18040WAT     H254363   8.860   7.160   5.934
18041WAT      O54364   8.532   4.723   3.943
18041WAT     H154365   8.492   4.632   3.947
18041WAT     H254366   8.598   4.727   3.869
18042WAT      O54367   3.191   7.016   4.493
18042WAT     H154368   3.170   7.000   4.590
18042WAT     H254369   3.149   6.945   4.437
18043WAT      O54370   5.970   7.503   5.733
18043WAT     H154371   5.981   7.412   5.772
18043WAT     H254372   5.875   7.532   5.740
18044WAT      O54373   7.648   8.992   4.294
18044WAT     H154374   7.567   8.952   4.337
18044WAT     H254375   7.660   8.955   4.202
18045WAT      O54376   7.470   4.643   4.990
18045WAT     H154377   7.463   4.585   4.908
18045WAT     H254378   7.520   4.593   5.061
18046WAT      O54379   5.139   3.820   2.458
18046WAT     H154380   5.136   3.918   2.476
18046WAT     H254381   5.149   3.770   2.544
18047WAT      O54382   7.732   7.429   4.665
18047WAT     H154383   7.759   7.338   4.695
18047WAT     H254384   7.673   7.422   4.585
18048WAT      O54385   1.061   8.222   7.768
18048WAT     H154386   1.102   8.280   7.839
18048WAT     H254387   0.968   8.197   7.795
18049WAT      O54388   4.240   6.468   6.684
18049WAT     H154389   4.204   6.559   6.664
18049WAT     H254390   4.204   6.403   6.618
18050WAT      O54391   7.829   9.644   3.218
18050WAT     H154392   7.792   9.565   3.266
18050WAT     H254393   7.875   9.614   3.135
18051WAT      O54394   1.830   1.458   1.994
18051WAT     H154395   1.892   1.458   2.073
18051WAT     H254396   1.738   1.437   2.024
18052WAT      O54397   1.129   5.408   0.349
18052WAT     H154398   1.064   5.482   0.368
18052WAT     H254399   1.144   5.402   0.250
18053WAT      O54400   3.058   2.039   5.889
18053WAT     H154401   3.149   2.040   5.847
18053WAT     H254402   2.996   2.096   5.834
18054WAT      O54403   7.940   6.361   7.847
18054WAT     H154404   7.917   6.272   7.887
18054WAT     H254405   7.881   6.377   7.767
18055WAT      O54406   5.463   0.802   0.547
18055WAT     H154407   5.467   0.837   0.640
18055WAT     H254408   5.555   0.794   0.510
18056WAT      O54409   6.368   1.321   7.796
18056WAT     H154410   6.436   1.318   7.723
18056WAT     H254411   6.292   1.260   7.774
18057WAT      O54412   9.025   9.016   3.840
18057WAT     H154413   9.012   9.114   3.824
18057WAT     H254414   9.087   8.979   3.770
18058WAT      O54415   3.854   8.800   0.240
18058WAT     H154416   3.910   8.818   0.159
18058WAT     H254417   3.855   8.880   0.300
18059WAT      O54418   9.150   8.969   9.643
18059WAT     H154419   9.113   9.010   9.559
18059WAT     H254420   9.249   8.987   9.647
18060WAT      O54421   7.397   1.793   4.082
18060WAT     H154422   7.320   1.821   4.023
18060WAT     H254423   7.394   1.694   4.095
18061WAT      O54424   7.841   7.210   0.985
18061WAT     H154425   7.801   7.122   1.009
18061WAT     H254426   7.773   7.266   0.939
18062WAT      O54427   5.511   5.915   0.362
18062WAT     H154428   5.555   5.946   0.446
18062WAT     H254429   5.540   5.822   0.341
18063WAT      O54430   3.524   2.779   0.949
18063WAT     H154431   3.560   2.869   0.976
18063WAT     H254432   3.424   2.782   0.948
18064WAT      O54433   4.703   0.987   5.890
18064WAT     H154434   4.703   0.929   5.971
18064WAT     H254435   4.768   1.062   5.902
18065WAT      O54436   8.363   6.195   2.647
18065WAT     H154437   8.292   6.191   2.577
18065WAT     H254438   8.389   6.102   2.673
18066WAT      O54439   4.015   0.964   3.799
18066WAT     H154440   3.946   0.913   3.749
18066WAT     H254441   4.099   0.909   3.805
18067WAT      O54442   4.110   5.102   7.597
18067WAT     H154443   4.038   5.077   7.532
18067WAT     H254444   4.169   5.171   7.556
18068WAT      O54445   2.362   2.361   5.481
18068WAT     H154446   2.272   2.330   5.512
18068WAT     H254447   2.360   2.461   5.470
18069WAT      O54448   0.650   6.175   4.836
18069WAT     H154449   0.708   6.094   4.831
18069WAT     H254450   0.664   6.231   4.754
18070WAT      O54451   0.921   5.993   4.851
18070WAT     H154452   0.982   5.961   4.779
18070WAT     H254453   0.949   6.084   4.882
18071WAT      O54454   2.096   1.548   1.274
18071WAT     H154455   2.090   1.643   1.242
18071WAT     H254456   2.007   1.503   1.264
18072WAT      O54457   0.540   1.649   9.555
18072WAT     H154458   0.485   1.597   9.490
18072WAT     H254459   0.607   1.705   9.505
18073WAT      O54460   7.678   8.534   7.883
18073WAT     H154461   7.634   8.445   7.873
18073WAT     H254462   7.657   8.591   7.804
18074WAT      O54463   2.313   8.030   9.289
18074WAT     H154464   2.341   7.945   9.244
18074WAT     H254465   2.214   8.041   9.280
18075WAT      O54466   9.829   5.422   2.569
18075WAT     H154467   9.793   5.499   2.622
18075WAT     H254468   9.779   5.415   2.482
18076WAT      O54469   1.383   1.566   0.421
18076WAT     H154470   1.377   1.648   0.477
18076WAT     H254471   1.468   1.517   0.443
18077WAT      O54472   7.877   0.344   1.983
18077WAT     H154473   7.932   0.265   2.012
18077WAT     H254474   7.780   0.325   2.001
18078WAT      O54475   8.893   8.410   5.624
18078WAT     H154476   8.916   8.352   5.546
18078WAT     H254477   8.945   8.495   5.619
18079WAT      O54478   1.846   3.931   7.561
18079WAT     H154479   1.903   4.012   7.573
18079WAT     H254480   1.776   3.949   7.491
18080WAT      O54481   1.739   1.157   1.247
18080WAT     H154482   1.743   1.082   1.313
18080WAT     H254483   1.659   1.146   1.188
18081WAT      O54484   9.626   4.260   8.086
18081WAT     H154485   9.551   4.203   8.120
18081WAT     H254486   9.666   4.311   8.161
18082WAT      O54487   2.713   8.359   3.435
18082WAT     H154488   2.643   8.297   3.470
18082WAT     H254489   2.715   8.442   3.491
18083WAT      O54490   7.936   2.643   9.847
18083WAT     H154491   8.015   2.703   9.859
18083WAT     H254492   7.905   2.611   9.937
18084WAT      O54493   3.397   9.574   4.411
18084WAT     H154494   3.356   9.589   4.321
18084WAT     H254495   3.378   9.481   4.440
18085WAT      O54496   5.811   8.325   9.873
18085WAT     H154497   5.803   8.415   9.829
18085WAT     H254498   5.737   8.314   9.940
18086WAT      O54499   8.083   2.119   6.128
18086WAT     H154500   8.058   2.215   6.141
18086WAT     H254501   8.001   2.064   6.113
18087WAT      O54502   0.590   8.087   8.777
18087WAT     H154503   0.514   8.130   8.728
18087WAT     H254504   0.677   8.115   8.735
18088WAT      O54505   8.175   2.683   5.049
18088WAT     H154506   8.098   2.647   4.996
18088WAT     H254507   8.145   2.765   5.098
18089WAT      O54508   3.464   1.755   3.976
18089WAT     H154509   3.527   1.773   3.900
18089WAT     H254510   3.412   1.838   3.995
18090WAT      O54511   6.997   9.700   1.331
18090WAT     H154512   7.083   9.729   1.374
18090WAT     H254513   6.969   9.768   1.264
18091WAT      O54514   7.958   3.090   2.269
18091WAT     H154515   7.940   3.017   2.204
18091WAT     H254516   7.871   3.132   2.297
18092WAT      O54517   7.273   8.137   1.951
18092WAT     H154518   7.261   8.093   2.040
18092WAT     H254519   7.212   8.217   1.944
18093WAT      O54520   9.596   5.683   7.802
18093WAT     H154521   9.513   5.680   7.747
18093WAT     H254522   9.667   5.628   7.758
18094WAT      O54523   2.233   7.238   8.185
18094WAT     H154524   2.225   7.156   8.241
18094WAT     H254525   2.329   7.251   8.158
18095WAT      O54526   6.799   6.563   7.677
18095WAT     H154527   6.708   6.537   7.644
18095WAT     H254528   6.808   6.663   7.674
18096WAT      O54529   0.320   0.603   0.111
18096WAT     H154530   0.253   0.662   0.066
18096WAT     H254531   0.376   0.657   0.173
18097WAT      O54532   6.746   1.728   9.235
18097WAT     H154533   6.708   1.752   9.324
18097WAT     H254534   6.712   1.793   9.167
18098WAT      O54535   8.451   7.445   6.845
18098WAT     H154536   8.432   7.531   6.798
18098WAT     H254537   8.375   7.424   6.907
18099WAT      O54538   4.597   3.969   3.145
18099WAT     H154539   4.650   3.891   3.113
18099WAT     H254540   4.505   3.939   3.170
18100WAT      O54541   3.956   5.046   5.578
18100WAT     H154542   3.960   5.108   5.656
18100WAT     H254543   3.946   5.098   5.493
18101WAT      O54544   6.602   0.847   7.473
18101WAT     H154545   6.700   0.848   7.455
18101WAT     H254546   6.581   0.909   7.549
18102WAT      O54547   4.815   0.927   4.179
18102WAT     H154548   4.902   0.879   4.191
18102WAT     H254549   4.795   0.982   4.260
18103WAT      O54550   5.550   0.187   6.664
18103WAT     H154551   5.565   0.115   6.732
18103WAT     H254552   5.566   0.150   6.573
18104WAT      O54553   1.188   8.835   8.261
18104WAT     H154554   1.247   8.805   8.186
18104WAT     H254555   1.102   8.784   8.259
18105WAT      O54556   8.433   2.174   1.425
18105WAT     H154557   8.404   2.087   1.384
18105WAT     H254558   8.502   2.217   1.367
18106WAT      O54559   2.341   7.856   0.604
18106WAT     H154560   2.330   7.955   0.596
18106WAT     H254561   2.270   7.810   0.551
18107WAT      O54562   6.556   3.858   5.332
18107WAT     H154563   6.591   3.767   5.356
18107WAT     H254564   6.546   3.913   5.415
18108WAT      O54565   6.452   3.419   2.094
18108WAT     H154566   6.425   3.394   2.001
18108WAT     H254567   6.376   3.465   2.139
18109WAT      O54568   6.270   0.662   6.389
18109WAT     H154569   6.239   0.618   6.473
18109WAT     H254570   6.360   0.703   6.404
18110WAT      O54571   7.337   7.549   1.840
18110WAT     H154572   7.272   7.609   1.887
18110WAT     H254573   7.424   7.548   1.891
18111WAT      O54574   9.616   8.075   1.531
18111WAT     H154575   9.645   8.156   1.479
18111WAT     H254576   9.636   7.993   1.479
18112WAT      O54577   4.749   6.277   8.282
18112WAT     H154578   4.650   6.290   8.289
18112WAT     H254579   4.796   6.351   8.330
18113WAT      O54580   9.789   6.475   5.314
18113WAT     H154581   9.791   6.392   5.260
18113WAT     H254582   9.864   6.536   5.285
18114WAT      O54583   3.781   6.137   3.301
18114WAT     H154584   3.783   6.071   3.376
18114WAT     H254585   3.727   6.216   3.327
18115WAT      O54586   6.772   5.165   6.909
18115WAT     H154587   6.715   5.246   6.925
18115WAT     H254588   6.864   5.194   6.883
18116WAT      O54589   5.551   1.974   6.300
18116WAT     H154590   5.534   1.970   6.202
18116WAT     H254591   5.503   1.898   6.346
18117WAT      O54592   7.517   7.263   3.099
18117WAT     H154593   7.530   7.218   3.188
18117WAT     H254594   7.543   7.359   3.107
18118WAT      O54595   5.941   3.388   9.567
18118WAT     H154596   5.953   3.332   9.485
18118WAT     H254597   5.844   3.394   9.590
18119WAT      O54598   4.399   8.813   4.439
18119WAT     H154599   4.478   8.831   4.497
18119WAT     H254600   4.414   8.852   4.349
18120WAT      O54601   6.339   3.784   0.018
18120WAT     H154602   6.392   3.863  -0.010
18120WAT     H254603   6.294   3.803   0.105
18121WAT      O54604   8.136   7.033   2.388
18121WAT     H154605   8.227   7.040   2.430
18121WAT     H254606   8.144   7.046   2.289
18122WAT      O54607   0.755   2.047   7.635
18122WAT     H154608   0.719   1.957   7.658
18122WAT     H254609   0.799   2.044   7.545
18123WAT      O54610   4.602   7.346   4.359
18123WAT     H154611   4.681   7.372   4.304
18123WAT     H254612   4.543   7.426   4.372
18124WAT      O54613   4.027   7.413   4.330
18124WAT     H154614   3.953   7.429   4.395
18124WAT     H254615   4.096   7.353   4.371
18125WAT      O54616   6.777   8.289   6.786
18125WAT     H154617   6.805   8.214   6.726
18125WAT     H254618   6.691   8.328   6.752
18126WAT      O54619   3.764   8.574   1.670
18126WAT     H154620   3.797   8.498   1.614
18126WAT     H254621   3.681   8.612   1.628
18127WAT      O54622   6.185   3.512   5.410
18127WAT     H154623   6.249   3.580   5.446
18127WAT     H254624   6.235   3.430   5.383
18128WAT      O54625   6.386   9.501   5.574
18128WAT     H154626   6.339   9.523   5.488
18128WAT     H254627   6.434   9.414   5.564
18129WAT      O54628   7.468   7.698   2.161
18129WAT     H154629   7.428   7.633   2.226
18129WAT     H254630   7.527   7.649   2.097
18130WAT      O54631   4.002   7.590   5.073
18130WAT     H154632   3.996   7.632   4.983
18130WAT     H254633   4.038   7.657   5.139
18131WAT      O54634   6.203   9.510   8.505
18131WAT     H154635   6.114   9.491   8.547
18131WAT     H254636   6.242   9.425   8.469
18132WAT      O54637   0.988   6.377   2.343
18132WAT     H154638   0.933   6.407   2.264
18132WAT     H254639   0.935   6.389   2.426
18133WAT      O54640   2.495   8.948   4.235
18133WAT     H154641   2.456   8.864   4.198
18133WAT     H254642   2.562   8.926   4.305
18134WAT      O54643   7.151   6.099   2.360
18134WAT     H154644   7.204   6.178   2.389
18134WAT     H254645   7.085   6.076   2.431
18135WAT      O54646   0.749   6.663   1.554
18135WAT     H154647   0.768   6.565   1.561
18135WAT     H254648   0.835   6.713   1.550
18136WAT      O54649   3.762   5.509   6.669
18136WAT     H154650   3.731   5.537   6.578
18136WAT     H254651   3.816   5.425   6.661
18137WAT      O54652   7.796   2.463   9.258
18137WAT     H154653   7.837   2.554   9.266
18137WAT     H254654   7.744   2.443   9.341
18138WAT      O54655   2.550   1.344   2.819
18138WAT     H154656   2.586   1.319   2.909
18138WAT     H254657   2.484   1.274   2.789
18139WAT      O54658   7.425   1.982   2.387
18139WAT     H154659   7.460   2.074   2.371
18139WAT     H254660   7.359   1.984   2.462
18140WAT      O54661   2.885   1.144   6.428
18140WAT     H154662   2.885   1.069   6.362
18140WAT     H254663   2.890   1.231   6.379
18141WAT      O54664   0.674   7.320   4.120
18141WAT     H154665   0.711   7.312   4.027
18141WAT     H254666   0.574   7.310   4.116
18142WAT      O54667   0.293   8.286   4.752
18142WAT     H154668   0.209   8.320   4.710
18142WAT     H254669   0.271   8.242   4.840
18143WAT      O54670   3.197   0.266   7.160
18143WAT     H154671   3.138   0.256   7.080
18143WAT     H254672   3.241   0.179   7.181
18144WAT      O54673   7.254   2.736   4.637
18144WAT     H154674   7.340   2.770   4.676
18144WAT     H254675   7.188   2.721   4.711
18145WAT      O54676   3.092   8.614   9.010
18145WAT     H154677   3.002   8.657   9.003
18145WAT     H254678   3.142   8.628   8.924
18146WAT      O54679   4.896   6.116   0.045
18146WAT     H154680   4.989   6.093   0.019
18146WAT     H254681   4.833   6.085  -0.026
18147WAT      O54682   3.627   4.645   5.645
18147WAT     H154683   3.685   4.567   5.622
18147WAT     H254684   3.685   4.723   5.670
18148WAT      O54685   9.333   8.046   4.710
18148WAT     H154686   9.344   8.126   4.770
18148WAT     H254687   9.345   7.963   4.764
18149WAT      O54688   1.540   7.200   5.242
18149WAT     H154689   1.539   7.103   5.264
18149WAT     H254690   1.447   7.231   5.225
18150WAT      O54691   2.149   0.063   0.409
18150WAT     H154692   2.057   0.049   0.447
18150WAT     H254693   2.183  -0.024   0.372
18151WAT      O54694   5.942   4.810   9.601
18151WAT     H154695   5.950   4.738   9.532
18151WAT     H254696   5.859   4.796   9.655
18152WAT      O54697   7.929   6.738   8.459
18152WAT     H154698   7.855   6.672   8.471
18152WAT     H254699   7.904   6.803   8.387
18153WAT      O54700   1.244   9.231   4.448
18153WAT     H154701   1.216   9.306   4.387
18153WAT     H254702   1.342   9.216   4.438
18154WAT      O54703   3.742   4.157   1.199
18154WAT     H154704   3.678   4.234   1.192
18154WAT     H254705   3.736   4.101   1.117
18155WAT      O54706   2.620   5.791   4.292
18155WAT     H154707   2.526   5.776   4.321
18155WAT     H254708   2.670   5.840   4.364
18156WAT      O54709   8.969   6.878   7.126
18156WAT     H154710   8.969   6.795   7.069
18156WAT     H254711   9.062   6.916   7.128
18157WAT      O54712   1.908   9.699   6.719
18157WAT     H154713   1.956   9.725   6.803
18157WAT     H254714   1.851   9.619   6.737
18158WAT      O54715   9.539   8.104   9.235
18158WAT     H154716   9.541   8.060   9.325
18158WAT     H254717   9.498   8.041   9.168
18159WAT      O54718   0.294   6.280   3.607
18159WAT     H154719   0.352   6.203   3.633
18159WAT     H254720   0.209   6.276   3.659
18160WAT      O54721   3.253   1.951   8.185
18160WAT     H154722   3.272   1.902   8.270
18160WAT     H254723   3.215   2.041   8.207
18161WAT      O54724   4.817   5.574   2.401
18161WAT     H154725   4.813   5.487   2.351
18161WAT     H254726   4.885   5.567   2.474
18162WAT      O54727   0.598   6.268   5.589
18162WAT     H154728   0.512   6.302   5.552
18162WAT     H254729   0.648   6.344   5.631
18163WAT      O54730   3.398   8.556   8.341
18163WAT     H154731   3.376   8.509   8.427
18163WAT     H254732   3.315   8.592   8.300
18164WAT      O54733   0.573   6.915   8.349
18164WAT     H154734   0.537   7.003   8.380
18164WAT     H254735   0.518   6.841   8.387
18165WAT      O54736   9.293   7.797   3.502
18165WAT     H154737   9.301   7.864   3.429
18165WAT     H254738   9.373   7.737   3.501
18166WAT      O54739   1.777   4.019   3.583
18166WAT     H154740   1.869   3.980   3.596
18166WAT     H254741   1.709   3.957   3.623
18167WAT      O54742   1.153   8.639   1.467
18167WAT     H154743   1.114   8.551   1.494
18167WAT     H254744   1.249   8.627   1.443
18168WAT      O54745   5.988   8.256   9.670
18168WAT     H154746   5.928   8.266   9.749
18168WAT     H254747   6.078   8.295   9.691
18169WAT      O54748   8.761   6.794   3.893
18169WAT     H154749   8.683   6.847   3.860
18169WAT     H254750   8.741   6.757   3.983
18170WAT      O54751   4.955   0.136   7.465
18170WAT     H154752   5.030   0.088   7.510
18170WAT     H254753   4.992   0.200   7.398
18171WAT      O54754   2.198   4.335   8.464
18171WAT     H154755   2.228   4.239   8.456
18171WAT     H254756   2.132   4.343   8.538
18172WAT      O54757   5.428   3.300   8.398
18172WAT     H154758   5.331   3.311   8.376
18172WAT     H254759   5.455   3.369   8.465
18173WAT      O54760   8.269   3.191   5.067
18173WAT     H154761   8.338   3.248   5.022
18173WAT     H254762   8.203   3.159   4.999
18174WAT      O54763   4.816   4.376   3.412
18174WAT     H154764   4.895   4.320   3.435
18174WAT     H254765   4.837   4.472   3.431
18175WAT      O54766   6.145   1.660   8.216
18175WAT     H154767   6.243   1.671   8.197
18175WAT     H254768   6.123   1.703   8.303
18176WAT      O54769   3.761   2.080   2.811
18176WAT     H154770   3.832   2.147   2.830
18176WAT     H254771   3.747   2.073   2.712
18177WAT      O54772   8.154   0.839   8.330
18177WAT     H154773   8.156   0.922   8.386
18177WAT     H254774   8.221   0.774   8.365
18178WAT      O54775   6.683   4.975   3.040
18178WAT     H154776   6.682   4.986   2.941
18178WAT     H254777   6.643   4.887   3.065
18179WAT      O54778   6.755   7.875   9.109
18179WAT     H154779   6.816   7.933   9.164
18179WAT     H254780   6.712   7.930   9.038
18180WAT      O54781   2.297   5.790   3.850
18180WAT     H154782   2.331   5.719   3.912
18180WAT     H254783   2.240   5.855   3.901
18181WAT      O54784   4.386   3.180   2.097
18181WAT     H154785   4.314   3.158   2.032
18181WAT     H254786   4.425   3.095   2.134
18182WAT      O54787   1.382   1.844   1.553
18182WAT     H154788   1.381   1.785   1.634
18182WAT     H254789   1.361   1.790   1.472
18183WAT      O54790   7.250   9.379   9.630
18183WAT     H154791   7.174   9.348   9.687
18183WAT     H254792   7.225   9.463   9.583
18184WAT      O54793   6.901   1.658   8.672
18184WAT     H154794   6.960   1.689   8.597
18184WAT     H254795   6.925   1.708   8.756
18185WAT      O54796   4.016   8.418   9.053
18185WAT     H154797   3.958   8.445   8.976
18185WAT     H254798   4.021   8.319   9.058
18186WAT      O54799   7.006   9.458   1.634
18186WAT     H154800   6.945   9.512   1.692
18186WAT     H254801   6.976   9.362   1.635
18187WAT      O54802   2.960   5.107   8.361
18187WAT     H154803   2.868   5.088   8.394
18187WAT     H254804   2.997   5.026   8.316
18188WAT      O54805   5.892   5.135   1.757
18188WAT     H154806   5.808   5.151   1.704
18188WAT     H254807   5.932   5.223   1.783
18189WAT      O54808   3.882   9.563   0.992
18189WAT     H154809   3.795   9.516   0.975
18189WAT     H254810   3.880   9.606   1.083
18190WAT      O54811   5.037   2.835   3.725
18190WAT     H154812   4.939   2.816   3.715
18190WAT     H254813   5.079   2.843   3.634
18191WAT      O54814   5.069   3.041   3.445
18191WAT     H154815   5.004   2.971   3.415
18191WAT     H254816   5.029   3.094   3.519
18192WAT      O54817   6.587   6.727   9.230
18192WAT     H154818   6.583   6.769   9.321
18192WAT     H254819   6.560   6.630   9.238
18193WAT      O54820   1.069   0.096   6.488
18193WAT     H154821   1.107   0.183   6.457
18193WAT     H254822   1.124   0.060   6.563
18194WAT      O54823   3.157   0.099   8.887
18194WAT     H154824   3.154   0.192   8.850
18194WAT     H254825   3.096   0.040   8.835
18195WAT      O54826   8.792   2.408   7.691
18195WAT     H154827   8.786   2.507   7.677
18195WAT     H254828   8.707   2.365   7.661
18196WAT      O54829   9.035   1.728   1.723
18196WAT     H154830   8.986   1.736   1.810
18196WAT     H254831   9.111   1.664   1.734
18197WAT      O54832   1.786   4.930   6.618
18197WAT     H154833   1.709   4.904   6.678
18197WAT     H254834   1.857   4.974   6.673
18198WAT      O54835   8.389   5.857   5.029
18198WAT     H154836   8.351   5.847   5.121
18198WAT     H254837   8.317   5.845   4.961
18199WAT      O54838   0.182   6.507   9.022
18199WAT     H154839   0.265   6.540   8.977
18199WAT     H254840   0.120   6.584   9.038
18200WAT      O54841   9.047   3.663   6.357
18200WAT     H154842   9.094   3.618   6.432
18200WAT     H254843   9.106   3.733   6.317
18201WAT      O54844   7.326   2.895   3.999
18201WAT     H154845   7.242   2.848   3.972
18201WAT     H254846   7.304   2.969   4.063
18202WAT      O54847   9.885   5.569   5.047
18202WAT     H154848   9.802   5.552   4.993
18202WAT     H254849   9.900   5.492   5.108
18203WAT      O54850   9.521   8.666   3.839
18203WAT     H154851   9.517   8.670   3.939
18203WAT     H254852   9.492   8.754   3.801
18204WAT      O54853   4.142   4.432   5.499
18204WAT     H154854   4.142   4.402   5.404
18204WAT     H254855   4.114   4.528   5.504
18205WAT      O54856   5.921   4.046   0.943
18205WAT     H154857   5.841   4.085   0.897
18205WAT     H254858   5.996   4.035   0.877
18206WAT      O54859   2.038   6.037   9.782
18206WAT     H154860   2.084   5.950   9.764
18206WAT     H254861   2.022   6.084   9.695
18207WAT      O54862   5.512   6.375   1.491
18207WAT     H154863   5.566   6.338   1.567
18207WAT     H254864   5.551   6.344   1.404
18208WAT      O54865   3.728   4.166   4.422
18208WAT     H154866   3.635   4.204   4.431
18208WAT     H254867   3.785   4.230   4.371
18209WAT      O54868   2.410   5.653   6.892
18209WAT     H154869   2.365   5.699   6.969
18209WAT     H254870   2.460   5.720   6.838
18210WAT      O54871   1.122   5.685   5.172
18210WAT     H154872   1.088   5.768   5.215
18210WAT     H254873   1.149   5.705   5.077
18211WAT      O54874   4.204   7.337   2.730
18211WAT     H154875   4.234   7.366   2.639
18211WAT     H254876   4.140   7.405   2.767
18212WAT      O54877   9.012   1.210   0.575
18212WAT     H154878   9.098   1.253   0.602
18212WAT     H254879   8.936   1.254   0.623
18213WAT      O54880   7.744   8.991   8.638
18213WAT     H154881   7.779   8.999   8.545
18213WAT     H254882   7.648   9.022   8.641
18214WAT      O54883   9.157   1.014   6.822
18214WAT     H154884   9.140   0.946   6.893
18214WAT     H254885   9.070   1.039   6.778
18215WAT      O54886   7.319   3.396   0.951
18215WAT     H154887   7.303   3.492   0.930
18215WAT     H254888   7.417   3.377   0.950
18216WAT      O54889   5.171   8.384   6.925
18216WAT     H154890   5.155   8.297   6.970
18216WAT     H254891   5.126   8.385   6.836
18217WAT      O54892   3.368   4.913   5.911
18217WAT     H154893   3.359   4.897   5.813
18217WAT     H254894   3.453   4.871   5.944
18218WAT      O54895   9.414   4.239   1.262
18218WAT     H154896   9.391   4.334   1.241
18218WAT     H254897   9.509   4.221   1.237
18219WAT      O54898   9.276   4.157   0.846
18219WAT     H154899   9.305   4.211   0.925
18219WAT     H254900   9.356   4.134   0.791
18220WAT      O54901   8.943   8.088   9.278
18220WAT     H154902   8.940   8.178   9.321
18220WAT     H254903   9.013   8.031   9.322
18221WAT      O54904   9.253   8.249   0.418
18221WAT     H154905   9.163   8.277   0.450
18221WAT     H254906   9.309   8.330   0.402
18222WAT      O54907   5.375   9.797   5.233
18222WAT     H154908   5.393   9.700   5.251
18222WAT     H254909   5.391   9.850   5.317
18223WAT      O54910   1.776   4.881   4.565
18223WAT     H154911   1.733   4.854   4.478
18223WAT     H254912   1.715   4.943   4.614
18224WAT      O54913   4.108   5.180   6.281
18224WAT     H154914   4.158   5.116   6.339
18224WAT     H254915   4.158   5.267   6.277
18225WAT      O54916   6.891   9.100   7.820
18225WAT     H154917   6.851   9.120   7.730
18225WAT     H254918   6.836   9.142   7.891
18226WAT      O54919   7.404   4.287   0.373
18226WAT     H154920   7.451   4.246   0.295
18226WAT     H254921   7.326   4.341   0.340
18227WAT      O54922   9.148   4.885   1.128
18227WAT     H154923   9.179   4.839   1.045
18227WAT     H254924   9.084   4.957   1.104
18228WAT      O54925   2.103   8.566   3.700
18228WAT     H154926   2.176   8.635   3.700
18228WAT     H254927   2.019   8.606   3.736
18229WAT      O54928   0.848   4.841   4.130
18229WAT     H154929   0.812   4.798   4.047
18229WAT     H254930   0.868   4.937   4.112
18230WAT      O54931   2.692   4.309   5.555
18230WAT     H154932   2.731   4.227   5.513
18230WAT     H254933   2.631   4.282   5.630
18231WAT      O54934   6.002   5.799   5.533
18231WAT     H154935   6.008   5.895   5.560
18231WAT     H254936   6.005   5.741   5.614
18232WAT      O54937   0.234   9.035   0.201
18232WAT     H154938   0.318   9.023   0.254
18232WAT     H254939   0.253   9.094   0.122
18233WAT      O54940   4.728   3.318   1.364
18233WAT     H154941   4.814   3.367   1.350
18233WAT     H254942   4.666   3.334   1.287
18234WAT      O54943   8.093   9.489   2.223
18234WAT     H154944   8.012   9.544   2.242
18234WAT     H254945   8.070   9.419   2.155
18235WAT      O54946   4.208   6.189   3.294
18235WAT     H154947   4.123   6.210   3.246
18235WAT     H254948   4.192   6.117   3.360
18236WAT      O54949   1.768   9.313   0.300
18236WAT     H154950   1.705   9.343   0.371
18236WAT     H254951   1.859   9.351   0.319
18237WAT      O54952   2.408   1.891   1.941
18237WAT     H154953   2.382   1.806   1.895
18237WAT     H254954   2.489   1.874   1.997
18238WAT      O54955   5.943   7.594   9.599
18238WAT     H154956   6.004   7.641   9.535
18238WAT     H254957   5.968   7.617   9.693
18239WAT      O54958   9.485   4.894   3.214
18239WAT     H154959   9.443   4.827   3.276
18239WAT     H254960   9.543   4.956   3.267
18240WAT      O54961   7.159   4.526   0.657
18240WAT     H154962   7.251   4.555   0.631
18240WAT     H254963   7.163   4.437   0.702
18241WAT      O54964   9.505   1.490   3.097
18241WAT     H154965   9.451   1.569   3.067
18241WAT     H254966   9.543   1.443   3.018
18242WAT      O54967   0.882   4.240   7.262
18242WAT     H154968   0.959   4.269   7.204
18242WAT     H254969   0.918   4.210   7.351
18243WAT      O54970   1.497   4.042   4.838
18243WAT     H154971   1.540   4.043   4.747
18243WAT     H254972   1.485   3.947   4.868
18244WAT      O54973   1.859   2.934   4.104
18244WAT     H154974   1.809   2.977   4.029
18244WAT     H254975   1.804   2.939   4.187
18245WAT      O54976   6.251   0.679   8.872
18245WAT     H154977   6.204   0.593   8.851
18245WAT     H254978   6.277   0.725   8.787
18246WAT      O54979   9.620   4.278   3.905
18246WAT     H154980   9.666   4.340   3.968
18246WAT     H254981   9.618   4.318   3.813
18247WAT      O54982   9.280   3.933   5.758
18247WAT     H154983   9.259   4.001   5.687
18247WAT     H254984   9.230   3.956   5.842
18248WAT      O54985   3.937   8.159   8.641
18248WAT     H154986   3.875   8.149   8.718
18248WAT     H254987   4.021   8.107   8.659
18249WAT      O54988   7.832   1.905   4.836
18249WAT     H154989   7.861   2.001   4.843
18249WAT     H254990   7.736   1.898   4.861
18250WAT      O54991   0.789   7.973   3.016
18250WAT     H154992   0.721   8.039   3.049
18250WAT     H254993   0.745   7.905   2.958
18251WAT      O54994   7.434   7.320   8.409
18251WAT     H154995   7.404   7.414   8.421
18251WAT     H254996   7.427   7.294   8.313
18252WAT      O54997   7.501   8.425   0.582
18252WAT     H154998   7.527   8.329   0.595
18252WAT     H254999   7.576   8.474   0.537
18253WAT      O55000   0.799   7.658   5.213
18253WAT     H155001   0.899   7.660   5.217
18253WAT     H255002   0.767   7.700   5.129
18254WAT      O55003   0.330   4.403   0.435
18254WAT     H155004   0.278   4.471   0.383
18254WAT     H255005   0.426   4.408   0.409
18255WAT      O55006   9.229   0.244   8.707
18255WAT     H155007   9.282   0.318   8.749
18255WAT     H255008   9.148   0.226   8.763
18256WAT      O55009   8.951   9.580   9.622
18256WAT     H155010   8.926   9.487   9.650
18256WAT     H255011   8.876   9.643   9.645
18257WAT      O55012   0.968   5.110   2.489
18257WAT     H155013   0.958   5.164   2.405
18257WAT     H255014   1.062   5.115   2.521
18258WAT      O55015   2.310   3.661   2.867
18258WAT     H155016   2.358   3.604   2.800
18258WAT     H255017   2.376   3.702   2.929
18259WAT      O55018   8.819   5.154   6.051
18259WAT     H155019   8.905   5.201   6.071
18259WAT     H255020   8.808   5.077   6.114
18260WAT      O55021   3.536   9.270   3.022
18260WAT     H155022   3.562   9.366   3.023
18260WAT     H255023   3.490   9.247   3.108
18261WAT      O55024   0.018   1.091   1.274
18261WAT     H155025  -0.064   1.118   1.324
18261WAT     H255026   0.017   1.134   1.183
18262WAT      O55027   7.610   3.478   9.589
18262WAT     H155028   7.544   3.548   9.616
18262WAT     H255029   7.657   3.508   9.506
18263WAT      O55030   1.692   2.487   6.312
18263WAT     H155031   1.742   2.572   6.294
18263WAT     H255032   1.750   2.426   6.365
18264WAT      O55033   6.497   4.466   6.042
18264WAT     H155034   6.415   4.435   5.994
18264WAT     H255035   6.553   4.387   6.068
18265WAT      O55036   4.843   9.544   9.307
18265WAT     H155037   4.871   9.632   9.344
18265WAT     H255038   4.773   9.558   9.237
18266WAT      O55039   9.227   3.919   7.771
18266WAT     H155040   9.320   3.954   7.762
18266WAT     H255041   9.213   3.886   7.865
18267WAT      O55042   5.748   8.881   6.228
18267WAT     H155043   5.676   8.880   6.297
18267WAT     H255044   5.835   8.907   6.270
18268WAT      O55045   1.205   3.381   4.403
18268WAT     H155046   1.162   3.366   4.492
18268WAT     H255047   1.145   3.348   4.331
18269WAT      O55048   7.365   9.799   6.125
18269WAT     H155049   7.310   9.832   6.201
18269WAT     H255050   7.447   9.856   6.116
18270WAT      O55051   0.779   9.557   5.788
18270WAT     H155052   0.708   9.614   5.828
18270WAT     H255053   0.832   9.514   5.861
18271WAT      O55054   3.148   3.324   0.115
18271WAT     H155055   3.059   3.347   0.154
18271WAT     H255056   3.220   3.344   0.181
18272WAT      O55057   2.579   2.406   8.163
18272WAT     H155058   2.663   2.366   8.127
18272WAT     H255059   2.583   2.505   8.152
18273WAT      O55060   2.736   2.772   4.998
18273WAT     H155061   2.650   2.800   5.040
18273WAT     H255062   2.747   2.818   4.910
18274WAT      O55063   6.508   4.076   8.974
18274WAT     H155064   6.531   4.113   9.064
18274WAT     H255065   6.443   4.001   8.986
18275WAT      O55066   7.934   2.076   9.612
18275WAT     H155067   7.925   2.160   9.666
18275WAT     H255068   7.902   1.998   9.666
18276WAT      O55069   4.961   1.473   1.948
18276WAT     H155070   4.927   1.554   1.994
18276WAT     H255071   5.061   1.473   1.950
18277WAT      O55072   5.548   7.009   7.752
18277WAT     H155073   5.467   6.969   7.709
18277WAT     H255074   5.582   7.084   7.696
18278WAT      O55075   5.584   4.636   0.898
18278WAT     H155076   5.614   4.599   0.809
18278WAT     H255077   5.486   4.619   0.910
18279WAT      O55078   1.418   2.851   3.848
18279WAT     H155079   1.367   2.905   3.782
18279WAT     H255080   1.419   2.898   3.936
18280WAT      O55081   6.229   0.479   4.507
18280WAT     H155082   6.182   0.411   4.451
18280WAT     H255083   6.327   0.477   4.486
18281WAT      O55084   7.034   2.072   5.014
18281WAT     H155085   6.986   2.011   4.951
18281WAT     H255086   7.071   2.150   4.964
18282WAT      O55087   9.262   4.131   6.279
18282WAT     H155088   9.336   4.198   6.287
18282WAT     H255089   9.176   4.173   6.310
18283WAT      O55090   9.781   8.452   7.480
18283WAT     H155091   9.683   8.434   7.477
18283WAT     H255092   9.810   8.469   7.574
18284WAT      O55093   1.047   8.607   7.994
18284WAT     H155094   1.055   8.683   7.929
18284WAT     H255095   0.968   8.551   7.970
18285WAT      O55096   3.140   6.140   5.321
18285WAT     H155097   3.044   6.128   5.346
18285WAT     H255098   3.167   6.235   5.337
18286WAT      O55099   8.337   8.079   6.607
18286WAT     H155100   8.249   8.115   6.640
18286WAT     H255101   8.364   8.128   6.524
18287WAT      O55102   6.988   7.861   9.693
18287WAT     H155103   7.020   7.906   9.776
18287WAT     H255104   7.062   7.860   9.625
18288WAT      O55105   7.057   2.782   7.016
18288WAT     H155106   7.125   2.827   7.074
18288WAT     H255107   7.069   2.811   6.922
18289WAT      O55108   0.636   3.200   2.087
18289WAT     H155109   0.549   3.155   2.069
18289WAT     H255110   0.650   3.208   2.186
18290WAT      O55111   3.109   6.538   9.260
18290WAT     H155112   3.175   6.517   9.331
18290WAT     H255113   3.024   6.571   9.302
18291WAT      O55114   7.095   8.328   4.882
18291WAT     H155115   7.078   8.356   4.976
18291WAT     H255116   7.008   8.310   4.836
18292WAT      O55117   0.146   4.464   8.356
18292WAT     H155118   0.179   4.517   8.278
18292WAT     H255119   0.046   4.465   8.357
18293WAT      O55120   3.339   6.191   2.662
18293WAT     H155121   3.353   6.213   2.759
18293WAT     H255122   3.255   6.237   2.630
18294WAT      O55123   6.002   3.525   8.201
18294WAT     H155124   5.978   3.593   8.131
18294WAT     H255125   6.028   3.439   8.156
18295WAT      O55126   5.140   6.577   8.364
18295WAT     H155127   5.169   6.665   8.402
18295WAT     H255128   5.185   6.503   8.414
18296WAT      O55129   3.513   7.842   7.336
18296WAT     H155130   3.539   7.773   7.404
18296WAT     H255131   3.563   7.926   7.353
18297WAT      O55132   6.226   0.377   3.568
18297WAT     H155133   6.158   0.314   3.531
18297WAT     H255134   6.285   0.409   3.494
18298WAT      O55135   0.442   1.514   0.962
18298WAT     H155136   0.480   1.508   1.054
18298WAT     H255137   0.413   1.424   0.932
18299WAT      O55138   0.886   0.003   3.973
18299WAT     H155139   0.892   0.079   3.908
18299WAT     H255140   0.836  -0.073   3.932
18300WAT      O55141   2.920   2.161   2.359
18300WAT     H155142   2.981   2.086   2.383
18300WAT     H255143   2.912   2.168   2.260
18301WAT      O55144   9.597   6.189   5.815
18301WAT     H155145   9.598   6.089   5.810
18301WAT     H255146   9.524   6.219   5.877
18302WAT      O55147   0.326   5.181   6.321
18302WAT     H155148   0.405   5.174   6.382
18302WAT     H255149   0.358   5.201   6.228
18303WAT      O55150   8.642   3.092   8.017
18303WAT     H155151   8.601   3.161   7.957
18303WAT     H255152   8.590   3.087   8.102
18304WAT      O55153   4.009   7.954   7.169
18304WAT     H155154   3.992   7.870   7.221
18304WAT     H255155   3.985   8.033   7.225
18305WAT      O55156   5.601   9.420   3.997
18305WAT     H155157   5.638   9.331   3.972
18305WAT     H255158   5.524   9.442   3.937
18306WAT      O55159   3.536   6.274   1.676
18306WAT     H155160   3.474   6.281   1.598
18306WAT     H255161   3.616   6.220   1.650
18307WAT      O55162   5.345   5.800   5.564
18307WAT     H155163   5.339   5.876   5.498
18307WAT     H255164   5.260   5.748   5.562
18308WAT      O55165   3.034   3.425   7.480
18308WAT     H155166   2.992   3.397   7.394
18308WAT     H255167   3.112   3.484   7.460
18309WAT      O55168   0.699   7.262   7.731
18309WAT     H155169   0.706   7.241   7.634
18309WAT     H255170   0.782   7.232   7.779
18310WAT      O55171   9.494   2.911   3.676
18310WAT     H155172   9.414   2.913   3.616
18310WAT     H255173   9.470   2.865   3.761
18311WAT      O55174   2.828   4.133   6.282
18311WAT     H155175   2.885   4.068   6.333
18311WAT     H255176   2.756   4.169   6.341
18312WAT      O55177   1.348   8.096   2.087
18312WAT     H155178   1.387   8.124   2.175
18312WAT     H255179   1.248   8.096   2.094
18313WAT      O55180   4.264   6.512   5.350
18313WAT     H155181   4.164   6.516   5.357
18313WAT     H255182   4.299   6.445   5.416
18314WAT      O55183   4.046   7.355   9.234
18314WAT     H155184   4.011   7.351   9.328
18314WAT     H255185   4.119   7.424   9.228
18315WAT      O55186   9.636   8.492   9.083
18315WAT     H155187   9.562   8.425   9.090
18315WAT     H255188   9.618   8.552   9.004
18316WAT      O55189   0.849   5.628   6.576
18316WAT     H155190   0.939   5.600   6.609
18316WAT     H255191   0.855   5.651   6.479
18317WAT      O55192   4.717   8.890   0.602
18317WAT     H155193   4.761   8.817   0.653
18317WAT     H255194   4.702   8.968   0.663
18318WAT      O55195   3.428   7.005   9.083
18318WAT     H155196   3.355   6.938   9.071
18318WAT     H255197   3.410   7.062   9.163
18319WAT      O55198   3.122   3.418   1.561
18319WAT     H155199   3.069   3.481   1.618
18319WAT     H255200   3.167   3.469   1.488
18320WAT      O55201   2.137   8.844   2.577
18320WAT     H155202   2.039   8.839   2.561
18320WAT     H255203   2.172   8.754   2.601
18321WAT      O55204   5.791   5.407   8.965
18321WAT     H155205   5.722   5.350   9.010
18321WAT     H255206   5.855   5.442   9.034
18322WAT      O55207   2.241   9.372   0.626
18322WAT     H155208   2.339   9.365   0.605
18322WAT     H255209   2.228   9.438   0.701
18323WAT      O55210   6.081   2.993   0.259
18323WAT     H155211   6.131   2.906   0.259
18323WAT     H255212   5.988   2.977   0.293
18324WAT      O55213   7.435   2.672   3.838
18324WAT     H155214   7.381   2.736   3.893
18324WAT     H255215   7.492   2.617   3.899
18325WAT      O55216   1.150   2.888   1.354
18325WAT     H155217   1.128   2.959   1.421
18325WAT     H255218   1.198   2.812   1.400
18326WAT      O55219   6.581   3.431   0.607
18326WAT     H155220   6.543   3.361   0.667
18326WAT     H255221   6.572   3.402   0.512
18327WAT      O55222   8.509   8.819   1.607
18327WAT     H155223   8.553   8.898   1.564
18327WAT     H255224   8.535   8.736   1.559
18328WAT      O55225   5.468   3.059   7.510
18328WAT     H155226   5.409   2.978   7.507
18328WAT     H255227   5.563   3.030   7.507
18329WAT      O55228   0.573   2.558   4.818
18329WAT     H155229   0.563   2.639   4.760
18329WAT     H255230   0.669   2.532   4.823
18330WAT      O55231   2.342   6.415   1.909
18330WAT     H155232   2.260   6.370   1.874
18330WAT     H255233   2.316   6.497   1.960
18331WAT      O55234   3.801   7.751   9.674
18331WAT     H155235   3.738   7.740   9.750
18331WAT     H255236   3.756   7.802   9.600
18332WAT      O55237   6.346   2.849   7.079
18332WAT     H155238   6.366   2.853   6.981
18332WAT     H255239   6.405   2.782   7.122
18333WAT      O55240   6.702   6.829   8.590
18333WAT     H155241   6.640   6.753   8.570
18333WAT     H255242   6.779   6.826   8.526
18334WAT      O55243   4.307   6.104   7.825
18334WAT     H155244   4.386   6.049   7.796
18334WAT     H255245   4.303   6.187   7.769
18335WAT      O55246   0.084   8.928   8.332
18335WAT     H155247   0.042   8.837   8.334
18335WAT     H255248   0.159   8.928   8.265
18336WAT      O55249   0.133   9.448   9.736
18336WAT     H155250   0.218   9.492   9.763
18336WAT     H255251   0.056   9.508   9.757
18337WAT      O55252   0.627   4.070   4.382
18337WAT     H155253   0.558   4.011   4.339
18337WAT     H255254   0.598   4.093   4.475
18338WAT      O55255   0.341   5.445   3.936
18338WAT     H155256   0.404   5.521   3.919
18338WAT     H255257   0.372   5.364   3.887
18339WAT      O55258   6.039   7.027   4.543
18339WAT     H155259   6.052   6.994   4.636
18339WAT     H255260   6.092   7.111   4.530
18340WAT      O55261   8.732   6.252   9.518
18340WAT     H155262   8.723   6.308   9.435
18340WAT     H255263   8.767   6.162   9.493
18341WAT      O55264   9.187   5.090   2.782
18341WAT     H155265   9.264   5.064   2.723
18341WAT     H255266   9.210   5.071   2.877
18342WAT      O55267   2.182   9.111   9.519
18342WAT     H155268   2.182   9.085   9.423
18342WAT     H255269   2.212   9.206   9.529
18343WAT      O55270   2.858   1.575   2.255
18343WAT     H155271   2.938   1.620   2.296
18343WAT     H255272   2.880   1.548   2.161
18344WAT      O55273   1.233   4.234   7.682
18344WAT     H155274   1.165   4.267   7.617
18344WAT     H255275   1.324   4.265   7.654
18345WAT      O55276   9.824   2.276   9.576
18345WAT     H155277   9.888   2.262   9.651
18345WAT     H255278   9.755   2.344   9.603
18346WAT      O55279   7.130   7.739   4.043
18346WAT     H155280   7.204   7.724   3.978
18346WAT     H255281   7.111   7.837   4.050
18347WAT      O55282   6.580   1.010   2.473
18347WAT     H155283   6.554   0.989   2.379
18347WAT     H255284   6.574   0.927   2.529
18348WAT      O55285   0.063   2.723   1.284
18348WAT     H155286   0.140   2.737   1.346
18348WAT     H255287   0.009   2.807   1.278
18349WAT      O55288   4.039   5.657   8.316
18349WAT     H155289   4.074   5.721   8.384
18349WAT     H255290   4.115   5.613   8.269
18350WAT      O55291   8.949   5.542   7.738
18350WAT     H155292   9.024   5.542   7.804
18350WAT     H255293   8.865   5.569   7.784
18351WAT      O55294   2.752   2.877   7.874
18351WAT     H155295   2.683   2.806   7.884
18351WAT     H255296   2.838   2.836   7.846
18352WAT      O55297   2.764   6.557   1.301
18352WAT     H155298   2.854   6.541   1.259
18352WAT     H255299   2.776   6.588   1.395
18353WAT      O55300   0.570   2.595   1.600
18353WAT     H155301   0.564   2.543   1.514
18353WAT     H255302   0.484   2.586   1.650
18354WAT      O55303   7.341   2.726   9.541
18354WAT     H155304   7.316   2.747   9.446
18354WAT     H255305   7.307   2.635   9.565
18355WAT      O55306   2.172   4.453   8.173
18355WAT     H155307   2.255   4.414   8.215
18355WAT     H255308   2.094   4.437   8.234
18356WAT      O55309   0.365   8.598   5.373
18356WAT     H155310   0.345   8.670   5.306
18356WAT     H255311   0.279   8.567   5.415
18357WAT      O55312   2.298   4.491   4.741
18357WAT     H155313   2.260   4.583   4.751
18357WAT     H255314   2.300   4.467   4.644
18358WAT      O55315   5.055   3.234   6.404
18358WAT     H155316   5.095   3.325   6.395
18358WAT     H255317   5.028   3.201   6.314
18359WAT      O55318   1.334   0.127   3.628
18359WAT     H155319   1.400   0.157   3.558
18359WAT     H255320   1.335   0.027   3.634
18360WAT      O55321   3.294   0.913   2.601
18360WAT     H155322   3.259   0.845   2.666
18360WAT     H255323   3.238   0.913   2.518
18361WAT      O55324   7.396   8.230   8.232
18361WAT     H155325   7.464   8.234   8.305
18361WAT     H255326   7.329   8.158   8.252
18362WAT      O55327   8.107   6.333   6.231
18362WAT     H155328   8.200   6.367   6.217
18362WAT     H255329   8.051   6.404   6.273
18363WAT      O55330   0.182   2.443   6.295
18363WAT     H155331   0.275   2.476   6.313
18363WAT     H255332   0.167   2.436   6.197
18364WAT      O55333   7.299   9.242   1.501
18364WAT     H155334   7.213   9.235   1.551
18364WAT     H255335   7.348   9.154   1.506
18365WAT      O55336   6.473   5.058   2.511
18365WAT     H155337   6.467   4.959   2.522
18365WAT     H255338   6.441   5.084   2.420
18366WAT      O55339   7.917   0.294   5.952
18366WAT     H155340   7.872   0.269   5.866
18366WAT     H255341   7.975   0.374   5.937
18367WAT      O55342   6.797   6.986   4.164
18367WAT     H155343   6.791   6.887   4.172
18367WAT     H255344   6.787   7.013   4.068
18368WAT      O55345   4.518   0.726   0.352
18368WAT     H155346   4.526   0.808   0.408
18368WAT     H255347   4.477   0.653   0.407
18369WAT      O55348   0.671   3.531   1.050
18369WAT     H155349   0.627   3.486   1.128
18369WAT     H255350   0.648   3.628   1.050
18370WAT      O55351   1.868   8.747   4.612
18370WAT     H155352   1.927   8.775   4.536
18370WAT     H255353   1.772   8.748   4.583
18371WAT      O55354   2.394   0.750   1.997
18371WAT     H155355   2.427   0.785   2.085
18371WAT     H255356   2.295   0.737   2.002
18372WAT      O55357   8.908   3.850   5.399
18372WAT     H155358   8.882   3.772   5.342
18372WAT     H255359   8.974   3.907   5.350
18373WAT      O55360   3.390   4.599   5.946
18373WAT     H155361   3.335   4.638   6.019
18373WAT     H255362   3.487   4.611   5.967
18374WAT      O55363   1.959   8.828   8.676
18374WAT     H155364   1.873   8.777   8.677
18374WAT     H255365   2.002   8.823   8.766
18375WAT      O55366   0.190   8.944   0.533
18375WAT     H155367   0.133   9.023   0.510
18375WAT     H255368   0.277   8.951   0.484
18376WAT      O55369   5.613   0.322   7.152
18376WAT     H155370   5.663   0.384   7.212
18376WAT     H255371   5.657   0.231   7.154
18377WAT      O55372   0.160   2.012   3.125
18377WAT     H155373   0.132   1.955   3.203
18377WAT     H255374   0.254   2.044   3.139
18378WAT      O55375   2.589   7.026   6.097
18378WAT     H155376   2.532   7.086   6.151
18378WAT     H255377   2.683   7.028   6.131
18379WAT      O55378   3.900   7.710   0.119
18379WAT     H155379   3.978   7.757   0.076
18379WAT     H255380   3.934   7.641   0.183
18380WAT      O55381   3.008   0.059   0.255
18380WAT     H155382   2.952   0.024   0.180
18380WAT     H255383   3.023   0.157   0.242
18381WAT      O55384   7.435   1.691   8.440
18381WAT     H155385   7.501   1.741   8.495
18381WAT     H255386   7.360   1.659   8.498
18382WAT      O55387   9.346   6.689   3.519
18382WAT     H155388   9.333   6.752   3.595
18382WAT     H255389   9.274   6.619   3.521
18383WAT      O55390   5.755   3.214   8.335
18383WAT     H155391   5.703   3.146   8.386
18383WAT     H255392   5.711   3.230   8.246
18384WAT      O55393   3.592   2.676   6.478
18384WAT     H155394   3.571   2.766   6.439
18384WAT     H255395   3.508   2.622   6.484
18385WAT      O55396   5.412   4.741   6.792
18385WAT     H155397   5.434   4.827   6.838
18385WAT     H255398   5.334   4.755   6.730
18386WAT      O55399   9.632   7.511   3.246
18386WAT     H155400   9.723   7.551   3.256
18386WAT     H255401   9.579   7.564   3.180
18387WAT      O55402   4.399   6.056   3.161
18387WAT     H155403   4.329   6.117   3.200
18387WAT     H255404   4.483   6.064   3.214
18388WAT      O55405   3.340   5.375   8.267
18388WAT     H155406   3.369   5.432   8.191
18388WAT     H255407   3.324   5.432   8.348
18389WAT      O55408   6.197   9.828   8.588
18389WAT     H155409   6.161   9.864   8.502
18389WAT     H255410   6.239   9.739   8.571
18390WAT      O55411   2.629   6.507   8.649
18390WAT     H155412   2.570   6.465   8.580
18390WAT     H255413   2.722   6.474   8.638
18391WAT      O55414   8.320   0.443   0.611
18391WAT     H155415   8.407   0.397   0.632
18391WAT     H255416   8.268   0.456   0.696
18392WAT      O55417   9.209   1.544   3.436
18392WAT     H155418   9.247   1.458   3.403
18392WAT     H255419   9.277   1.592   3.491
18393WAT      O55420   5.251   3.256   5.003
18393WAT     H155421   5.328   3.275   5.063
18393WAT     H255422   5.222   3.161   5.015
18394WAT      O55423   4.925   0.491   4.362
18394WAT     H155424   4.906   0.574   4.413
18394WAT     H255425   4.894   0.411   4.413
18395WAT      O55426   2.033   0.809   1.203
18395WAT     H155427   1.943   0.780   1.236
18395WAT     H255428   2.066   0.885   1.258
18396WAT      O55429   7.851   1.354   5.997
18396WAT     H155430   7.936   1.314   6.029
18396WAT     H255431   7.779   1.338   6.064
18397WAT      O55432   9.038   1.976   0.484
18397WAT     H155433   9.017   2.049   0.550
18397WAT     H255434   9.109   2.007   0.422
18398WAT      O55435   5.731   4.409   9.205
18398WAT     H155436   5.778   4.325   9.179
18398WAT     H255437   5.688   4.397   9.295
18399WAT      O55438   7.503   2.828   7.988
18399WAT     H155439   7.543   2.831   8.080
18399WAT     H255440   7.572   2.799   7.923
18400WAT      O55441   4.008   1.760   6.717
18400WAT     H155442   4.060   1.804   6.643
18400WAT     H255443   4.015   1.815   6.800
18401WAT      O55444   5.321   9.259   2.792
18401WAT     H155445   5.380   9.254   2.873
18401WAT     H255446   5.317   9.353   2.759
18402WAT      O55447   6.433   6.703   7.836
18402WAT     H155448   6.463   6.788   7.877
18402WAT     H255449   6.335   6.709   7.815
18403WAT      O55450   7.469   6.788   1.378
18403WAT     H155451   7.401   6.777   1.450
18403WAT     H255452   7.428   6.834   1.300
18404WAT      O55453   6.257   4.463   1.582
18404WAT     H155454   6.279   4.446   1.486
18404WAT     H255455   6.174   4.519   1.588
18405WAT      O55456   1.083   3.339   9.423
18405WAT     H155457   1.183   3.338   9.417
18405WAT     H255458   1.046   3.266   9.366
18406WAT      O55459   4.487   2.346   4.022
18406WAT     H155460   4.558   2.393   4.074
18406WAT     H255461   4.493   2.373   3.926
18407WAT      O55462   8.014   1.634   9.590
18407WAT     H155463   7.995   1.662   9.495
18407WAT     H255464   8.058   1.709   9.638
18408WAT      O55465   4.356   4.155   8.238
18408WAT     H155466   4.342   4.233   8.300
18408WAT     H255467   4.446   4.163   8.195
18409WAT      O55468   0.871   7.988   1.654
18409WAT     H155469   0.869   7.906   1.597
18409WAT     H255470   0.896   7.963   1.748
18410WAT      O55471   9.554   3.510   6.128
18410WAT     H155472   9.467   3.559   6.122
18410WAT     H255473   9.539   3.422   6.172
18411WAT      O55474   6.231   2.265   2.251
18411WAT     H155475   6.239   2.301   2.345
18411WAT     H255476   6.175   2.182   2.252
18412WAT      O55477   1.168   7.404   1.368
18412WAT     H155478   1.182   7.359   1.280
18412WAT     H255479   1.224   7.361   1.438
18413WAT      O55480   1.205   7.724   2.144
18413WAT     H155481   1.246   7.752   2.231
18413WAT     H255482   1.241   7.781   2.071
18414WAT      O55483   8.330   9.620   6.531
18414WAT     H155484   8.258   9.667   6.583
18414WAT     H255485   8.340   9.664   6.442
18415WAT      O55486   3.678   3.658   7.790
18415WAT     H155487   3.742   3.721   7.746
18415WAT     H255488   3.663   3.686   7.885
18416WAT      O55489   8.645   9.492   4.490
18416WAT     H155490   8.645   9.471   4.588
18416WAT     H255491   8.690   9.419   4.440
18417WAT      O55492   3.680   0.209   9.573
18417WAT     H155493   3.651   0.117   9.600
18417WAT     H255494   3.662   0.223   9.476
18418WAT      O55495   0.157   2.630   2.222
18418WAT     H155496   0.241   2.604   2.269
18418WAT     H255497   0.150   2.730   2.221
18419WAT      O55498   1.276   7.984   3.948
18419WAT     H155499   1.189   8.032   3.935
18419WAT     H255500   1.351   8.045   3.923
18420WAT      O55501   7.427   5.244   7.928
18420WAT     H155502   7.467   5.336   7.922
18420WAT     H255503   7.482   5.188   7.989
18421WAT      O55504   4.876   5.904   2.664
18421WAT     H155505   4.793   5.874   2.617
18421WAT     H255506   4.941   5.939   2.597
18422WAT      O55507   1.295   9.150   0.196
18422WAT     H155508   1.380   9.145   0.144
18422WAT     H255509   1.282   9.065   0.248
18423WAT      O55510   3.021   0.278   4.164
18423WAT     H155511   3.067   0.360   4.198
18423WAT     H255512   3.085   0.225   4.107
18424WAT      O55513   4.952   1.250   3.231
18424WAT     H155514   5.035   1.273   3.282
18424WAT     H255515   4.886   1.208   3.293
18425WAT      O55516   5.919   4.167   8.993
18425WAT     H155517   5.999   4.147   8.936
18425WAT     H255518   5.859   4.231   8.944
18426WAT      O55519   4.856   1.728   4.220
18426WAT     H155520   4.782   1.777   4.174
18426WAT     H255521   4.934   1.721   4.158
18427WAT      O55522   7.920   7.272   6.583
18427WAT     H155523   7.829   7.313   6.583
18427WAT     H255524   7.974   7.310   6.658
18428WAT      O55525   9.410   1.121   7.703
18428WAT     H155526   9.402   1.038   7.759
18428WAT     H255527   9.319   1.152   7.676
18429WAT      O55528   2.115   4.282   7.410
18429WAT     H155529   2.125   4.373   7.370
18429WAT     H255530   2.204   4.240   7.422
18430WAT      O55531   4.993   5.788   1.665
18430WAT     H155532   5.089   5.772   1.688
18430WAT     H255533   4.938   5.780   1.748
18431WAT      O55534   4.933   1.822   9.045
18431WAT     H155535   4.974   1.906   9.080
18431WAT     H255536   4.937   1.751   9.115
18432WAT      O55537   3.871   0.508   6.630
18432WAT     H155538   3.839   0.465   6.546
18432WAT     H255539   3.968   0.487   6.643
18433WAT      O55540   9.526   5.923   3.346
18433WAT     H155541   9.622   5.897   3.334
18433WAT     H255542   9.471   5.840   3.361
18434WAT      O55543   2.367   0.491   0.543
18434WAT     H155544   2.338   0.495   0.639
18434WAT     H255545   2.463   0.462   0.539
18435WAT      O55546   8.052   7.359   1.143
18435WAT     H155547   8.030   7.265   1.117
18435WAT     H255548   8.142   7.383   1.106
18436WAT      O55549   5.077   1.000   8.399
18436WAT     H155550   5.103   1.016   8.303
18436WAT     H255551   5.083   0.902   8.419
18437WAT      O55552   3.640   9.574   9.106
18437WAT     H155553   3.650   9.527   9.193
18437WAT     H255554   3.573   9.527   9.049
18438WAT      O55555   7.199   6.742   3.475
18438WAT     H155556   7.257   6.717   3.552
18438WAT     H255557   7.240   6.819   3.426
18439WAT      O55558   0.440   4.780   4.192
18439WAT     H155559   0.514   4.816   4.249
18439WAT     H255560   0.460   4.799   4.096
18440WAT      O55561   9.764   6.628   7.396
18440WAT     H155562   9.742   6.711   7.343
18440WAT     H255563   9.704   6.554   7.367
18441WAT      O55564   5.408   4.422   2.085
18441WAT     H155565   5.507   4.432   2.091
18441WAT     H255566   5.380   4.342   2.138
18442WAT      O55567   2.716   4.844   7.073
18442WAT     H155568   2.783   4.911   7.040
18442WAT     H255569   2.641   4.837   7.008
18443WAT      O55570   6.433   5.136   0.089
18443WAT     H155571   6.343   5.158   0.051
18443WAT     H255572   6.447   5.190   0.172
18444WAT      O55573   4.188   6.855   1.001
18444WAT     H155574   4.229   6.766   1.022
18444WAT     H255575   4.250   6.928   1.031
18445WAT      O55576   5.013   8.477   9.558
18445WAT     H155577   5.049   8.457   9.650
18445WAT     H255578   5.074   8.541   9.511
18446WAT      O55579   3.027   2.992   2.001
18446WAT     H155580   3.114   3.022   1.961
18446WAT     H255581   2.952   3.023   1.943
18447WAT      O55582   8.302   7.462   3.809
18447WAT     H155583   8.284   7.515   3.727
18447WAT     H255584   8.388   7.412   3.799
18448WAT      O55585   3.361   9.410   8.033
18448WAT     H155586   3.442   9.376   7.986
18448WAT     H255587   3.321   9.337   8.089
18449WAT      O55588   1.300   4.719   7.160
18449WAT     H155589   1.294   4.770   7.245
18449WAT     H255590   1.312   4.621   7.180
18450WAT      O55591   9.489   6.003   6.751
18450WAT     H155592   9.525   5.947   6.826
18450WAT     H255593   9.556   6.074   6.728
18451WAT      O55594   2.121   3.734   4.866
18451WAT     H155595   2.157   3.790   4.792
18451WAT     H255596   2.042   3.779   4.908
18452WAT      O55597   8.966   0.040   0.369
18452WAT     H155598   8.901   0.052   0.445
18452WAT     H255599   9.002  -0.053   0.370
18453WAT      O55600   3.222   6.273   5.872
18453WAT     H155601   3.219   6.226   5.784
18453WAT     H255602   3.249   6.368   5.858
18454WAT      O55603   7.497   1.212   1.666
18454WAT     H155604   7.406   1.220   1.625
18454WAT     H255605   7.519   1.116   1.680
18455WAT      O55606   5.604   5.284   0.674
18455WAT     H155607   5.658   5.210   0.635
18455WAT     H255608   5.549   5.326   0.602
18456WAT      O55609   5.611   6.860   5.141
18456WAT     H155610   5.532   6.809   5.174
18456WAT     H255611   5.624   6.941   5.199
18457WAT      O55612   3.807   9.423   3.086
18457WAT     H155613   3.738   9.489   3.115
18457WAT     H255614   3.822   9.357   3.159
18458WAT      O55615   2.437   5.555   8.241
18458WAT     H155616   2.366   5.496   8.279
18458WAT     H255617   2.399   5.611   8.168
18459WAT      O55618   6.284   4.472   3.731
18459WAT     H155619   6.253   4.476   3.636
18459WAT     H255620   6.339   4.390   3.744
18460WAT      O55621   3.588   6.160   0.130
18460WAT     H155622   3.684   6.153   0.156
18460WAT     H255623   3.571   6.107   0.047
18461WAT      O55624   6.410   3.896   0.868
18461WAT     H155625   6.500   3.939   0.863
18461WAT     H255626   6.416   3.802   0.834
18462WAT      O55627   1.454   9.479   4.044
18462WAT     H155628   1.551   9.474   4.070
18462WAT     H255629   1.436   9.565   3.996
18463WAT      O55630   3.471   2.479   1.838
18463WAT     H155631   3.487   2.434   1.750
18463WAT     H255632   3.530   2.439   1.908
18464WAT      O55633   1.602   0.995   1.589
18464WAT     H155634   1.541   0.916   1.602
18464WAT     H255635   1.549   1.079   1.592
18465WAT      O55636   6.445   3.707   1.342
18465WAT     H155637   6.440   3.722   1.440
18465WAT     H255638   6.541   3.700   1.314
18466WAT      O55639   6.639   9.442   7.436
18466WAT     H155640   6.693   9.360   7.413
18466WAT     H255641   6.595   9.477   7.354
18467WAT      O55642   6.242   4.704   8.086
18467WAT     H155643   6.262   4.611   8.118
18467WAT     H255644   6.280   4.770   8.152
18468WAT      O55645   3.048   5.114   5.768
18468WAT     H155646   3.129   5.101   5.711
18468WAT     H255647   2.987   5.035   5.758
18469WAT      O55648   3.140   0.400   4.983
18469WAT     H155649   3.139   0.341   5.064
18469WAT     H255650   3.050   0.442   4.971
18470WAT      O55651   7.540   5.260   6.166
18470WAT     H155652   7.636   5.290   6.161
18470WAT     H255653   7.533   5.180   6.225
18471WAT      O55654   6.438   4.296   6.444
18471WAT     H155655   6.494   4.379   6.442
18471WAT     H255656   6.421   4.264   6.351
18472WAT      O55657   6.745   5.880   9.566
18472WAT     H155658   6.673   5.816   9.542
18472WAT     H255659   6.705   5.966   9.597
18473WAT      O55660   9.085   6.795   6.850
18473WAT     H155661   9.105   6.882   6.804
18473WAT     H255662   9.149   6.725   6.819
18474WAT      O55663   2.524   9.235   3.917
18474WAT     H155664   2.470   9.232   3.833
18474WAT     H255665   2.555   9.143   3.940
18475WAT      O55666   1.683   5.120   5.018
18475WAT     H155667   1.589   5.086   5.022
18475WAT     H255668   1.696   5.189   5.089
18476WAT      O55669   5.636   9.299   6.967
18476WAT     H155670   5.682   9.250   6.893
18476WAT     H255671   5.539   9.307   6.946
18477WAT      O55672   6.814   6.954   8.283
18477WAT     H155673   6.872   7.032   8.304
18477WAT     H255674   6.843   6.875   8.336
18478WAT      O55675   9.498   8.978   5.129
18478WAT     H155676   9.509   8.958   5.227
18478WAT     H255677   9.517   9.075   5.113
18479WAT      O55678   2.453   5.583   2.114
18479WAT     H155679   2.480   5.498   2.159
18479WAT     H255680   2.463   5.573   2.015
18480WAT      O55681   3.083   9.405   7.462
18480WAT     H155682   3.065   9.335   7.530
18480WAT     H255683   3.156   9.375   7.400
18481WAT      O55684   0.639   3.872   0.249
18481WAT     H155685   0.572   3.806   0.282
18481WAT     H255686   0.626   3.959   0.295
18482WAT      O55687   2.223   8.264   1.385
18482WAT     H155688   2.236   8.317   1.469
18482WAT     H255689   2.312   8.236   1.349
18483WAT      O55690   8.012   2.408   6.339
18483WAT     H155691   7.991   2.340   6.409
18483WAT     H255692   7.928   2.433   6.291
18484WAT      O55693   3.459   3.928   3.000
18484WAT     H155694   3.482   4.004   3.061
18484WAT     H255695   3.542   3.876   2.978
18485WAT      O55696   0.909   2.614   6.510
18485WAT     H155697   0.956   2.676   6.572
18485WAT     H255698   0.858   2.546   6.563
18486WAT      O55699   1.641   0.398   0.905
18486WAT     H155700   1.651   0.492   0.938
18486WAT     H255701   1.547   0.368   0.915
18487WAT      O55702   0.260   4.925   4.403
18487WAT     H155703   0.225   4.872   4.326
18487WAT     H255704   0.340   4.878   4.442
18488WAT      O55705   3.214   6.784   3.067
18488WAT     H155706   3.148   6.857   3.085
18488WAT     H255707   3.303   6.809   3.105
18489WAT      O55708   7.374   3.616   7.524
18489WAT     H155709   7.457   3.661   7.559
18489WAT     H255710   7.298   3.632   7.587
18490WAT      O55711   4.917   7.141   4.727
18490WAT     H155712   5.002   7.173   4.688
18490WAT     H255713   4.912   7.168   4.824
18491WAT      O55714   0.354   3.987   6.688
18491WAT     H155715   0.413   3.926   6.636
18491WAT     H255716   0.410   4.054   6.737
18492WAT      O55717   8.425   1.800   4.113
18492WAT     H155718   8.446   1.894   4.087
18492WAT     H255719   8.341   1.771   4.069
18493WAT      O55720   4.017   2.609   4.206
18493WAT     H155721   4.045   2.701   4.233
18493WAT     H255722   4.089   2.544   4.230
18494WAT      O55723   7.436   5.516   6.500
18494WAT     H155724   7.501   5.569   6.447
18494WAT     H255725   7.463   5.516   6.596
18495WAT      O55726   7.622   6.083   5.379
18495WAT     H155727   7.550   6.053   5.317
18495WAT     H255728   7.652   6.175   5.355
18496WAT      O55729   5.106   9.396   0.738
18496WAT     H155730   5.122   9.463   0.666
18496WAT     H255731   5.041   9.327   0.706
18497WAT      O55732   9.422   5.536   0.599
18497WAT     H155733   9.483   5.611   0.622
18497WAT     H255734   9.376   5.555   0.513
18498WAT      O55735   8.149   7.205   5.592
18498WAT     H155736   8.199   7.212   5.677
18498WAT     H255737   8.055   7.176   5.611
18499WAT      O55738   9.622   1.597   2.098
18499WAT     H155739   9.627   1.606   1.998
18499WAT     H255740   9.647   1.684   2.140
18500WAT      O55741   2.016   3.914   9.210
18500WAT     H155742   1.995   3.827   9.165
18500WAT     H255743   1.935   3.947   9.257
18501WAT      O55744   0.401   3.006   2.453
18501WAT     H155745   0.372   3.061   2.531
18501WAT     H255746   0.500   2.999   2.451
18502WAT      O55747   9.084   6.559   7.484
18502WAT     H155748   9.138   6.484   7.522
18502WAT     H255749   9.101   6.642   7.536
18503WAT      O55750   1.833   2.456   4.031
18503WAT     H155751   1.876   2.373   4.065
18503WAT     H255752   1.883   2.536   4.064
18504WAT      O55753   2.879   3.540   6.610
18504WAT     H155754   2.923   3.592   6.536
18504WAT     H255755   2.947   3.513   6.677
18505WAT      O55756   5.685   0.184   5.083
18505WAT     H155757   5.620   0.234   5.025
18505WAT     H255758   5.778   0.196   5.048
18506WAT      O55759   0.715   0.477   1.883
18506WAT     H155760   0.660   0.408   1.835
18506WAT     H255761   0.798   0.434   1.918
18507WAT      O55762   3.363   3.075   4.043
18507WAT     H155763   3.277   3.127   4.046
18507WAT     H255764   3.346   2.986   4.002
18508WAT      O55765  -0.000   3.247   5.676
18508WAT     H155766   0.003   3.327   5.736
18508WAT     H255767   0.048   3.267   5.591
18509WAT      O55768   1.086   2.118   9.217
18509WAT     H155769   1.166   2.098   9.275
18509WAT     H255770   1.103   2.202   9.166
18510WAT      O55771   5.422   7.269   2.840
18510WAT     H155772   5.385   7.352   2.883
18510WAT     H255773   5.456   7.291   2.749
18511WAT      O55774   1.539   1.366   7.550
18511WAT     H155775   1.536   1.332   7.456
18511WAT     H255776   1.446   1.382   7.583
18512WAT      O55777   0.970   1.568   5.964
18512WAT     H155778   1.044   1.611   6.016
18512WAT     H255779   1.009   1.503   5.898
18513WAT      O55780   6.307   3.274   8.797
18513WAT     H155781   6.325   3.361   8.842
18513WAT     H255782   6.257   3.290   8.712
18514WAT      O55783   2.644   1.354   8.717
18514WAT     H155784   2.680   1.437   8.758
18514WAT     H255785   2.692   1.334   8.632
18515WAT      O55786   6.098   8.679   3.830
18515WAT     H155787   6.107   8.639   3.921
18515WAT     H255788   6.125   8.613   3.761
18516WAT      O55789   1.332   1.521   7.321
18516WAT     H155790   1.397   1.531   7.245
18516WAT     H255791   1.296   1.428   7.321
18517WAT      O55792   7.000   0.347   5.774
18517WAT     H155793   6.923   0.325   5.835
18517WAT     H255794   6.968   0.347   5.679
18518WAT      O55795   9.509   6.181   5.313
18518WAT     H155796   9.540   6.210   5.404
18518WAT     H255797   9.447   6.103   5.321
18519WAT      O55798   7.685   5.525   2.376
18519WAT     H155799   7.685   5.445   2.435
18519WAT     H255800   7.776   5.567   2.377
18520WAT      O55801   6.128   4.625   4.273
18520WAT     H155802   6.186   4.627   4.191
18520WAT     H255803   6.167   4.683   4.344
18521WAT      O55804   1.077   1.641   9.800
18521WAT     H155805   1.153   1.629   9.736
18521WAT     H255806   1.077   1.735   9.835
18522WAT      O55807   8.571   3.939   2.415
18522WAT     H155808   8.515   3.883   2.354
18522WAT     H255809   8.513   4.007   2.460
18523WAT      O55810   5.910   4.084   7.464
18523WAT     H155811   5.858   4.166   7.487
18523WAT     H255812   5.899   4.016   7.537
18524WAT      O55813   5.173   5.403   0.216
18524WAT     H155814   5.112   5.470   0.258
18524WAT     H255815   5.265   5.442   0.209
18525WAT      O55816   8.210   4.348   9.440
18525WAT     H155817   8.166   4.321   9.525
18525WAT     H255818   8.169   4.433   9.406
18526WAT      O55819   5.627   7.194   1.670
18526WAT     H155820   5.630   7.186   1.570
18526WAT     H255821   5.620   7.290   1.695
18527WAT      O55822   0.796   2.968   0.669
18527WAT     H155823   0.855   3.036   0.712
18527WAT     H255824   0.724   2.942   0.733
18528WAT      O55825   7.346   1.682   3.399
18528WAT     H155826   7.386   1.773   3.399
18528WAT     H255827   7.414   1.616   3.365
18529WAT      O55828   2.561   4.269   4.302
18529WAT     H155829   2.499   4.218   4.361
18529WAT     H255830   2.652   4.226   4.305
18530WAT      O55831   1.762   3.742   8.424
18530WAT     H155832   1.675   3.694   8.411
18530WAT     H255833   1.795   3.726   8.517
18531WAT      O55834   5.168   3.549   6.085
18531WAT     H155835   5.267   3.557   6.096
18531WAT     H255836   5.122   3.626   6.129
18532WAT      O55837   2.823   2.724   9.084
18532WAT     H155838   2.845   2.764   9.173
18532WAT     H255839   2.848   2.628   9.083
18533WAT      O55840   4.329   5.783   1.431
18533WAT     H155841   4.255   5.839   1.468
18533WAT     H255842   4.400   5.772   1.500
18534WAT      O55843   9.767   4.588   2.488
18534WAT     H155844   9.740   4.576   2.584
18534WAT     H255845   9.840   4.523   2.466
18535WAT      O55846   7.177   6.319   0.987
18535WAT     H155847   7.087   6.309   1.030
18535WAT     H255848   7.204   6.233   0.945
18536WAT      O55849   2.522   6.938   7.135
18536WAT     H155850   2.610   6.918   7.092
18536WAT     H255851   2.473   6.853   7.152
18537WAT      O55852   1.358   6.243   3.683
18537WAT     H155853   1.396   6.271   3.595
18537WAT     H255854   1.317   6.322   3.729
18538WAT      O55855   7.021   5.650   8.691
18538WAT     H155856   7.048   5.641   8.787
18538WAT     H255857   7.085   5.599   8.634
18539WAT      O55858   8.718   3.945   0.165
18539WAT     H155859   8.717   3.992   0.253
18539WAT     H255860   8.806   3.899   0.153
18540WAT      O55861   3.955   0.489   5.318
18540WAT     H155862   4.006   0.458   5.399
18540WAT     H255863   3.926   0.410   5.264
18541WAT      O55864   0.987   4.795   8.831
18541WAT     H155865   1.048   4.874   8.831
18541WAT     H255866   1.011   4.734   8.756
18542WAT      O55867   6.213   5.122   8.508
18542WAT     H155868   6.226   5.023   8.496
18542WAT     H255869   6.249   5.149   8.597
18543WAT      O55870   3.368   1.028   8.805
18543WAT     H155871   3.292   1.002   8.864
18543WAT     H255872   3.356   1.122   8.773
18544WAT      O55873   4.096   4.781   5.326
18544WAT     H155874   4.118   4.877   5.309
18544WAT     H255875   4.069   4.737   5.241
18545WAT      O55876   5.520   7.022   0.119
18545WAT     H155877   5.480   7.063   0.201
18545WAT     H255878   5.606   7.069   0.098
18546WAT      O55879   8.316   7.314   3.029
18546WAT     H155880   8.292   7.276   2.940
18546WAT     H255881   8.387   7.258   3.071
18547WAT      O55882   2.009   7.180   4.702
18547WAT     H155883   1.915   7.155   4.681
18547WAT     H255884   2.067   7.161   4.623
18548WAT      O55885   6.950   4.994   7.956
18548WAT     H155886   6.922   4.948   8.041
18548WAT     H255887   6.947   5.093   7.969
18549WAT      O55888   7.357   1.083   9.829
18549WAT     H155889   7.440   1.038   9.861
18549WAT     H255890   7.354   1.177   9.864
18550WAT      O55891   5.805   5.005   7.239
18550WAT     H155892   5.801   4.923   7.296
18550WAT     H255893   5.732   5.068   7.266
18551WAT      O55894   4.816   3.379   6.237
18551WAT     H155895   4.881   3.304   6.232
18551WAT     H255896   4.817   3.429   6.150
18552WAT      O55897   4.703   6.843   9.517
18552WAT     H155898   4.756   6.774   9.468
18552WAT     H255899   4.759   6.885   9.588
18553WAT      O55900   7.126   9.462   5.840
18553WAT     H155901   7.162   9.555   5.842
18553WAT     H255902   7.036   9.461   5.885
18554WAT      O55903   4.376   7.273   9.087
18554WAT     H155904   4.362   7.367   9.116
18554WAT     H255905   4.299   7.243   9.032
18555WAT      O55906   9.572   1.779   9.326
18555WAT     H155907   9.614   1.699   9.284
18555WAT     H255908   9.478   1.758   9.352
18556WAT      O55909   4.550   7.556   6.292
18556WAT     H155910   4.648   7.552   6.270
18556WAT     H255911   4.524   7.651   6.309
18557WAT      O55912   4.668   4.468   7.660
18557WAT     H155913   4.647   4.441   7.754
18557WAT     H255914   4.687   4.566   7.657
18558WAT      O55915   3.273   1.646   9.653
18558WAT     H155916   3.323   1.667   9.737
18558WAT     H255917   3.195   1.588   9.675
18559WAT      O55918   7.034   2.108   2.318
18559WAT     H155919   7.091   2.137   2.394
18559WAT     H255920   7.091   2.091   2.238
18560WAT      O55921   7.218   6.414   9.537
18560WAT     H155922   7.246   6.503   9.572
18560WAT     H255923   7.241   6.343   9.603
18561WAT      O55924   9.748   3.965   4.969
18561WAT     H155925   9.846   3.943   4.967
18561WAT     H255926   9.710   3.936   5.057
18562WAT      O55927   9.571   3.471   0.584
18562WAT     H155928   9.658   3.423   0.589
18562WAT     H255929   9.549   3.489   0.488
18563WAT      O55930   5.863   2.639   3.146
18563WAT     H155931   5.799   2.637   3.223
18563WAT     H255932   5.847   2.722   3.092
18564WAT      O55933   5.077   9.046   6.043
18564WAT     H155934   5.126   9.031   6.129
18564WAT     H255935   4.985   9.082   6.063
18565WAT      O55936   3.944   3.523   8.414
18565WAT     H155937   3.992   3.439   8.438
18565WAT     H255938   3.906   3.565   8.496
18566WAT      O55939   9.520   3.318   1.830
18566WAT     H155940   9.556   3.226   1.812
18566WAT     H255941   9.490   3.359   1.744
18567WAT      O55942   0.725   1.938   3.449
18567WAT     H155943   0.648   1.893   3.406
18567WAT     H255944   0.714   1.936   3.549
18568WAT      O55945   5.119   1.706   7.208
18568WAT     H155946   5.056   1.630   7.193
18568WAT     H255947   5.192   1.703   7.139
18569WAT      O55948   2.639   5.577   2.946
18569WAT     H155949   2.580   5.590   3.025
18569WAT     H255950   2.590   5.526   2.875
18570WAT      O55951   2.995   8.467   8.566
18570WAT     H155952   3.030   8.451   8.474
18570WAT     H255953   2.905   8.425   8.575
18571WAT      O55954   5.666   0.139   7.503
18571WAT     H155955   5.627   0.231   7.494
18571WAT     H255956   5.703   0.127   7.595
18572WAT      O55957   0.220   5.910   6.645
18572WAT     H155958   0.139   5.852   6.644
18572WAT     H255959   0.258   5.916   6.553
18573WAT      O55960   7.604   5.805   0.385
18573WAT     H155961   7.699   5.824   0.359
18573WAT     H255962   7.595   5.710   0.413
18574WAT      O55963   1.254   9.303   5.303
18574WAT     H155964   1.326   9.362   5.267
18574WAT     H255965   1.255   9.215   5.254
18575WAT      O55966   2.356   5.973   4.139
18575WAT     H155967   2.448   5.976   4.099
18575WAT     H255968   2.327   6.066   4.162
18576WAT      O55969   6.053   5.492   8.371
18576WAT     H155970   6.092   5.445   8.291
18576WAT     H255971   6.107   5.573   8.392
18577WAT      O55972   3.383   5.949   3.149
18577WAT     H155973   3.464   5.991   3.190
18577WAT     H255974   3.374   5.855   3.183
18578WAT      O55975   1.724   0.865   7.652
18578WAT     H155976   1.735   0.826   7.744
18578WAT     H255977   1.787   0.819   7.589
18579WAT      O55978   3.917   5.087   7.370
18579WAT     H155979   3.868   5.032   7.302
18579WAT     H255980   3.939   5.176   7.331
18580WAT      O55981   7.260   0.802   8.679
18580WAT     H155982   7.315   0.788   8.596
18580WAT     H255983   7.273   0.724   8.740
18581WAT      O55984   7.000   9.757   3.746
18581WAT     H155985   7.070   9.819   3.711
18581WAT     H255986   6.977   9.783   3.839
18582WAT      O55987   5.916   0.414   3.098
18582WAT     H155988   5.968   0.444   3.019
18582WAT     H255989   5.947   0.323   3.126
18583WAT      O55990   8.856   0.229   1.702
18583WAT     H155991   8.847   0.329   1.709
18583WAT     H255992   8.828   0.187   1.788
18584WAT      O55993   1.707   1.178   3.519
18584WAT     H155994   1.632   1.170   3.586
18584WAT     H255995   1.746   1.269   3.523
18585WAT      O55996   8.560   7.524   0.593
18585WAT     H155997   8.469   7.545   0.557
18585WAT     H255998   8.560   7.431   0.631
18586WAT      O55999   8.891   1.678   1.222
18586WAT     H156000   8.884   1.594   1.276
18586WAT     H256001   8.988   1.703   1.211
18587WAT      O56002   8.934   3.587   1.282
18587WAT     H156003   9.025   3.583   1.322
18587WAT     H256004   8.932   3.534   1.197
18588WAT      O56005   8.879   6.349   7.851
18588WAT     H156006   8.977   6.368   7.842
18588WAT     H256007   8.840   6.331   7.761
18589WAT      O56008   3.727   4.658   0.285
18589WAT     H156009   3.790   4.628   0.214
18589WAT     H256010   3.778   4.703   0.358
18590WAT      O56011   0.698   9.521   5.517
18590WAT     H156012   0.731   9.535   5.610
18590WAT     H256013   0.669   9.608   5.477
18591WAT      O56014   0.024   2.072   8.127
18591WAT     H156015   0.081   2.067   8.045
18591WAT     H256016  -0.006   2.167   8.140
18592WAT      O56017   8.640   4.114   9.250
18592WAT     H156018   8.556   4.060   9.255
18592WAT     H256019   8.659   4.138   9.154
18593WAT      O56020   2.280   5.252   6.416
18593WAT     H156021   2.379   5.248   6.420
18593WAT     H256022   2.250   5.251   6.321
18594WAT      O56023   4.820   5.349   6.626
18594WAT     H156024   4.729   5.373   6.659
18594WAT     H256025   4.866   5.431   6.591
18595WAT      O56026   3.352   7.156   1.766
18595WAT     H156027   3.255   7.147   1.789
18595WAT     H256028   3.362   7.220   1.690
18596WAT      O56029   1.540   7.250   5.572
18596WAT     H156030   1.632   7.210   5.568
18596WAT     H256031   1.501   7.233   5.662
18597WAT      O56032   8.286   2.875   9.509
18597WAT     H156033   8.338   2.841   9.586
18597WAT     H256034   8.197   2.908   9.540
18598WAT      O56035   4.872   2.914   4.737
18598WAT     H156036   4.841   3.008   4.733
18598WAT     H256037   4.807   2.859   4.790
18599WAT      O56038   4.450   7.726   9.588
18599WAT     H156039   4.483   7.808   9.540
18599WAT     H256040   4.378   7.752   9.652
18600WAT      O56041   8.573   9.816   7.856
18600WAT     H156042   8.641   9.773   7.797
18600WAT     H256043   8.542   9.750   7.924
18601WAT      O56044   7.202   4.322   3.981
18601WAT     H156045   7.155   4.236   3.965
18601WAT     H256046   7.241   4.322   4.073
18602WAT      O56047   5.043   0.218   6.796
18602WAT     H156048   5.096   0.244   6.876
18602WAT     H256049   4.972   0.153   6.823
18603WAT      O56050   9.463   8.959   6.127
18603WAT     H156051   9.535   9.024   6.102
18603WAT     H256052   9.474   8.875   6.073
18604WAT      O56053   7.361   2.452   4.981
18604WAT     H156054   7.271   2.494   4.995
18604WAT     H256055   7.416   2.464   5.063
18605WAT      O56056   4.853   5.950   2.269
18605WAT     H156057   4.872   6.010   2.192
18605WAT     H256058   4.755   5.950   2.289
18606WAT      O56059   8.149   3.128   7.313
18606WAT     H156060   8.161   3.217   7.358
18606WAT     H256061   8.186   3.056   7.372
18607WAT      O56062   0.557   5.767   2.234
18607WAT     H156063   0.648   5.803   2.251
18607WAT     H256064   0.494   5.802   2.304
18608WAT      O56065   3.368   5.776   4.726
18608WAT     H156066   3.333   5.792   4.818
18608WAT     H256067   3.448   5.835   4.710
18609WAT      O56068   8.174   8.493   1.039
18609WAT     H156069   8.187   8.574   1.097
18609WAT     H256070   8.076   8.473   1.031
18610WAT      O56071   5.870   8.412   4.001
18610WAT     H156072   5.840   8.502   4.034
18610WAT     H256073   5.938   8.375   4.064
18611WAT      O56074   4.417   7.902   0.254
18611WAT     H156075   4.370   7.863   0.175
18611WAT     H256076   4.498   7.847   0.276
18612WAT      O56077   1.281   1.995   1.775
18612WAT     H156078   1.320   1.940   1.700
18612WAT     H256079   1.182   1.988   1.773
18613WAT      O56080   5.277   0.607   9.750
18613WAT     H156081   5.264   0.645   9.842
18613WAT     H256082   5.232   0.518   9.744
18614WAT      O56083   4.756   6.614   6.838
18614WAT     H156084   4.684   6.546   6.829
18614WAT     H256085   4.735   6.676   6.913
18615WAT      O56086   2.196   8.487   2.162
18615WAT     H156087   2.248   8.482   2.248
18615WAT     H256088   2.252   8.532   2.092
18616WAT      O56089   5.840   9.400   6.112
18616WAT     H156090   5.765   9.465   6.099
18616WAT     H256091   5.911   9.415   6.043
18617WAT      O56092   5.498   9.813   3.888
18617WAT     H156093   5.534   9.899   3.926
18617WAT     H256094   5.571   9.745   3.887
18618WAT      O56095   7.387   1.554   4.453
18618WAT     H156096   7.472   1.542   4.504
18618WAT     H256097   7.382   1.648   4.418
18619WAT      O56098   4.957   8.455   6.171
18619WAT     H156099   4.911   8.509   6.100
18619WAT     H256100   4.972   8.511   6.252
18620WAT      O56101   0.995   9.398   3.469
18620WAT     H156102   0.942   9.480   3.450
18620WAT     H256103   1.051   9.412   3.551
18621WAT      O56104   1.056   0.057   4.878
18621WAT     H156105   1.103  -0.009   4.936
18621WAT     H256106   1.105   0.065   4.791
18622WAT      O56107   5.902   1.189   5.187
18622WAT     H156108   5.967   1.256   5.151
18622WAT     H256109   5.861   1.223   5.271
18623WAT      O56110   2.362   5.204   4.231
18623WAT     H156111   2.274   5.165   4.204
18623WAT     H256112   2.404   5.250   4.152
18624WAT      O56113   4.016   1.043   8.334
18624WAT     H156114   4.025   1.086   8.424
18624WAT     H256115   4.106   1.012   8.304
18625WAT      O56116   2.965   8.419   1.666
18625WAT     H156117   2.950   8.356   1.742
18625WAT     H256118   3.041   8.480   1.688
18626WAT      O56119   2.348   5.022   7.882
18626WAT     H156120   2.266   5.029   7.940
18626WAT     H256121   2.401   4.942   7.909
18627WAT      O56122   9.853   9.536   7.789
18627WAT     H156123   9.933   9.597   7.782
18627WAT     H256124   9.827   9.505   7.698
18628WAT      O56125   5.408   3.212   9.025
18628WAT     H156126   5.438   3.133   9.078
18628WAT     H256127   5.479   3.282   9.025
18629WAT      O56128   6.615   5.047   4.969
18629WAT     H156129   6.586   5.129   4.921
18629WAT     H256130   6.715   5.041   4.969
18630WAT      O56131   0.513   2.419   1.412
18630WAT     H156132   0.416   2.439   1.396
18630WAT     H256133   0.534   2.327   1.379
18631WAT      O56134   5.442   3.727   0.291
18631WAT     H156135   5.508   3.737   0.216
18631WAT     H256136   5.349   3.727   0.254
18632WAT      O56137   4.757   0.826   2.515
18632WAT     H156138   4.803   0.791   2.434
18632WAT     H256139   4.805   0.796   2.597
18633WAT      O56140   6.004   1.264   0.767
18633WAT     H156141   6.000   1.360   0.796
18633WAT     H256142   6.057   1.256   0.683
18634WAT      O56143   6.516   0.495   8.957
18634WAT     H156144   6.466   0.582   8.960
18634WAT     H256145   6.613   0.512   8.975
18635WAT      O56146   0.400   3.702   3.080
18635WAT     H156147   0.347   3.660   3.154
18635WAT     H256148   0.338   3.758   3.023
18636WAT      O56149   9.015   9.194   3.592
18636WAT     H156150   8.974   9.270   3.543
18636WAT     H256151   8.969   9.109   3.567
18637WAT      O56152   8.511   1.418   9.554
18637WAT     H156153   8.498   1.319   9.551
18637WAT     H256154   8.425   1.462   9.582
18638WAT      O56155   2.230   1.356   6.193
18638WAT     H156156   2.229   1.288   6.267
18638WAT     H256157   2.218   1.447   6.232
18639WAT      O56158   4.794   6.309   3.869
18639WAT     H156159   4.865   6.290   3.937
18639WAT     H256160   4.801   6.404   3.839
18640WAT      O56161   1.924   0.458   3.500
18640WAT     H156162   1.872   0.485   3.420
18640WAT     H256163   1.969   0.538   3.539
18641WAT      O56164   9.026   7.838   0.965
18641WAT     H156165   9.069   7.782   0.894
18641WAT     H256166   9.038   7.935   0.943
18642WAT      O56167   6.730   7.173   9.624
18642WAT     H156168   6.825   7.203   9.629
18642WAT     H256169   6.705   7.157   9.528
18643WAT      O56170   7.229   8.027   6.445
18643WAT     H156171   7.215   7.960   6.518
18643WAT     H256172   7.212   8.119   6.481
18644WAT      O56173   7.155   3.773   8.114
18644WAT     H156174   7.250   3.768   8.146
18644WAT     H256175   7.148   3.842   8.042
18645WAT      O56176   3.325   9.726   0.246
18645WAT     H156177   3.234   9.715   0.207
18645WAT     H256178   3.343   9.824   0.260
18646WAT      O56179   2.615   3.024   1.666
18646WAT     H156180   2.680   3.068   1.605
18646WAT     H256181   2.558   3.093   1.711
18647WAT      O56182   6.886   5.007   2.773
18647WAT     H156183   6.800   4.964   2.746
18647WAT     H256184   6.899   5.091   2.720
18648WAT      O56185   9.862   2.620   5.362
18648WAT     H156186   9.848   2.714   5.393
18648WAT     H256187   9.799   2.559   5.411
18649WAT      O56188   7.284   8.328   4.281
18649WAT     H156189   7.215   8.316   4.209
18649WAT     H256190   7.372   8.351   4.239
18650WAT      O56191   8.521   6.016   3.403
18650WAT     H156192   8.429   5.996   3.437
18650WAT     H256193   8.515   6.081   3.327
18651WAT      O56194   2.256   9.037   7.661
18651WAT     H156195   2.310   8.953   7.670
18651WAT     H256196   2.315   9.111   7.630
18652WAT      O56197   7.769   9.365   2.821
18652WAT     H156198   7.753   9.404   2.731
18652WAT     H256199   7.798   9.270   2.812
18653WAT      O56200   3.438   6.664   2.691
18653WAT     H156201   3.496   6.735   2.732
18653WAT     H256202   3.489   6.579   2.683
18654WAT      O56203   8.956   2.474   1.380
18654WAT     H156204   9.032   2.433   1.328
18654WAT     H256205   8.902   2.531   1.319
18655WAT      O56206   4.431   1.175   7.743
18655WAT     H156207   4.416   1.238   7.667
18655WAT     H256208   4.427   1.081   7.710
18656WAT      O56209   8.526   9.239   7.635
18656WAT     H156210   8.608   9.201   7.591
18656WAT     H256211   8.485   9.170   7.695
18657WAT      O56212   9.444   3.884   9.469
18657WAT     H156213   9.370   3.946   9.497
18657WAT     H256214   9.412   3.825   9.396
18658WAT      O56215   7.889   9.497   0.810
18658WAT     H156216   7.865   9.400   0.799
18658WAT     H256217   7.837   9.551   0.744
18659WAT      O56218   5.789   9.769   8.377
18659WAT     H156219   5.778   9.706   8.454
18659WAT     H256220   5.788   9.863   8.411
18660WAT      O56221   4.009   2.615   1.271
18660WAT     H156222   3.968   2.706   1.267
18660WAT     H256223   4.103   2.621   1.304
18661WAT      O56224   2.417   1.383   6.800
18661WAT     H156225   2.515   1.399   6.814
18661WAT     H256226   2.368   1.469   6.814
18662WAT      O56227   2.076   6.609   6.381
18662WAT     H156228   2.034   6.620   6.290
18662WAT     H256229   2.038   6.529   6.426
18663WAT      O56230   3.012   4.137   9.540
18663WAT     H156231   3.000   4.235   9.554
18663WAT     H256232   3.102   4.109   9.572
18664WAT      O56233   4.706   6.674   8.258
18664WAT     H156234   4.665   6.702   8.345
18664WAT     H256235   4.774   6.603   8.274
18665WAT      O56236   9.327   8.952   8.491
18665WAT     H156237   9.344   8.857   8.517
18665WAT     H256238   9.403   9.009   8.524
18666WAT      O56239   1.698   3.155   4.851
18666WAT     H156240   1.784   3.112   4.824
18666WAT     H256241   1.622   3.104   4.810
18667WAT      O56242   1.847   8.318   8.453
18667WAT     H156243   1.861   8.287   8.547
18667WAT     H256244   1.854   8.240   8.391
18668WAT      O56245   5.470   4.869   9.464
18668WAT     H156246   5.385   4.831   9.501
18668WAT     H256247   5.522   4.795   9.421
18669WAT      O56248   7.691   5.228   6.824
18669WAT     H156249   7.783   5.189   6.829
18669WAT     H256250   7.697   5.327   6.810
18670WAT      O56251   6.011   9.189   1.560
18670WAT     H156252   5.939   9.227   1.502
18670WAT     H256253   5.978   9.184   1.654
18671WAT      O56254   6.454   3.635   0.749
18671WAT     H156255   6.409   3.594   0.828
18671WAT     H256256   6.491   3.563   0.690
18672WAT      O56257   0.963   1.960   2.643
18672WAT     H156258   0.951   1.906   2.560
18672WAT     H256259   0.879   1.956   2.697
18673WAT      O56260   6.910   9.320   3.904
18673WAT     H156261   6.989   9.354   3.853
18673WAT     H256262   6.914   9.220   3.910
18674WAT      O56263   3.796   6.158   4.570
18674WAT     H156264   3.879   6.116   4.532
18674WAT     H256265   3.716   6.128   4.517
18675WAT      O56266   8.260   3.487   9.444
18675WAT     H156267   8.281   3.545   9.365
18675WAT     H256268   8.342   3.474   9.499
18676WAT      O56269   9.121   2.425   0.929
18676WAT     H156270   9.089   2.330   0.931
18676WAT     H256271   9.063   2.478   0.867
18677WAT      O56272   0.392   3.348   3.818
18677WAT     H156273   0.413   3.411   3.892
18677WAT     H256274   0.293   3.341   3.807
18678WAT      O56275   5.991   0.485   6.298
18678WAT     H156276   6.041   0.398   6.292
18678WAT     H256277   6.056   0.561   6.292
18679WAT      O56278   1.296   7.855   1.934
18679WAT     H156279   1.374   7.836   1.875
18679WAT     H256280   1.309   7.944   1.978
18680WAT      O56281   6.106   0.298   4.199
18680WAT     H156282   6.086   0.235   4.124
18680WAT     H256283   6.147   0.382   4.162
18681WAT      O56284   6.635   4.512   8.802
18681WAT     H156285   6.709   4.579   8.797
18681WAT     H256286   6.654   4.436   8.740
18682WAT      O56287   8.185   5.615   7.219
18682WAT     H156288   8.274   5.631   7.261
18682WAT     H256289   8.156   5.698   7.171
18683WAT      O56290   1.713   1.853   0.448
18683WAT     H156291   1.807   1.835   0.417
18683WAT     H256292   1.699   1.812   0.537
18684WAT      O56293   3.852   2.916   7.448
18684WAT     H156294   3.832   2.964   7.363
18684WAT     H256295   3.931   2.959   7.492
18685WAT      O56296   5.982   2.771   8.863
18685WAT     H156297   5.929   2.764   8.778
18685WAT     H256298   6.060   2.832   8.849
18686WAT      O56299   2.254   6.341   4.941
18686WAT     H156300   2.308   6.404   4.885
18686WAT     H256301   2.171   6.387   4.972
18687WAT      O56302   7.826   9.137   4.014
18687WAT     H156303   7.862   9.163   3.925
18687WAT     H256304   7.778   9.050   4.006
18688WAT      O56305   6.146   8.918   4.283
18688WAT     H156306   6.142   8.819   4.292
18688WAT     H256307   6.057   8.957   4.306
18689WAT      O56308   4.238   9.196   3.352
18689WAT     H156309   4.217   9.264   3.282
18689WAT     H256310   4.283   9.242   3.429
18690WAT      O56311   4.847   1.038   8.535
18690WAT     H156312   4.939   1.025   8.496
18690WAT     H256313   4.779   0.998   8.473
18691WAT      O56314   1.362   5.421   1.541
18691WAT     H156315   1.270   5.444   1.573
18691WAT     H256316   1.363   5.425   1.441
18692WAT      O56317   1.499   2.283   2.251
18692WAT     H156318   1.399   2.276   2.259
18692WAT     H256319   1.528   2.374   2.280
18693WAT      O56320   5.318   6.648   0.796
18693WAT     H156321   5.378   6.674   0.721
18693WAT     H256322   5.337   6.706   0.875
18694WAT      O56323   4.700   4.703   4.508
18694WAT     H156324   4.777   4.664   4.457
18694WAT     H256325   4.622   4.713   4.447
18695WAT      O56326   2.029   6.847   3.946
18695WAT     H156327   2.048   6.937   3.907
18695WAT     H256328   2.009   6.783   3.872
18696WAT      O56329   3.848   7.652   7.639
18696WAT     H156330   3.827   7.672   7.734
18696WAT     H256331   3.864   7.738   7.590
18697WAT      O56332   7.092   2.072   8.508
18697WAT     H156333   7.147   2.145   8.548
18697WAT     H256334   7.004   2.108   8.479
18698WAT      O56335   7.082   2.979   6.525
18698WAT     H156336   7.058   3.052   6.462
18698WAT     H256337   7.138   2.911   6.478
18699WAT      O56338   7.632   7.018   7.263
18699WAT     H156339   7.615   6.950   7.334
18699WAT     H256340   7.728   7.013   7.235
18700WAT      O56341   8.760   6.334   1.587
18700WAT     H156342   8.851   6.329   1.629
18700WAT     H256343   8.701   6.392   1.643
18701WAT      O56344   9.443   9.749   5.429
18701WAT     H156345   9.505   9.698   5.489
18701WAT     H256346   9.377   9.799   5.485
18702WAT      O56347   5.722   2.886   3.367
18702WAT     H156348   5.757   2.907   3.276
18702WAT     H256349   5.744   2.961   3.430
18703WAT      O56350   4.229   3.397   6.672
18703WAT     H156351   4.151   3.446   6.711
18703WAT     H256352   4.223   3.401   6.572
18704WAT      O56353   5.013   2.148   6.421
18704WAT     H156354   4.955   2.224   6.448
18704WAT     H256355   4.958   2.064   6.416
18705WAT      O56356   2.082   3.888   6.520
18705WAT     H156357   1.984   3.882   6.502
18705WAT     H256358   2.131   3.898   6.433
18706WAT      O56359   4.987   7.314   8.997
18706WAT     H156360   5.014   7.390   8.938
18706WAT     H256361   4.923   7.255   8.948
18707WAT      O56362   6.400   8.656   4.248
18707WAT     H156363   6.426   8.751   4.268
18707WAT     H256364   6.479   8.608   4.209
18708WAT      O56365   5.354   8.416   9.403
18708WAT     H156366   5.426   8.351   9.429
18708WAT     H256367   5.337   8.407   9.305
18709WAT      O56368   3.562   3.654   4.755
18709WAT     H156369   3.602   3.680   4.667
18709WAT     H256370   3.599   3.565   4.783
18710WAT      O56371   0.976   7.825   8.109
18710WAT     H156372   0.879   7.833   8.087
18710WAT     H256373   1.027   7.801   8.026
18711WAT      O56374   1.380   7.566   3.055
18711WAT     H156375   1.470   7.540   3.021
18711WAT     H256376   1.382   7.575   3.154
18712WAT      O56377   2.655   6.938   2.798
18712WAT     H156378   2.676   7.035   2.789
18712WAT     H256379   2.739   6.885   2.794
18713WAT      O56380   4.377   5.631   5.647
18713WAT     H156381   4.300   5.624   5.584
18713WAT     H256382   4.448   5.688   5.606
18714WAT      O56383   7.473   4.541   1.439
18714WAT     H156384   7.468   4.626   1.493
18714WAT     H256385   7.380   4.508   1.421
18715WAT      O56386   1.085   3.045   1.753
18715WAT     H156387   1.001   2.997   1.727
18715WAT     H256388   1.129   2.996   1.828
18716WAT      O56389   6.731   1.413   1.967
18716WAT     H156390   6.631   1.415   1.965
18716WAT     H256391   6.764   1.339   1.908
18717WAT      O56392   5.889   9.475   7.958
18717WAT     H156393   5.912   9.498   8.053
18717WAT     H256394   5.913   9.551   7.898
18718WAT      O56395   9.369   8.359   2.364
18718WAT     H156396   9.417   8.291   2.308
18718WAT     H256397   9.372   8.448   2.318
18719WAT      O56398   6.534   1.508   2.574
18719WAT     H156399   6.515   1.578   2.506
18719WAT     H256400   6.509   1.418   2.538
18720WAT      O56401   1.585   5.565   4.404
18720WAT     H156402   1.554   5.573   4.309
18720WAT     H256403   1.588   5.469   4.430
18721WAT      O56404   9.295   7.480   1.910
18721WAT     H156405   9.237   7.436   1.841
18721WAT     H256406   9.298   7.422   1.992
18722WAT      O56407   2.223   3.441   8.098
18722WAT     H156408   2.172   3.502   8.037
18722WAT     H256409   2.172   3.427   8.182
18723WAT      O56410   8.699   0.212   3.099
18723WAT     H156411   8.620   0.272   3.086
18723WAT     H256412   8.727   0.215   3.195
18724WAT      O56413   0.030   9.618   1.142
18724WAT     H156414   0.095   9.597   1.216
18724WAT     H256415  -0.002   9.712   1.153
18725WAT      O56416   6.741   3.512   5.003
18725WAT     H156417   6.778   3.443   4.941
18725WAT     H256418   6.814   3.574   5.033
18726WAT      O56419   3.639   4.725   3.184
18726WAT     H156420   3.633   4.825   3.182
18726WAT     H256421   3.547   4.686   3.185
18727WAT      O56422   3.650   9.436   5.237
18727WAT     H156423   3.593   9.508   5.197
18727WAT     H256424   3.626   9.348   5.194
18728WAT      O56425   2.974   8.586   9.847
18728WAT     H156426   2.924   8.612   9.930
18728WAT     H256427   2.939   8.499   9.813
18729WAT      O56428   6.982   7.322   9.019
18729WAT     H156429   6.974   7.337   8.920
18729WAT     H256430   6.995   7.410   9.065
18730WAT      O56431   7.269   1.131   0.716
18730WAT     H156432   7.323   1.215   0.724
18730WAT     H256433   7.174   1.150   0.740
18731WAT      O56434   0.844   0.388   7.714
18731WAT     H156435   0.920   0.451   7.703
18731WAT     H256436   0.837   0.359   7.809
18732WAT      O56437   9.818   6.965   2.492
18732WAT     H156438   9.855   7.050   2.452
18732WAT     H256439   9.831   6.890   2.427
18733WAT      O56440   0.763   1.767   5.889
18733WAT     H156441   0.827   1.704   5.934
18733WAT     H256442   0.688   1.715   5.848
18734WAT      O56443   8.016   8.747   4.405
18734WAT     H156444   8.053   8.809   4.474
18734WAT     H256445   8.083   8.676   4.385
18735WAT      O56446   6.895   9.403   4.795
18735WAT     H156447   6.848   9.482   4.756
18735WAT     H256448   6.880   9.401   4.894
18736WAT      O56449   7.465   6.167   6.574
18736WAT     H156450   7.498   6.081   6.536
18736WAT     H256451   7.369   6.179   6.551
18737WAT      O56452   2.316   7.595   7.303
18737WAT     H156453   2.269   7.547   7.229
18737WAT     H256454   2.392   7.648   7.265
18738WAT      O56455   8.268   2.139   3.237
18738WAT     H156456   8.179   2.098   3.255
18738WAT     H256457   8.255   2.226   3.190
18739WAT      O56458   7.131   5.374   5.722
18739WAT     H156459   7.045   5.407   5.762
18739WAT     H256460   7.111   5.301   5.657
18740WAT      O56461   6.744   1.834   4.959
18740WAT     H156462   6.807   1.767   4.999
18740WAT     H256463   6.793   1.889   4.891
18741WAT      O56464   1.277   4.197   9.813
18741WAT     H156465   1.320   4.114   9.776
18741WAT     H256466   1.201   4.224   9.754
18742WAT      O56467   1.474   4.855   2.608
18742WAT     H156468   1.501   4.811   2.694
18742WAT     H256469   1.377   4.837   2.591
18743WAT      O56470   7.455   9.649   8.376
18743WAT     H156471   7.432   9.611   8.466
18743WAT     H256472   7.410   9.596   8.305
18744WAT      O56473   1.563   6.238   3.202
18744WAT     H156474   1.514   6.245   3.289
18744WAT     H256475   1.646   6.185   3.214
18745WAT      O56476   4.199   0.086   4.789
18745WAT     H156477   4.168   0.003   4.836
18745WAT     H256478   4.191   0.074   4.691
18746WAT      O56479   2.662   8.631   5.275
18746WAT     H156480   2.675   8.630   5.175
18746WAT     H256481   2.641   8.724   5.305
18747WAT      O56482   9.527   5.823   6.052
18747WAT     H156483   9.585   5.822   6.133
18747WAT     H256484   9.511   5.728   6.022
18748WAT      O56485   2.041   0.396   6.941
18748WAT     H156486   1.997   0.448   6.867
18748WAT     H256487   1.988   0.406   7.025
18749WAT      O56488   6.017   1.126   4.871
18749WAT     H156489   6.038   1.197   4.938
18749WAT     H256490   6.014   1.166   4.779
18750WAT      O56491   8.587   1.660   4.273
18750WAT     H156492   8.535   1.575   4.266
18750WAT     H256493   8.542   1.731   4.220
18751WAT      O56494   0.874   1.985   2.119
18751WAT     H156495   0.820   2.067   2.100
18751WAT     H256496   0.860   1.956   2.213
18752WAT      O56497   7.084   0.450   6.386
18752WAT     H156498   7.155   0.463   6.456
18752WAT     H256499   7.126   0.452   6.295
18753WAT      O56500   6.296   7.858   6.563
18753WAT     H156501   6.309   7.957   6.576
18753WAT     H256502   6.311   7.835   6.467
18754WAT      O56503   2.407   7.647   2.731
18754WAT     H156504   2.486   7.590   2.707
18754WAT     H256505   2.367   7.684   2.647
18755WAT      O56506   0.436   8.391   3.132
18755WAT     H156507   0.341   8.423   3.138
18755WAT     H256508   0.489   8.454   3.075
18756WAT      O56509   8.494   3.146   9.401
18756WAT     H156510   8.400   3.179   9.392
18756WAT     H256511   8.499   3.079   9.474
18757WAT      O56512   2.329   7.907   1.067
18757WAT     H156513   2.398   7.948   1.008
18757WAT     H256514   2.293   7.824   1.025
18758WAT      O56515   1.883   6.211   8.790
18758WAT     H156516   1.980   6.227   8.771
18758WAT     H256517   1.833   6.202   8.704
18759WAT      O56518   3.388   4.870   8.852
18759WAT     H156519   3.290   4.874   8.872
18759WAT     H256520   3.402   4.814   8.770
18760WAT      O56521   1.595   1.514   9.422
18760WAT     H156522   1.600   1.491   9.519
18760WAT     H256523   1.670   1.576   9.398
18761WAT      O56524   1.647   0.571   7.763
18761WAT     H156525   1.671   0.493   7.705
18761WAT     H256526   1.554   0.600   7.743
18762WAT      O56527   8.098   1.136   3.676
18762WAT     H156528   8.144   1.123   3.764
18762WAT     H256529   8.093   1.048   3.629
18763WAT      O56530   4.126   8.636   5.106
18763WAT     H156531   4.059   8.696   5.062
18763WAT     H256532   4.084   8.549   5.129
18764WAT      O56533   4.979   9.313   1.007
18764WAT     H156534   4.999   9.362   0.922
18764WAT     H256535   5.063   9.270   1.041
18765WAT      O56536   6.068   6.880   4.307
18765WAT     H156537   6.028   6.794   4.339
18765WAT     H256538   6.062   6.948   4.380
18766WAT      O56539   3.706   6.431   7.602
18766WAT     H156540   3.659   6.398   7.520
18766WAT     H256541   3.723   6.355   7.664
18767WAT      O56542   7.575   0.948   1.778
18767WAT     H156543   7.585   0.929   1.876
18767WAT     H256544   7.536   0.868   1.732
18768WAT      O56545   4.290   1.371   1.145
18768WAT     H156546   4.285   1.368   1.046
18768WAT     H256547   4.300   1.278   1.181
18769WAT      O56548   3.266   4.486   8.070
18769WAT     H156549   3.285   4.465   8.166
18769WAT     H256550   3.241   4.402   8.022
18770WAT      O56551   5.300   3.552   1.114
18770WAT     H156552   5.244   3.610   1.054
18770WAT     H256553   5.311   3.598   1.202
18771WAT      O56554   3.063   2.960   6.712
18771WAT     H156555   2.970   2.986   6.740
18771WAT     H256556   3.116   2.935   6.793
18772WAT      O56557   6.842   9.603   2.831
18772WAT     H156558   6.913   9.541   2.865
18772WAT     H256559   6.884   9.676   2.778
18773WAT      O56560   7.128   5.091   6.785
18773WAT     H156561   7.067   5.165   6.812
18773WAT     H256562   7.137   5.026   6.860
18774WAT      O56563   2.712   6.113   7.613
18774WAT     H156564   2.700   6.083   7.708
18774WAT     H256565   2.635   6.171   7.587
18775WAT      O56566   8.634   9.751   8.594
18775WAT     H156567   8.668   9.702   8.674
18775WAT     H256568   8.566   9.818   8.622
18776WAT      O56569   6.331   9.777   7.966
18776WAT     H156570   6.320   9.690   7.917
18776WAT     H256571   6.418   9.777   8.015
18777WAT      O56572   7.338   3.785   9.063
18777WAT     H156573   7.371   3.865   9.012
18777WAT     H256574   7.263   3.742   9.013
18778WAT      O56575   8.180   6.344   8.531
18778WAT     H156576   8.158   6.355   8.434
18778WAT     H256577   8.245   6.415   8.558
18779WAT      O56578   5.567   8.120   4.152
18779WAT     H156579   5.497   8.049   4.148
18779WAT     H256580   5.658   8.077   4.152
18780WAT      O56581   1.599   1.342   9.184
18780WAT     H156582   1.571   1.438   9.189
18780WAT     H256583   1.518   1.284   9.170
18781WAT      O56584   6.888   3.152   9.049
18781WAT     H156585   6.803   3.141   8.997
18781WAT     H256586   6.951   3.210   8.998
18782WAT      O56587   1.136   9.579   5.153
18782WAT     H156588   1.155   9.674   5.176
18782WAT     H256589   1.100   9.533   5.234
18783WAT      O56590   7.930   9.569   6.404
18783WAT     H156591   7.965   9.658   6.375
18783WAT     H256592   7.841   9.581   6.448
18784WAT      O56593   8.033   6.473   0.470
18784WAT     H156594   8.129   6.447   0.476
18784WAT     H256595   7.980   6.420   0.536
18785WAT      O56596   5.890   5.653   9.531
18785WAT     H156597   5.890   5.753   9.530
18785WAT     H256598   5.960   5.620   9.594
18786WAT      O56599   2.221   0.752   2.372
18786WAT     H156600   2.263   0.809   2.441
18786WAT     H256601   2.121   0.763   2.376
18787WAT      O56602   6.711   3.009   4.207
18787WAT     H156603   6.757   2.999   4.296
18787WAT     H256604   6.762   3.074   4.151
18788WAT      O56605   4.937   6.190   5.894
18788WAT     H156606   5.032   6.192   5.863
18788WAT     H256607   4.888   6.118   5.845
18789WAT      O56608   9.344   2.643   8.278
18789WAT     H156609   9.421   2.648   8.340
18789WAT     H256610   9.270   2.702   8.311
18790WAT      O56611   8.141   9.720   9.811
18790WAT     H156612   8.109   9.758   9.897
18790WAT     H256613   8.099   9.769   9.735
18791WAT      O56614   8.086   3.478   2.134
18791WAT     H156615   8.050   3.544   2.200
18791WAT     H256616   8.123   3.399   2.183
18792WAT      O56617   1.435   2.719   4.810
18792WAT     H156618   1.503   2.657   4.771
18792WAT     H256619   1.344   2.679   4.799
18793WAT      O56620   1.764   4.434   0.494
18793WAT     H156621   1.666   4.431   0.473
18793WAT     H256622   1.808   4.353   0.456
18794WAT      O56623   8.163   1.142   1.159
18794WAT     H156624   8.226   1.121   1.084
18794WAT     H256625   8.214   1.178   1.236
18795WAT      O56626   3.655   3.709   7.475
18795WAT     H156627   3.722   3.727   7.548
18795WAT     H256628   3.573   3.764   7.491
18796WAT      O56629   5.145   7.423   1.946
18796WAT     H156630   5.048   7.420   1.924
18796WAT     H256631   5.184   7.331   1.938
18797WAT      O56632   5.129   7.468   7.510
18797WAT     H156633   5.180   7.425   7.435
18797WAT     H256634   5.037   7.431   7.512
18798WAT      O56635   5.951   1.459   9.570
18798WAT     H156636   5.868   1.493   9.614
18798WAT     H256637   5.927   1.390   9.502
18799WAT      O56638   0.364   7.192   8.151
18799WAT     H156639   0.368   7.093   8.159
18799WAT     H256640   0.287   7.227   8.205
18800WAT      O56641   4.380   0.207   1.476
18800WAT     H156642   4.441   0.141   1.520
18800WAT     H256643   4.432   0.265   1.413
18801WAT      O56644   5.849   0.046   6.228
18801WAT     H156645   5.880   0.097   6.307
18801WAT     H256646   5.927  -0.001   6.186
18802WAT      O56647   4.828   8.509   5.223
18802WAT     H156648   4.800   8.604   5.213
18802WAT     H256649   4.831   8.485   5.320
18803WAT      O56650   8.148   5.299   1.925
18803WAT     H156651   8.149   5.399   1.934
18803WAT     H256652   8.054   5.266   1.923
18804WAT      O56653   0.136   5.271   1.622
18804WAT     H156654   0.048   5.260   1.668
18804WAT     H256655   0.201   5.317   1.684
18805WAT      O56656   0.685   4.954   8.867
18805WAT     H156657   0.723   5.008   8.942
18805WAT     H256658   0.589   4.978   8.852
18806WAT      O56659   2.983   2.323   7.669
18806WAT     H156660   3.073   2.332   7.712
18806WAT     H256661   2.936   2.243   7.708
18807WAT      O56662   0.861   3.825   2.767
18807WAT     H156663   0.864   3.788   2.860
18807WAT     H256664   0.782   3.788   2.719
18808WAT      O56665   0.128   3.521   0.784
18808WAT     H156666   0.036   3.539   0.751
18808WAT     H256667   0.152   3.425   0.766
18809WAT      O56668   6.008   4.155   0.358
18809WAT     H156669   6.063   4.199   0.287
18809WAT     H256670   6.068   4.124   0.432
18810WAT      O56671   2.670   9.796   5.480
18810WAT     H156672   2.612   9.737   5.536
18810WAT     H256673   2.645   9.891   5.495
18811WAT      O56674   9.840   9.294   5.157
18811WAT     H156675   9.772   9.240   5.207
18811WAT     H256676   9.795   9.368   5.107
18812WAT      O56677   1.439   7.190   5.843
18812WAT     H156678   1.516   7.250   5.864
18812WAT     H256679   1.467   7.095   5.858
18813WAT      O56680   1.837   0.219   6.514
18813WAT     H156681   1.755   0.264   6.479
18813WAT     H256682   1.823   0.196   6.611
18814WAT      O56683   1.537   2.510   2.709
18814WAT     H156684   1.512   2.419   2.676
18814WAT     H256685   1.555   2.507   2.807
18815WAT      O56686   2.102   4.208   6.873
18815WAT     H156687   2.044   4.176   6.798
18815WAT     H256688   2.076   4.302   6.897
18816WAT      O56689   1.377   6.906   8.914
18816WAT     H156690   1.346   6.933   9.005
18816WAT     H256691   1.477   6.902   8.912
18817WAT      O56692   6.673   0.493   7.656
18817WAT     H156693   6.687   0.588   7.686
18817WAT     H256694   6.711   0.431   7.724
18818WAT      O56695   2.363   7.441   1.721
18818WAT     H156696   2.286   7.428   1.658
18818WAT     H256697   2.396   7.352   1.752
18819WAT      O56698   0.672   7.904   9.208
18819WAT     H156699   0.658   7.996   9.246
18819WAT     H256700   0.701   7.842   9.281
18820WAT      O56701   8.956   7.244   0.228
18820WAT     H156702   8.921   7.335   0.250
18820WAT     H256703   8.902   7.204   0.155
18821WAT      O56704   1.225   7.569   5.431
18821WAT     H156705   1.300   7.502   5.424
18821WAT     H256706   1.161   7.539   5.501
18822WAT      O56707   7.966   2.942   6.747
18822WAT     H156708   8.046   2.924   6.805
18822WAT     H256709   7.948   2.862   6.690
18823WAT      O56710   4.743   0.116   7.256
18823WAT     H156711   4.754   0.032   7.203
18823WAT     H256712   4.825   0.133   7.310
18824WAT      O56713   3.698   0.321   4.719
18824WAT     H156714   3.617   0.314   4.662
18824WAT     H256715   3.759   0.244   4.700
18825WAT      O56716   7.843   4.311   6.403
18825WAT     H156717   7.780   4.286   6.330
18825WAT     H256718   7.915   4.242   6.410
18826WAT      O56719   1.840   8.060   4.766
18826WAT     H156720   1.940   8.059   4.775
18826WAT     H256721   1.813   8.135   4.705
18827WAT      O56722   4.597   6.638   4.035
18827WAT     H156723   4.527   6.675   4.096
18827WAT     H256724   4.555   6.613   3.947
18828WAT      O56725   9.869   7.823   6.472
18828WAT     H156726   9.789   7.842   6.416
18828WAT     H256727   9.841   7.803   6.566
18829WAT      O56728   6.606   6.577   1.288
18829WAT     H156729   6.686   6.638   1.291
18829WAT     H256730   6.604   6.521   1.371
18830WAT      O56731   8.135   7.499   5.647
18830WAT     H156732   8.068   7.511   5.721
18830WAT     H256733   8.180   7.411   5.658
18831WAT      O56734   5.113   4.907   0.357
18831WAT     H156735   5.149   4.974   0.422
18831WAT     H256736   5.188   4.866   0.305
18832WAT      O56737   0.294   6.058   5.842
18832WAT     H156738   0.390   6.073   5.818
18832WAT     H256739   0.235   6.102   5.774
18833WAT      O56740   7.114   2.536   2.729
18833WAT     H156741   7.150   2.565   2.641
18833WAT     H256742   7.113   2.436   2.734
18834WAT      O56743   7.577   6.600   2.467
18834WAT     H156744   7.598   6.539   2.543
18834WAT     H256745   7.522   6.551   2.399
18835WAT      O56746   8.721   0.492   5.817
18835WAT     H156747   8.786   0.443   5.758
18835WAT     H256748   8.641   0.518   5.763
18836WAT      O56749   5.198   3.650   7.974
18836WAT     H156750   5.242   3.622   7.888
18836WAT     H256751   5.103   3.677   7.955
18837WAT      O56752   2.545   7.097   8.027
18837WAT     H156753   2.590   7.045   8.100
18837WAT     H256754   2.582   7.067   7.938
18838WAT      O56755   0.931   5.201   2.826
18838WAT     H156756   0.994   5.129   2.852
18838WAT     H256757   0.847   5.161   2.788
18839WAT      O56758   8.339   5.807   6.602
18839WAT     H156759   8.280   5.887   6.614
18839WAT     H256760   8.380   5.810   6.511
18840WAT      O56761   3.405   8.116   3.353
18840WAT     H156762   3.447   8.051   3.417
18840WAT     H256763   3.364   8.065   3.277
18841WAT      O56764   9.076   2.593   2.570
18841WAT     H156765   9.112   2.568   2.660
18841WAT     H256766   8.979   2.616   2.577
18842WAT      O56767   0.216   5.379   7.626
18842WAT     H156768   0.282   5.421   7.564
18842WAT     H256769   0.260   5.360   7.714
18843WAT      O56770   9.853   5.099   8.580
18843WAT     H156771   9.849   5.034   8.503
18843WAT     H256772   9.842   5.049   8.666
18844WAT      O56773   2.759   9.678   7.360
18844WAT     H156774   2.716   9.626   7.435
18844WAT     H256775   2.747   9.776   7.376
18845WAT      O56776   4.899   7.233   3.007
18845WAT     H156777   4.820   7.175   3.022
18845WAT     H256778   4.895   7.312   3.068
18846WAT      O56779   3.165   7.599   8.880
18846WAT     H156780   3.160   7.625   8.976
18846WAT     H256781   3.132   7.505   8.869
18847WAT      O56782   9.192   4.312   3.572
18847WAT     H156783   9.164   4.258   3.651
18847WAT     H256784   9.111   4.345   3.524
18848WAT      O56785   6.632   9.133   9.018
18848WAT     H156786   6.614   9.224   9.055
18848WAT     H256787   6.713   9.137   8.959
18849WAT      O56788   9.820   7.919   7.058
18849WAT     H156789   9.912   7.912   7.020
18849WAT     H256790   9.812   8.005   7.109
18850WAT      O56791   9.535   7.676   3.576
18850WAT     H156792   9.534   7.739   3.653
18850WAT     H256793   9.615   7.693   3.519
18851WAT      O56794   8.925   8.699   3.936
18851WAT     H156795   8.953   8.625   3.998
18851WAT     H256796   8.883   8.773   3.988
18852WAT      O56797   7.020   9.466   7.851
18852WAT     H156798   7.026   9.404   7.773
18852WAT     H256799   6.981   9.418   7.929
18853WAT      O56800   1.987   4.565   1.059
18853WAT     H156801   1.960   4.548   0.964
18853WAT     H256802   1.977   4.481   1.112
18854WAT      O56803   4.141   8.358   5.972
18854WAT     H156804   4.174   8.452   5.967
18854WAT     H256805   4.105   8.331   5.883
18855WAT      O56806   1.449   3.848   2.975
18855WAT     H156807   1.517   3.788   3.019
18855WAT     H256808   1.473   3.944   2.992
18856WAT      O56809   3.430   6.975   5.600
18856WAT     H156810   3.506   7.036   5.579
18856WAT     H256811   3.442   6.936   5.691
18857WAT      O56812   1.645   8.116   5.955
18857WAT     H156813   1.686   8.044   5.900
18857WAT     H256814   1.716   8.179   5.987
18858WAT      O56815   3.440   0.507   4.776
18858WAT     H156816   3.404   0.415   4.761
18858WAT     H256817   3.522   0.502   4.833
18859WAT      O56818   4.402   4.799   5.548
18859WAT     H156819   4.390   4.759   5.457
18859WAT     H256820   4.313   4.814   5.590
18860WAT      O56821   3.069   8.969   0.020
18860WAT     H156822   3.058   8.923  -0.068
18860WAT     H256823   2.984   9.016   0.045
18861WAT      O56824   4.264   5.546   8.207
18861WAT     H156825   4.222   5.477   8.149
18861WAT     H256826   4.293   5.624   8.152
18862WAT      O56827   8.881   2.588   1.853
18862WAT     H156828   8.928   2.675   1.860
18862WAT     H256829   8.906   2.544   1.767
18863WAT      O56830   5.142   1.423   8.539
18863WAT     H156831   5.065   1.401   8.598
18863WAT     H256832   5.227   1.390   8.581
18864WAT      O56833   7.264   8.940   4.051
18864WAT     H156834   7.248   8.969   4.145
18864WAT     H256835   7.250   8.841   4.044
18865WAT      O56836   6.249   0.216   2.062
18865WAT     H156837   6.176   0.214   2.130
18865WAT     H256838   6.325   0.158   2.093
18866WAT      O56839   1.377   5.200   4.335
18866WAT     H156840   1.303   5.170   4.396
18866WAT     H256841   1.338   5.229   4.248
18867WAT      O56842   6.009   6.009   1.797
18867WAT     H156843   5.977   5.924   1.756
18867WAT     H256844   5.973   6.087   1.746
18868WAT      O56845   8.923   8.292   5.008
18868WAT     H156846   8.922   8.388   5.034
18868WAT     H256847   8.935   8.284   4.909
18869WAT      O56848   0.625   5.148   2.946
18869WAT     H156849   0.697   5.176   3.009
18869WAT     H256850   0.660   5.146   2.853
18870WAT      O56851   8.442   0.329   3.101
18870WAT     H156852   8.474   0.419   3.073
18870WAT     H256853   8.441   0.323   3.201
18871WAT      O56854   4.526   4.460   7.136
18871WAT     H156855   4.453   4.391   7.136
18871WAT     H256856   4.610   4.419   7.170
18872WAT      O56857   9.685   5.038   4.747
18872WAT     H156858   9.716   4.961   4.691
18872WAT     H256859   9.709   5.124   4.703
18873WAT      O56860   9.098   7.701   5.544
18873WAT     H156861   9.117   7.603   5.534
18873WAT     H256862   9.171   7.744   5.597
18874WAT      O56863   4.362   8.147   1.891
18874WAT     H156864   4.397   8.230   1.847
18874WAT     H256865   4.412   8.068   1.856
18875WAT      O56866   0.058   5.276   4.780
18875WAT     H156867   0.081   5.215   4.704
18875WAT     H256868   0.001   5.227   4.846
18876WAT      O56869   8.667   8.564   7.910
18876WAT     H156870   8.605   8.492   7.940
18876WAT     H256871   8.677   8.631   7.984
18877WAT      O56872   3.700   7.557   0.002
18877WAT     H156873   3.614   7.531   0.046
18877WAT     H256874   3.758   7.606   0.068
18878WAT      O56875   1.397   0.226   2.022
18878WAT     H156876   1.331   0.240   2.096
18878WAT     H256877   1.349   0.226   1.935
18879WAT      O56878   2.083   8.368   7.541
18879WAT     H156879   2.027   8.422   7.604
18879WAT     H256880   2.180   8.384   7.561
18880WAT      O56881   3.416   3.152   5.491
18880WAT     H156882   3.409   3.127   5.588
18880WAT     H256883   3.334   3.120   5.443
18881WAT      O56884   4.112   4.884   6.927
18881WAT     H156885   4.210   4.869   6.915
18881WAT     H256886   4.097   4.972   6.973
18882WAT      O56887   7.713   0.354   7.325
18882WAT     H156888   7.740   0.338   7.230
18882WAT     H256889   7.619   0.386   7.328
18883WAT      O56890   1.278   3.649   2.428
18883WAT     H156891   1.321   3.640   2.338
18883WAT     H256892   1.339   3.610   2.497
18884WAT      O56893   2.735   8.201   3.229
18884WAT     H156894   2.643   8.166   3.209
18884WAT     H256895   2.731   8.263   3.307
18885WAT      O56896   3.977   8.834   3.633
18885WAT     H156897   4.066   8.790   3.632
18885WAT     H256898   3.910   8.773   3.676
18886WAT      O56899   3.089   4.238   3.932
18886WAT     H156900   3.139   4.165   3.884
18886WAT     H256901   3.114   4.326   3.892
18887WAT      O56902   2.855   9.186   4.485
18887WAT     H156903   2.822   9.224   4.398
18887WAT     H256904   2.944   9.226   4.507
18888WAT      O56905   3.269   8.968   5.860
18888WAT     H156906   3.359   8.926   5.872
18888WAT     H256907   3.266   9.055   5.908
18889WAT      O56908   6.813   9.822   2.079
18889WAT     H156909   6.791   9.756   2.151
18889WAT     H256910   6.741   9.820   2.010
18890WAT      O56911   9.229   3.417   0.478
18890WAT     H156912   9.168   3.374   0.412
18890WAT     H256913   9.304   3.354   0.499
18891WAT      O56914   0.526   8.990   0.704
18891WAT     H156915   0.520   8.893   0.726
18891WAT     H256916   0.587   9.004   0.626
18892WAT      O56917   0.858   8.777   6.219
18892WAT     H156918   0.813   8.802   6.133
18892WAT     H256919   0.821   8.690   6.252
18893WAT      O56920   2.176   7.849   8.986
18893WAT     H156921   2.241   7.806   9.049
18893WAT     H256922   2.156   7.786   8.911
18894WAT      O56923   7.199   5.168   0.223
18894WAT     H156924   7.248   5.222   0.154
18894WAT     H256925   7.263   5.144   0.297
18895WAT      O56926   2.998   4.265   5.698
18895WAT     H156927   2.914   4.230   5.656
18895WAT     H256928   2.975   4.308   5.785
18896WAT      O56929   1.142   1.335   8.421
18896WAT     H156930   1.117   1.261   8.482
18896WAT     H256931   1.231   1.372   8.448
18897WAT      O56932   7.882   6.309   3.064
18897WAT     H156933   7.794   6.356   3.056
18897WAT     H256934   7.945   6.343   2.993
18898WAT      O56935   9.550   4.668   5.924
18898WAT     H156936   9.568   4.765   5.937
18898WAT     H256937   9.627   4.614   5.959
18899WAT      O56938   1.953   6.275   4.332
18899WAT     H156939   1.946   6.176   4.320
18899WAT     H256940   1.890   6.305   4.404
18900WAT      O56941   9.286   0.502   7.405
18900WAT     H156942   9.324   0.412   7.384
18900WAT     H256943   9.273   0.554   7.321
18901WAT      O56944   9.856   1.268   1.660
18901WAT     H156945   9.904   1.182   1.676
18901WAT     H256946   9.806   1.294   1.743
18902WAT      O56947   8.488   2.621   7.583
18902WAT     H156948   8.464   2.608   7.680
18902WAT     H256949   8.587   2.630   7.574
18903WAT      O56950   1.551   7.349   9.692
18903WAT     H156951   1.588   7.402   9.616
18903WAT     H256952   1.526   7.258   9.659
18904WAT      O56953   2.998   8.577   3.038
18904WAT     H156954   2.923   8.570   2.972
18904WAT     H256955   2.961   8.570   3.131
18905WAT      O56956   8.918   0.847   7.435
18905WAT     H156957   8.871   0.916   7.490
18905WAT     H256958   8.943   0.887   7.347
18906WAT      O56959   6.828   6.656   7.270
18906WAT     H156960   6.773   6.574   7.255
18906WAT     H256961   6.873   6.682   7.185
18907WAT      O56962   0.376   0.496   8.533
18907WAT     H156963   0.344   0.528   8.444
18907WAT     H256964   0.449   0.429   8.520
18908WAT      O56965   1.919   2.863   8.597
18908WAT     H156966   1.846   2.795   8.597
18908WAT     H256967   1.907   2.924   8.676
18909WAT      O56968   5.500   1.899   0.492
18909WAT     H156969   5.402   1.909   0.475
18909WAT     H256970   5.535   1.824   0.436
18910WAT      O56971   5.097   3.052   8.815
18910WAT     H156972   5.119   3.144   8.847
18910WAT     H256973   5.003   3.030   8.840
18911WAT      O56974   3.509   1.182   1.620
18911WAT     H156975   3.438   1.246   1.649
18911WAT     H256976   3.470   1.113   1.560
18912WAT      O56977   1.170   0.846   6.751
18912WAT     H156978   1.072   0.825   6.754
18912WAT     H256979   1.207   0.817   6.663
18913WAT      O56980   9.039   1.979   5.099
18913WAT     H156981   9.041   2.067   5.050
18913WAT     H256982   9.046   1.904   5.033
18914WAT      O56983   4.618   3.304   6.442
18914WAT     H156984   4.612   3.294   6.342
18914WAT     H256985   4.708   3.340   6.466
18915WAT      O56986   7.567   9.068   7.378
18915WAT     H156987   7.575   9.109   7.287
18915WAT     H256988   7.477   9.086   7.416
18916WAT      O56989   2.690   0.819   5.996
18916WAT     H156990   2.653   0.800   5.905
18916WAT     H256991   2.646   0.758   6.063
18917WAT      O56992   2.341   1.508   8.004
18917WAT     H156993   2.428   1.460   8.009
18917WAT     H256994   2.271   1.456   8.054
18918WAT      O56995   8.265   4.550   3.923
18918WAT     H156996   8.249   4.552   4.022
18918WAT     H256997   8.206   4.481   3.881
18919WAT      O56998   3.932   4.969   8.504
18919WAT     H156999   3.845   4.960   8.554
18919WAT     H257000   3.962   4.879   8.474
18920WAT      O57001   7.535   3.347   8.073
18920WAT     H157002   7.566   3.251   8.071
18920WAT     H257003   7.439   3.350   8.100
18921WAT      O57004   0.784   5.477   2.984
18921WAT     H157005   0.739   5.519   2.906
18921WAT     H257006   0.882   5.495   2.979
18922WAT      O57007   6.876   1.128   8.771
18922WAT     H157008   6.881   1.228   8.771
18922WAT     H257009   6.784   1.099   8.798
18923WAT      O57010   5.705   5.680   6.267
18923WAT     H157011   5.765   5.731   6.330
18923WAT     H257012   5.625   5.734   6.246
18924WAT      O57013   4.191   8.059   6.676
18924WAT     H157014   4.166   7.971   6.636
18924WAT     H257015   4.178   8.056   6.775
18925WAT      O57016   7.071   8.724   9.720
18925WAT     H157017   7.095   8.738   9.816
18925WAT     H257018   7.124   8.647   9.684
18926WAT      O57019   4.079   2.641   2.077
18926WAT     H157020   4.114   2.734   2.085
18926WAT     H257021   4.062   2.619   1.981
18927WAT      O57022   0.710   6.067   9.634
18927WAT     H157023   0.782   6.056   9.703
18927WAT     H257024   0.651   5.986   9.635
18928WAT      O57025   7.999   7.335   5.209
18928WAT     H157026   8.084   7.299   5.171
18928WAT     H257027   8.019   7.414   5.266
18929WAT      O57028   9.548   4.154   0.982
18929WAT     H157029   9.509   4.062   0.978
18929WAT     H257030   9.500   4.213   0.917
18930WAT      O57031   1.053   8.780   9.485
18930WAT     H157032   1.051   8.687   9.520
18930WAT     H257033   1.147   8.816   9.492
18931WAT      O57034   9.495   9.246   5.097
18931WAT     H157035   9.541   9.332   5.120
18931WAT     H257036   9.531   9.212   5.010
18932WAT      O57037   3.556   6.120   9.087
18932WAT     H157038   3.490   6.125   9.011
18932WAT     H257039   3.506   6.114   9.174
18933WAT      O57040   5.593   7.283   4.443
18933WAT     H157041   5.661   7.229   4.492
18933WAT     H257042   5.639   7.338   4.373
18934WAT      O57043   8.437   2.572   5.585
18934WAT     H157044   8.535   2.558   5.598
18934WAT     H257045   8.407   2.525   5.502
18935WAT      O57046   8.773   2.742   8.409
18935WAT     H157047   8.679   2.743   8.374
18935WAT     H257048   8.816   2.654   8.387
18936WAT      O57049   8.149   9.514   7.684
18936WAT     H157050   8.086   9.463   7.625
18936WAT     H257051   8.229   9.543   7.631
18937WAT      O57052   0.371   4.119   5.077
18937WAT     H157053   0.385   4.071   5.164
18937WAT     H257054   0.435   4.085   5.009
18938WAT      O57055   5.969   6.626   5.729
18938WAT     H157056   5.910   6.693   5.774
18938WAT     H257057   6.063   6.661   5.726
18939WAT      O57058   8.238   1.469   6.331
18939WAT     H157059   8.258   1.371   6.330
18939WAT     H257060   8.258   1.509   6.241
18940WAT      O57061   6.601   4.226   6.099
18940WAT     H157062   6.517   4.195   6.142
18940WAT     H257063   6.621   4.169   6.019
18941WAT      O57064   1.016   5.734   3.481
18941WAT     H157065   1.003   5.702   3.388
18941WAT     H257066   0.989   5.662   3.546
18942WAT      O57067   4.156   4.175   8.492
18942WAT     H157068   4.142   4.147   8.587
18942WAT     H257069   4.139   4.097   8.432
18943WAT      O57070   7.061   6.162   2.104
18943WAT     H157071   7.086   6.128   2.194
18943WAT     H257072   6.962   6.161   2.094
18944WAT      O57073   1.528   4.512   5.422
18944WAT     H157074   1.512   4.610   5.411
18944WAT     H257075   1.443   4.468   5.453
18945WAT      O57076   7.504   5.322   3.550
18945WAT     H157077   7.528   5.383   3.626
18945WAT     H257078   7.406   5.327   3.533
18946WAT      O57079   2.143   7.964   2.332
18946WAT     H157080   2.106   7.972   2.239
18946WAT     H257081   2.092   8.024   2.393
18947WAT      O57082   8.158   7.838   8.407
18947WAT     H157083   8.225   7.905   8.439
18947WAT     H257084   8.118   7.868   8.321
18948WAT      O57085   9.346   5.182   3.337
18948WAT     H157086   9.279   5.133   3.393
18948WAT     H257087   9.435   5.138   3.345
18949WAT      O57088   2.578   4.063   0.466
18949WAT     H157089   2.609   4.041   0.558
18949WAT     H257090   2.504   4.131   0.471
18950WAT      O57091   7.718   9.626   0.323
18950WAT     H157092   7.799   9.675   0.355
18950WAT     H257093   7.689   9.664   0.235
18951WAT      O57094   6.305   5.325   8.358
18951WAT     H157095   6.405   5.324   8.364
18951WAT     H257096   6.267   5.245   8.404
18952WAT      O57097   0.123   2.304   9.169
18952WAT     H157098   0.029   2.338   9.166
18952WAT     H257099   0.183   2.366   9.119
18953WAT      O57100   5.803   4.262   3.756
18953WAT     H157101   5.833   4.175   3.719
18953WAT     H257102   5.706   4.258   3.777
18954WAT      O57103   0.353   4.575   1.548
18954WAT     H157104   0.442   4.572   1.594
18954WAT     H257105   0.283   4.600   1.614
18955WAT      O57106   5.458   6.793   3.498
18955WAT     H157107   5.540   6.753   3.456
18955WAT     H257108   5.396   6.825   3.426
18956WAT      O57109   5.495   1.510   5.999
18956WAT     H157110   5.508   1.461   5.914
18956WAT     H257111   5.420   1.468   6.051
18957WAT      O57112   5.690   1.354   2.679
18957WAT     H157113   5.613   1.394   2.730
18957WAT     H257114   5.772   1.409   2.696
18958WAT      O57115   4.234   4.661   9.380
18958WAT     H157116   4.303   4.710   9.434
18958WAT     H257117   4.172   4.612   9.442
18959WAT      O57118   4.017   5.058   6.054
18959WAT     H157119   3.926   5.098   6.051
18959WAT     H257120   4.061   5.082   6.141
18960WAT      O57121   4.079   3.281   3.127
18960WAT     H157122   4.047   3.375   3.139
18960WAT     H257123   4.094   3.239   3.216
18961WAT      O57124   0.850   8.827   4.916
18961WAT     H157125   0.844   8.787   4.825
18961WAT     H257126   0.887   8.760   4.980
18962WAT      O57127   1.528   7.940   2.699
18962WAT     H157128   1.598   7.927   2.628
18962WAT     H257129   1.440   7.904   2.666
18963WAT      O57130   5.687   2.122   3.494
18963WAT     H157131   5.706   2.187   3.421
18963WAT     H257132   5.613   2.061   3.466
18964WAT      O57133   5.598   4.158   8.446
18964WAT     H157134   5.644   4.235   8.489
18964WAT     H257135   5.634   4.072   8.484
18965WAT      O57136   7.738   1.649   8.029
18965WAT     H157137   7.766   1.570   7.974
18965WAT     H257138   7.657   1.691   7.988
18966WAT      O57139   0.230   8.413   1.512
18966WAT     H157140   0.186   8.440   1.427
18966WAT     H257141   0.181   8.453   1.589
18967WAT      O57142   3.793   2.506   1.657
18967WAT     H157143   3.856   2.477   1.584
18967WAT     H257144   3.791   2.437   1.729
18968WAT      O57145   3.844   2.131   5.718
18968WAT     H157146   3.900   2.066   5.666
18968WAT     H257147   3.855   2.115   5.816
18969WAT      O57148   1.564   5.098   8.651
18969WAT     H157149   1.556   5.177   8.590
18969WAT     H257150   1.583   5.016   8.597
18970WAT      O57151   3.709   7.006   9.096
18970WAT     H157152   3.734   6.976   9.003
18970WAT     H257153   3.611   7.023   9.101
18971WAT      O57154   0.272   7.332   4.990
18971WAT     H157155   0.341   7.398   5.021
18971WAT     H257156   0.249   7.270   5.065
18972WAT      O57157   1.751   8.156   8.248
18972WAT     H157158   1.800   8.077   8.213
18972WAT     H257159   1.655   8.132   8.263
18973WAT      O57160   4.476   2.120   8.761
18973WAT     H157161   4.519   2.210   8.774
18973WAT     H257162   4.516   2.054   8.824
18974WAT      O57163   5.706   1.390   1.242
18974WAT     H157164   5.662   1.475   1.271
18974WAT     H257165   5.641   1.337   1.188
18975WAT      O57166   5.394   8.960   9.134
18975WAT     H157167   5.364   8.948   9.229
18975WAT     H257168   5.427   8.873   9.098
18976WAT      O57169   1.791   7.541   5.144
18976WAT     H157170   1.818   7.446   5.157
18976WAT     H257171   1.812   7.594   5.226
18977WAT      O57172   7.769   8.890   2.940
18977WAT     H157173   7.788   8.931   3.029
18977WAT     H257174   7.673   8.862   2.936
18978WAT      O57175   6.581   1.668   8.061
18978WAT     H157176   6.598   1.570   8.059
18978WAT     H257177   6.525   1.691   8.140
18979WAT      O57178   0.110   3.457   2.588
18979WAT     H157179   0.199   3.451   2.633
18979WAT     H257180   0.038   3.458   2.658
18980WAT      O57181   2.218   3.765   9.668
18980WAT     H157182   2.273   3.822   9.730
18980WAT     H257183   2.124   3.799   9.666
18981WAT      O57184   3.793   4.826   2.716
18981WAT     H157185   3.777   4.742   2.767
18981WAT     H257186   3.772   4.905   2.774
18982WAT      O57187   3.838   6.140   0.268
18982WAT     H157188   3.905   6.098   0.328
18982WAT     H257189   3.885   6.190   0.195
18983WAT      O57190   6.317   7.702   2.409
18983WAT     H157191   6.380   7.716   2.486
18983WAT     H257192   6.225   7.732   2.436
18984WAT      O57193   7.622   0.107   5.363
18984WAT     H157194   7.663   0.023   5.399
18984WAT     H257195   7.664   0.186   5.407
18985WAT      O57196   1.453   0.144   4.639
18985WAT     H157197   1.454   0.056   4.686
18985WAT     H257198   1.535   0.195   4.662
18986WAT      O57199   0.784   1.151   6.668
18986WAT     H157200   0.808   1.112   6.579
18986WAT     H257201   0.694   1.116   6.696
18987WAT      O57202   6.986   1.175   4.335
18987WAT     H157203   7.079   1.156   4.304
18987WAT     H257204   6.980   1.157   4.433
18988WAT      O57205   4.640   8.528   8.822
18988WAT     H157206   4.613   8.603   8.883
18988WAT     H257207   4.634   8.560   8.727
18989WAT      O57208   7.565   2.453   3.449
18989WAT     H157209   7.536   2.522   3.515
18989WAT     H257210   7.618   2.383   3.496
18990WAT      O57211   5.047   9.818   9.725
18990WAT     H157212   5.055   9.825   9.824
18990WAT     H257213   5.125   9.864   9.682
18991WAT      O57214   0.441   0.045   4.240
18991WAT     H157215   0.416  -0.049   4.218
18991WAT     H257216   0.519   0.045   4.303
18992WAT      O57217   0.220   9.003   9.541
18992WAT     H157218   0.293   9.024   9.476
18992WAT     H257219   0.163   9.084   9.555
18993WAT      O57220   2.452   4.820   8.307
18993WAT     H157221   2.434   4.901   8.362
18993WAT     H257222   2.366   4.780   8.277
18994WAT      O57223   7.910   4.617   4.102
18994WAT     H157224   8.006   4.611   4.128
18994WAT     H257225   7.875   4.525   4.085
18995WAT      O57226   0.914   9.123   8.133
18995WAT     H157227   0.938   9.086   8.044
18995WAT     H257228   0.884   9.049   8.193
18996WAT      O57229   1.217   1.030   8.718
18996WAT     H157230   1.314   1.044   8.702
18996WAT     H257231   1.167   1.042   8.632
18997WAT      O57232   4.758   5.691   2.996
18997WAT     H157233   4.665   5.687   2.960
18997WAT     H257234   4.776   5.783   3.032
18998WAT      O57235   4.768   0.207   5.628
18998WAT     H157236   4.864   0.232   5.642
18998WAT     H257237   4.763   0.111   5.600
18999WAT      O57238   3.671   7.519   7.206
18999WAT     H157239   3.583   7.480   7.177
18999WAT     H257240   3.690   7.602   7.154
19000WAT      O57241   1.072   6.492   4.981
19000WAT     H157242   1.099   6.541   4.898
19000WAT     H257243   1.037   6.558   5.048
19001WAT      O57244   3.094   1.489   5.892
19001WAT     H157245   2.998   1.496   5.865
19001WAT     H257246   3.135   1.580   5.895
19002WAT      O57247   6.508   7.509   8.613
19002WAT     H157248   6.437   7.502   8.683
19002WAT     H257249   6.514   7.603   8.581
19003WAT      O57250   5.836   0.571   2.182
19003WAT     H157251   5.833   0.521   2.096
19003WAT     H257252   5.915   0.541   2.235
19004WAT      O57253   8.199   2.924   6.885
19004WAT     H157254   8.260   2.867   6.940
19004WAT     H257255   8.253   2.995   6.839
19005WAT      O57256   2.292   0.773   1.409
19005WAT     H157257   2.265   0.702   1.343
19005WAT     H257258   2.278   0.738   1.502
19006WAT      O57259   4.223   6.035   7.460
19006WAT     H157260   4.254   5.988   7.544
19006WAT     H257261   4.129   6.010   7.441
19007WAT      O57262   1.338   7.938   8.453
19007WAT     H157263   1.314   8.016   8.510
19007WAT     H257264   1.413   7.962   8.391
19008WAT      O57265   1.948   1.940   2.669
19008WAT     H157266   2.036   1.942   2.716
19008WAT     H257267   1.962   1.958   2.572
19009WAT      O57268   2.715   0.788   3.393
19009WAT     H157269   2.796   0.846   3.390
19009WAT     H257270   2.742   0.694   3.416
19010WAT      O57271   5.170   0.863   3.043
19010WAT     H157272   5.208   0.932   2.981
19010WAT     H257273   5.090   0.901   3.089
19011WAT      O57274   5.729   4.054   4.492
19011WAT     H157275   5.744   3.977   4.430
19011WAT     H257276   5.808   4.115   4.490
19012WAT      O57277   4.609   3.507   9.735
19012WAT     H157278   4.598   3.425   9.792
19012WAT     H257279   4.688   3.559   9.767
19013WAT      O57280   9.073   3.080   2.280
19013WAT     H157281   9.020   2.997   2.265
19013WAT     H257282   9.023   3.159   2.245
19014WAT      O57283   9.473   4.615   7.816
19014WAT     H157284   9.485   4.517   7.805
19014WAT     H257285   9.385   4.643   7.777
19015WAT      O57286   8.021   3.693   5.072
19015WAT     H157287   7.942   3.750   5.051
19015WAT     H257288   7.993   3.597   5.077
19016WAT      O57289   9.290   3.078   8.248
19016WAT     H157290   9.263   3.168   8.283
19016WAT     H257291   9.376   3.085   8.198
19017WAT      O57292   0.845   8.681   5.592
19017WAT     H157293   0.938   8.643   5.599
19017WAT     H257294   0.819   8.687   5.496
19018WAT      O57295   0.556   9.503   1.161
19018WAT     H157296   0.500   9.577   1.125
19018WAT     H257297   0.575   9.519   1.257
19019WAT      O57298   9.298   1.285   3.915
19019WAT     H157299   9.208   1.273   3.874
19019WAT     H257300   9.305   1.377   3.953
19020WAT      O57301   3.421   0.854   7.082
19020WAT     H157302   3.463   0.943   7.065
19020WAT     H257303   3.458   0.814   7.165
19021WAT      O57304   1.276   9.763   3.057
19021WAT     H157305   1.327   9.724   3.134
19021WAT     H257306   1.272   9.696   2.983
19022WAT      O57307   1.667   1.535   0.177
19022WAT     H157308   1.600   1.599   0.140
19022WAT     H257309   1.649   1.521   0.275
19023WAT      O57310   1.032   8.950   8.677
19023WAT     H157311   1.020   9.041   8.638
19023WAT     H257312   1.095   8.897   8.621
19024WAT      O57313   5.361   9.779   8.478
19024WAT     H157314   5.417   9.752   8.400
19024WAT     H257315   5.411   9.844   8.535
19025WAT      O57316   6.231   3.229   8.198
19025WAT     H157317   6.194   3.250   8.108
19025WAT     H257318   6.156   3.203   8.260
19026WAT      O57319   2.213   9.707   3.398
19026WAT     H157320   2.272   9.696   3.478
19026WAT     H257321   2.237   9.791   3.350
19027WAT      O57322   0.077   0.267   3.893
19027WAT     H157323   0.095   0.229   3.802
19027WAT     H257324   0.151   0.242   3.955
19028WAT      O57325   6.677   4.571   3.674
19028WAT     H157326   6.770   4.546   3.646
19028WAT     H257327   6.673   4.670   3.690
19029WAT      O57328   3.012   3.588   1.738
19029WAT     H157329   2.917   3.619   1.744
19029WAT     H257330   3.042   3.554   1.827
19030WAT      O57331   9.245   4.032   1.665
19030WAT     H157332   9.276   3.989   1.749
19030WAT     H257333   9.279   4.125   1.660
19031WAT      O57334   4.082   2.252   1.078
19031WAT     H157335   4.159   2.289   1.131
19031WAT     H257336   4.020   2.327   1.054
19032WAT      O57337   1.201   0.805   1.020
19032WAT     H157338   1.181   0.875   1.088
19032WAT     H257339   1.129   0.735   1.022
19033WAT      O57340   6.456   8.507   0.054
19033WAT     H157341   6.518   8.538  -0.018
19033WAT     H257342   6.365   8.490   0.016
19034WAT      O57343   1.141   6.279   5.368
19034WAT     H157344   1.213   6.210   5.378
19034WAT     H257345   1.058   6.235   5.332
19035WAT      O57346   1.559   3.938   2.543
19035WAT     H157347   1.603   3.940   2.453
19035WAT     H257348   1.552   4.032   2.577
19036WAT      O57349   8.457   4.220   5.304
19036WAT     H157350   8.357   4.232   5.300
19036WAT     H257351   8.478   4.125   5.327
19037WAT      O57352   3.471   0.099   2.148
19037WAT     H157353   3.532   0.151   2.089
19037WAT     H257354   3.483   0.128   2.243
19038WAT      O57355   0.726   1.029   9.677
19038WAT     H157356   0.727   1.050   9.775
19038WAT     H257357   0.789   0.954   9.659
19039WAT      O57358   2.563   6.328   7.045
19039WAT     H157359   2.587   6.377   6.960
19039WAT     H257360   2.628   6.353   7.116
19040WAT      O57361   4.915   4.096   2.816
19040WAT     H157362   4.905   4.196   2.809
19040WAT     H257363   5.003   4.069   2.777
19041WAT      O57364   2.385   9.646   8.543
19041WAT     H157365   2.337   9.630   8.629
19041WAT     H257366   2.420   9.739   8.542
19042WAT      O57367   2.610   4.775   2.894
19042WAT     H157368   2.642   4.686   2.862
19042WAT     H257369   2.689   4.833   2.916
19043WAT      O57370   7.851   7.379   4.350
19043WAT     H157371   7.923   7.346   4.412
19043WAT     H257372   7.813   7.464   4.385
19044WAT      O57373   0.793   7.940   6.179
19044WAT     H157374   0.814   7.858   6.126
19044WAT     H257375   0.703   7.931   6.221
19045WAT      O57376   6.835   5.767   5.177
19045WAT     H157377   6.909   5.822   5.139
19045WAT     H257378   6.748   5.815   5.163
19046WAT      O57379   1.184   5.397   0.093
19046WAT     H157380   1.254   5.325   0.090
19046WAT     H257381   1.180   5.443   0.004
19047WAT      O57382   8.221   6.260   1.245
19047WAT     H157383   8.160   6.303   1.311
19047WAT     H257384   8.266   6.330   1.190
19048WAT      O57385   0.683   7.424   1.793
19048WAT     H157386   0.628   7.508   1.796
19048WAT     H257387   0.627   7.346   1.820
19049WAT      O57388   9.443   0.610   2.437
19049WAT     H157389   9.366   0.551   2.414
19049WAT     H257390   9.422   0.704   2.409
19050WAT      O57391   1.195   4.282   1.893
19050WAT     H157392   1.250   4.295   1.810
19050WAT     H257393   1.130   4.207   1.879
19051WAT      O57394   1.214   2.836   9.783
19051WAT     H157395   1.304   2.800   9.759
19051WAT     H257396   1.213   2.935   9.767
19052WAT      O57397   4.995   6.871   3.331
19052WAT     H157398   4.897   6.850   3.331
19052WAT     H257399   5.021   6.906   3.241
19053WAT      O57400   2.480   1.682   1.197
19053WAT     H157401   2.461   1.684   1.295
19053WAT     H257402   2.544   1.609   1.176
19054WAT      O57403   4.982   6.178   5.610
19054WAT     H157404   5.063   6.175   5.668
19054WAT     H257405   4.967   6.272   5.578
19055WAT      O57406   1.078   7.701   0.810
19055WAT     H157407   1.045   7.718   0.902
19055WAT     H257408   1.168   7.743   0.798
19056WAT      O57409   5.342   1.588   8.348
19056WAT     H157410   5.349   1.492   8.322
19056WAT     H257411   5.267   1.601   8.412
19057WAT      O57412   2.125   2.451   9.843
19057WAT     H157413   2.047   2.388   9.844
19057WAT     H257414   2.161   2.458   9.751
19058WAT      O57415   5.570   4.310   6.766
19058WAT     H157416   5.636   4.245   6.803
19058WAT     H257417   5.559   4.294   6.668
19059WAT      O57418   8.368   2.799   7.065
19059WAT     H157419   8.445   2.776   7.007
19059WAT     H257420   8.401   2.813   7.159
19060WAT      O57421   6.862   3.908   9.672
19060WAT     H157422   6.922   3.874   9.745
19060WAT     H257423   6.880   3.857   9.588
19061WAT      O57424   3.464   3.713   2.222
19061WAT     H157425   3.446   3.776   2.146
19061WAT     H257426   3.548   3.661   2.203
19062WAT      O57427   6.233   2.208   0.590
19062WAT     H157428   6.217   2.117   0.552
19062WAT     H257429   6.247   2.201   0.689
19063WAT      O57430   5.033   5.706   0.622
19063WAT     H157431   4.979   5.790   0.615
19063WAT     H257432   5.043   5.665   0.532
19064WAT      O57433   3.587   7.384   9.432
19064WAT     H157434   3.569   7.442   9.352
19064WAT     H257435   3.671   7.332   9.416
19065WAT      O57436   9.839   5.368   8.486
19065WAT     H157437   9.861   5.429   8.562
19065WAT     H257438   9.814   5.278   8.521
19066WAT      O57439   6.856   2.842   8.890
19066WAT     H157440   6.825   2.924   8.937
19066WAT     H257441   6.943   2.860   8.844
19067WAT      O57442   9.197   5.853   2.258
19067WAT     H157443   9.147   5.892   2.180
19067WAT     H257444   9.207   5.755   2.245
19068WAT      O57445   6.897   2.222   7.772
19068WAT     H157446   6.865   2.143   7.719
19068WAT     H257447   6.819   2.263   7.820
19069WAT      O57448   5.092   6.490   3.823
19069WAT     H157449   5.118   6.547   3.902
19069WAT     H257450   5.150   6.409   3.821
19070WAT      O57451   9.289   2.778   5.156
19070WAT     H157452   9.230   2.765   5.235
19070WAT     H257453   9.289   2.875   5.129
19071WAT      O57454   4.666   8.620   3.062
19071WAT     H157455   4.627   8.575   3.142
19071WAT     H257456   4.592   8.656   3.005
19072WAT      O57457   4.585   3.752   9.396
19072WAT     H157458   4.624   3.682   9.456
19072WAT     H257459   4.490   3.728   9.375
19073WAT      O57460   2.234   6.046   1.274
19073WAT     H157461   2.136   6.068   1.280
19073WAT     H257462   2.287   6.128   1.294
19074WAT      O57463   7.995   5.179   5.900
19074WAT     H157464   7.942   5.095   5.886
19074WAT     H257465   8.082   5.155   5.943
19075WAT      O57466   5.755   2.354   7.472
19075WAT     H157467   5.810   2.273   7.491
19075WAT     H257468   5.665   2.326   7.439
19076WAT      O57469   6.908   9.619   1.840
19076WAT     H157470   6.900   9.566   1.925
19076WAT     H257471   6.838   9.690   1.838
19077WAT      O57472   5.854   1.722   2.030
19077WAT     H157473   5.926   1.775   1.985
19077WAT     H257474   5.878   1.707   2.126
19078WAT      O57475   9.256   8.665   6.353
19078WAT     H157476   9.184   8.696   6.416
19078WAT     H257477   9.338   8.642   6.405
19079WAT      O57478   1.736   6.712   2.560
19079WAT     H157479   1.835   6.695   2.565
19079WAT     H257480   1.720   6.810   2.563
19080WAT      O57481   9.087   2.152   1.407
19080WAT     H157482   9.120   2.238   1.369
19080WAT     H257483   9.162   2.104   1.452
19081WAT      O57484   9.541   3.545   5.602
19081WAT     H157485   9.566   3.551   5.698
19081WAT     H257486   9.497   3.630   5.573
19082WAT      O57487   2.405   1.489   2.184
19082WAT     H157488   2.477   1.425   2.156
19082WAT     H257489   2.329   1.483   2.119
19083WAT      O57490   4.064   2.185   4.765
19083WAT     H157491   4.127   2.237   4.708
19083WAT     H257492   4.055   2.092   4.729
19084WAT      O57493   6.322   2.225   7.758
19084WAT     H157494   6.390   2.293   7.728
19084WAT     H257495   6.306   2.234   7.856
19085WAT      O57496   3.691   4.603   3.559
19085WAT     H157497   3.737   4.559   3.482
19085WAT     H257498   3.593   4.581   3.556
19086WAT      O57499   6.102   5.643   0.834
19086WAT     H157500   6.008   5.622   0.859
19086WAT     H257501   6.130   5.586   0.757
19087WAT      O57502   3.178   7.140   6.973
19087WAT     H157503   3.107   7.209   6.955
19087WAT     H257504   3.181   7.075   6.897
19088WAT      O57505   9.281   7.866   4.103
19088WAT     H157506   9.379   7.880   4.118
19088WAT     H257507   9.267   7.780   4.054
19089WAT      O57508   5.060   6.239   1.233
19089WAT     H157509   5.101   6.215   1.144
19089WAT     H257510   5.129   6.229   1.305
19090WAT      O57511   9.668   9.286   4.281
19090WAT     H157512   9.639   9.231   4.359
19090WAT     H257513   9.652   9.236   4.196
19091WAT      O57514   9.620   2.448   3.670
19091WAT     H157515   9.686   2.492   3.609
19091WAT     H257516   9.527   2.468   3.638
19092WAT      O57517   4.712   7.302   9.690
19092WAT     H157518   4.658   7.223   9.660
19092WAT     H257519   4.766   7.337   9.613
19093WAT      O57520   3.250   7.583   4.542
19093WAT     H157521   3.236   7.544   4.451
19093WAT     H257522   3.164   7.619   4.577
19094WAT      O57523   9.534   2.962   5.234
19094WAT     H157524   9.463   3.028   5.256
19094WAT     H257525   9.500   2.869   5.252
19095WAT      O57526   8.773   5.892   2.773
19095WAT     H157527   8.780   5.986   2.742
19095WAT     H257528   8.720   5.888   2.858
19096WAT      O57529   0.029   7.441   3.399
19096WAT     H157530   0.021   7.354   3.350
19096WAT     H257531   0.014   7.425   3.497
19097WAT      O57532   5.796   2.476   0.523
19097WAT     H157533   5.851   2.415   0.579
19097WAT     H257534   5.849   2.557   0.498
19098WAT      O57535   8.170   1.076   4.820
19098WAT     H157536   8.114   1.095   4.740
19098WAT     H257537   8.125   1.007   4.877
19099WAT      O57538   3.153   5.047   4.064
19099WAT     H157539   3.149   5.124   4.128
19099WAT     H257540   3.061   5.027   4.030
19100WAT      O57541   1.204   5.566   5.917
19100WAT     H157542   1.247   5.485   5.958
19100WAT     H257543   1.106   5.549   5.905
19101WAT      O57544   5.607   4.034   7.573
19101WAT     H157545   5.650   4.079   7.495
19101WAT     H257546   5.521   4.080   7.595
19102WAT      O57547   2.686   7.009   8.483
19102WAT     H157548   2.637   6.933   8.526
19102WAT     H257549   2.761   7.038   8.544
19103WAT      O57550   1.886   5.264   7.345
19103WAT     H157551   1.935   5.352   7.351
19103WAT     H257552   1.798   5.273   7.390
19104WAT      O57553   0.291   1.234   7.550
19104WAT     H157554   0.332   1.206   7.637
19104WAT     H257555   0.197   1.264   7.565
19105WAT      O57556   9.868   5.528   8.723
19105WAT     H157557   9.787   5.528   8.782
19105WAT     H257558   9.938   5.469   8.762
19106WAT      O57559   8.676   7.665   6.495
19106WAT     H157560   8.762   7.616   6.482
19106WAT     H257561   8.657   7.722   6.416
19107WAT      O57562   6.066   8.758   8.399
19107WAT     H157563   5.979   8.782   8.357
19107WAT     H257564   6.079   8.810   8.483
19108WAT      O57565   6.980   6.849   9.040
19108WAT     H157566   6.970   6.889   9.131
19108WAT     H257567   6.955   6.917   8.971
19109WAT      O57568   0.215   6.859   7.556
19109WAT     H157569   0.308   6.828   7.534
19109WAT     H257570   0.151   6.782   7.546
19110WAT      O57571   7.510   7.553   8.972
19110WAT     H157572   7.516   7.622   8.900
19110WAT     H257573   7.508   7.462   8.931
19111WAT      O57574   0.351   0.251   7.318
19111WAT     H157575   0.298   0.331   7.346
19111WAT     H257576   0.298   0.198   7.252
19112WAT      O57577   0.144   2.749   1.768
19112WAT     H157578   0.067   2.692   1.740
19112WAT     H257579   0.144   2.833   1.713
19113WAT      O57580   1.967   7.508   0.657
19113WAT     H157581   1.880   7.463   0.639
19113WAT     H257582   1.970   7.597   0.610
19114WAT      O57583   4.444   8.334   6.848
19114WAT     H157584   4.467   8.240   6.823
19114WAT     H257585   4.528   8.388   6.856
19115WAT      O57586   9.082   9.326   3.815
19115WAT     H157587   9.076   9.298   3.719
19115WAT     H257588   8.995   9.306   3.861
19116WAT      O57589   0.312   7.207   5.216
19116WAT     H157590   0.340   7.283   5.274
19116WAT     H257591   0.368   7.127   5.236
19117WAT      O57592   2.631   3.566   9.079
19117WAT     H157593   2.709   3.553   9.140
19117WAT     H257594   2.553   3.601   9.132
19118WAT      O57595   0.574   1.987   5.735
19118WAT     H157596   0.669   2.009   5.712
19118WAT     H257597   0.548   1.901   5.692
19119WAT      O57598   8.398   5.927   2.711
19119WAT     H157599   8.450   5.943   2.795
19119WAT     H257600   8.433   5.845   2.666
19120WAT      O57601   2.382   6.288   5.829
19120WAT     H157602   2.301   6.335   5.863
19120WAT     H257603   2.408   6.216   5.892
19121WAT      O57604   0.614   8.596   1.993
19121WAT     H157605   0.560   8.674   2.024
19121WAT     H257606   0.598   8.518   2.053
19122WAT      O57607   8.819   3.863   9.079
19122WAT     H157608   8.912   3.891   9.056
19122WAT     H257609   8.819   3.823   9.171
19123WAT      O57610   0.386   7.675   0.922
19123WAT     H157611   0.422   7.617   0.849
19123WAT     H257612   0.403   7.771   0.901
19124WAT      O57613   9.501   2.923   8.737
19124WAT     H157614   9.562   2.986   8.688
19124WAT     H257615   9.412   2.966   8.750
19125WAT      O57616   0.135   7.688   0.054
19125WAT     H157617   0.217   7.660   0.104
19125WAT     H257618   0.075   7.609   0.042
19126WAT      O57619   5.065   9.606   0.916
19126WAT     H157620   5.094   9.536   0.851
19126WAT     H257621   4.998   9.568   0.979
19127WAT      O57622   8.617   6.011   6.400
19127WAT     H157623   8.576   6.097   6.429
19127WAT     H257624   8.548   5.955   6.353
19128WAT      O57625   9.866   6.672   0.588
19128WAT     H157626   9.869   6.582   0.632
19128WAT     H257627   9.772   6.691   0.558
19129WAT      O57628   9.462   8.100   7.943
19129WAT     H157629   9.372   8.137   7.961
19129WAT     H257630   9.491   8.127   7.851
19130WAT      O57631   3.863   3.930   4.365
19130WAT     H157632   3.944   3.977   4.330
19130WAT     H257633   3.790   3.997   4.379
19131WAT      O57634   9.795   8.583   6.787
19131WAT     H157635   9.794   8.505   6.725
19131WAT     H257636   9.708   8.631   6.783
19132WAT      O57637   0.300   8.793   5.197
19132WAT     H157638   0.342   8.759   5.113
19132WAT     H257639   0.335   8.885   5.217
19133WAT      O57640   9.238   1.263   8.575
19133WAT     H157641   9.193   1.193   8.631
19133WAT     H257642   9.334   1.237   8.561
19134WAT      O57643   6.372   2.949   9.757
19134WAT     H157644   6.275   2.931   9.773
19134WAT     H257645   6.419   2.863   9.738
19135WAT      O57646   0.790   5.456   5.885
19135WAT     H157647   0.855   5.396   5.932
19135WAT     H257648   0.702   5.454   5.932
19136WAT      O57649   7.250   7.881   0.446
19136WAT     H157650   7.327   7.859   0.506
19136WAT     H257651   7.199   7.798   0.426
19137WAT      O57652   7.462   1.031   6.460
19137WAT     H157653   7.394   1.023   6.532
19137WAT     H257654   7.447   1.116   6.409
19138WAT      O57655   6.096   4.173   7.830
19138WAT     H157656   6.007   4.209   7.805
19138WAT     H257657   6.158   4.178   7.752
19139WAT      O57658   2.689   0.872   8.687
19139WAT     H157659   2.651   0.866   8.595
19139WAT     H257660   2.788   0.855   8.683
19140WAT      O57661   3.802   7.744   1.932
19140WAT     H157662   3.746   7.753   2.014
19140WAT     H257663   3.884   7.801   1.941
19141WAT      O57664   6.685   2.685   2.728
19141WAT     H157665   6.766   2.630   2.746
19141WAT     H257666   6.686   2.766   2.786
19142WAT      O57667   9.474   6.577   5.866
19142WAT     H157668   9.444   6.493   5.820
19142WAT     H257669   9.510   6.555   5.957
19143WAT      O57670   0.279   2.382   5.661
19143WAT     H157671   0.191   2.360   5.703
19143WAT     H257672   0.285   2.338   5.571
19144WAT      O57673   8.818   7.073   7.524
19144WAT     H157674   8.719   7.066   7.536
19144WAT     H257675   8.859   7.116   7.605
19145WAT      O57676   8.139   5.186   8.542
19145WAT     H157677   8.232   5.216   8.563
19145WAT     H257678   8.097   5.148   8.624
19146WAT      O57679   7.339   6.290   3.398
19146WAT     H157680   7.435   6.308   3.375
19146WAT     H257681   7.283   6.367   3.369
19147WAT      O57682   4.261   8.270   2.261
19147WAT     H157683   4.261   8.368   2.283
19147WAT     H257684   4.355   8.236   2.265
19148WAT      O57685   7.494   9.135   2.140
19148WAT     H157686   7.433   9.144   2.219
19148WAT     H257687   7.439   9.118   2.058
19149WAT      O57688   3.678   3.157   8.678
19149WAT     H157689   3.647   3.092   8.747
19149WAT     H257690   3.652   3.124   8.587
19150WAT      O57691   3.272   8.305   3.927
19150WAT     H157692   3.193   8.314   3.986
19150WAT     H257693   3.274   8.213   3.887
19151WAT      O57694   5.196   7.114   5.601
19151WAT     H157695   5.100   7.141   5.601
19151WAT     H257696   5.202   7.014   5.601
19152WAT      O57697   9.028   5.121   0.729
19152WAT     H157698   8.991   5.062   0.657
19152WAT     H257699   8.977   5.207   0.731
19153WAT      O57700   6.212   7.859   7.455
19153WAT     H157701   6.286   7.890   7.396
19153WAT     H257702   6.251   7.809   7.533
19154WAT      O57703   3.809   0.703   7.793
19154WAT     H157704   3.878   0.769   7.762
19154WAT     H257705   3.854   0.624   7.834
19155WAT      O57706   5.990   8.866   9.447
19155WAT     H157707   5.947   8.809   9.377
19155WAT     H257708   5.967   8.830   9.537
19156WAT      O57709   9.438   1.926   0.192
19156WAT     H157710   9.462   1.863   0.266
19156WAT     H257711   9.507   1.920   0.120
19157WAT      O57712   5.842   8.470   6.410
19157WAT     H157713   5.826   8.559   6.453
19157WAT     H257714   5.774   8.404   6.444
19158WAT      O57715   6.755   2.992   8.655
19158WAT     H157716   6.672   3.046   8.661
19158WAT     H257717   6.769   2.942   8.741
19159WAT      O57718   5.018   2.406   8.655
19159WAT     H157719   5.004   2.494   8.610
19159WAT     H257720   5.114   2.397   8.683
19160WAT      O57721   4.816   4.995   2.712
19160WAT     H157722   4.800   5.089   2.681
19160WAT     H257723   4.810   4.991   2.812
19161WAT      O57724   7.467   1.178   4.926
19161WAT     H157725   7.385   1.151   4.976
19161WAT     H257726   7.523   1.098   4.907
19162WAT      O57727   0.449   7.283   1.370
19162WAT     H157728   0.383   7.357   1.374
19162WAT     H257729   0.433   7.219   1.446
19163WAT      O57730   9.367   7.770   5.705
19163WAT     H157731   9.355   7.693   5.766
19163WAT     H257732   9.318   7.850   5.741
19164WAT      O57733   6.884   1.988   4.789
19164WAT     H157734   6.916   1.929   4.715
19164WAT     H257735   6.806   2.042   4.756
19165WAT      O57736   3.933   9.628   7.250
19165WAT     H157737   3.973   9.705   7.200
19165WAT     H257738   3.928   9.549   7.190
19166WAT      O57739   0.994   4.309   9.732
19166WAT     H157740   1.015   4.231   9.673
19166WAT     H257741   0.948   4.276   9.815
19167WAT      O57742   5.119   1.940   0.726
19167WAT     H157743   5.035   1.994   0.721
19167WAT     H257744   5.194   1.998   0.759
19168WAT      O57745   7.543   9.111   6.405
19168WAT     H157746   7.506   9.128   6.496
19168WAT     H257747   7.639   9.084   6.412
19169WAT      O57748   8.228   0.974   0.721
19169WAT     H157749   8.209   0.971   0.623
19169WAT     H257750   8.319   0.938   0.739
19170WAT      O57751   1.268   5.691   2.780
19170WAT     H157752   1.259   5.662   2.685
19170WAT     H257753   1.365   5.702   2.803
19171WAT      O57754   3.195   3.914   2.255
19171WAT     H157755   3.283   3.946   2.220
19171WAT     H257756   3.204   3.892   2.352
19172WAT      O57757   0.498   3.337   3.211
19172WAT     H157758   0.582   3.363   3.260
19172WAT     H257759   0.493   3.388   3.125
19173WAT      O57760   2.782   0.484   5.908
19173WAT     H157761   2.716   0.502   5.981
19173WAT     H257762   2.736   0.437   5.832
19174WAT      O57763   2.067   3.466   6.250
19174WAT     H157764   2.107   3.473   6.159
19174WAT     H257765   1.993   3.399   6.249
19175WAT      O57766   4.205   6.537   6.945
19175WAT     H157767   4.209   6.532   6.845
19175WAT     H257768   4.191   6.445   6.982
19176WAT      O57769   2.280   0.707   1.681
19176WAT     H157770   2.360   0.766   1.693
19176WAT     H257771   2.286   0.629   1.744
19177WAT      O57772   7.430   2.706   5.197
19177WAT     H157773   7.516   2.669   5.162
19177WAT     H257774   7.435   2.715   5.296
19178WAT      O57775   4.017   5.977   8.176
19178WAT     H157776   4.055   6.069   8.170
19178WAT     H257777   3.993   5.944   8.085
19179WAT      O57778   1.906   9.017   4.413
19179WAT     H157779   1.998   9.009   4.451
19179WAT     H257780   1.844   9.048   4.485
19180WAT      O57781   8.640   6.883   9.197
19180WAT     H157782   8.679   6.932   9.119
19180WAT     H257783   8.543   6.864   9.180
19181WAT      O57784   6.143   3.113   4.869
19181WAT     H157785   6.140   3.057   4.786
19181WAT     H257786   6.060   3.169   4.875
19182WAT      O57787   7.751   6.341   7.633
19182WAT     H157788   7.675   6.386   7.679
19182WAT     H257789   7.725   6.247   7.608
19183WAT      O57790   6.213   3.711   9.426
19183WAT     H157791   6.214   3.758   9.515
19183WAT     H257792   6.120   3.685   9.403
19184WAT      O57793   1.737   9.505   4.840
19184WAT     H157794   1.771   9.495   4.934
19184WAT     H257795   1.782   9.438   4.782
19185WAT      O57796   6.778   7.162   0.283
19185WAT     H157797   6.719   7.239   0.305
19185WAT     H257798   6.843   7.190   0.212
19186WAT      O57799   7.715   9.739   7.492
19186WAT     H157800   7.662   9.681   7.431
19186WAT     H257801   7.744   9.687   7.572
19187WAT      O57802   6.062   2.207   4.321
19187WAT     H157803   5.963   2.206   4.337
19187WAT     H257804   6.097   2.299   4.340
19188WAT      O57805   5.797   2.388   5.721
19188WAT     H157806   5.744   2.320   5.772
19188WAT     H257807   5.809   2.469   5.777
19189WAT      O57808   9.340   3.901   3.634
19189WAT     H157809   9.328   3.998   3.610
19189WAT     H257810   9.391   3.894   3.719
19190WAT      O57811   1.153   7.774   7.117
19190WAT     H157812   1.054   7.789   7.107
19190WAT     H257813   1.187   7.720   7.040
19191WAT      O57814   5.640   6.872   8.568
19191WAT     H157815   5.726   6.835   8.604
19191WAT     H257816   5.660   6.945   8.503
19192WAT      O57817   4.990   9.046   7.337
19192WAT     H157818   4.941   8.970   7.381
19192WAT     H257819   5.074   9.065   7.388
19193WAT      O57820   4.697   6.604   7.700
19193WAT     H157821   4.692   6.543   7.779
19193WAT     H257822   4.608   6.647   7.685
19194WAT      O57823   1.001   9.147   2.624
19194WAT     H157824   1.002   9.066   2.566
19194WAT     H257825   1.002   9.229   2.568
19195WAT      O57826   5.361   0.549   4.681
19195WAT     H157827   5.349   0.451   4.698
19195WAT     H257828   5.373   0.596   4.769
19196WAT      O57829   0.638   0.262   3.708
19196WAT     H157830   0.727   0.225   3.680
19196WAT     H257831   0.644   0.362   3.713
19197WAT      O57832   0.676   3.985   9.862
19197WAT     H157833   0.649   3.981   9.765
19197WAT     H257834   0.598   3.962   9.919
19198WAT      O57835   2.160   2.899   0.464
19198WAT     H157836   2.180   2.802   0.459
19198WAT     H257837   2.136   2.924   0.558
19199WAT      O57838   5.468   2.352   1.428
19199WAT     H157839   5.493   2.258   1.447
19199WAT     H257840   5.540   2.413   1.459
19200WAT      O57841   2.348   1.271   5.017
19200WAT     H157842   2.282   1.206   4.979
19200WAT     H257843   2.305   1.323   5.091
19201WAT      O57844   2.285   7.260   2.647
19201WAT     H157845   2.268   7.174   2.598
19201WAT     H257846   2.198   7.297   2.680
19202WAT      O57847   7.761   7.181   1.751
19202WAT     H157848   7.675   7.172   1.700
19202WAT     H257849   7.825   7.111   1.720
19203WAT      O57850   5.577   9.180   1.766
19203WAT     H157851   5.485   9.165   1.802
19203WAT     H257852   5.632   9.097   1.780
19204WAT      O57853   4.405   2.626   8.641
19204WAT     H157854   4.344   2.632   8.561
19204WAT     H257855   4.479   2.693   8.630
19205WAT      O57856   3.314   8.235   7.248
19205WAT     H157857   3.337   8.313   7.306
19205WAT     H257858   3.255   8.172   7.299
19206WAT      O57859   7.597   8.567   2.694
19206WAT     H157860   7.681   8.516   2.711
19206WAT     H257861   7.603   8.657   2.736
19207WAT      O57862   7.904   7.996   1.594
19207WAT     H157863   7.935   8.088   1.619
19207WAT     H257864   7.824   8.003   1.533
19208WAT      O57865   4.717   5.054   7.849
19208WAT     H157866   4.727   5.149   7.878
19208WAT     H257867   4.799   5.025   7.800
19209WAT      O57868   2.714   7.629   9.577
19209WAT     H157869   2.753   7.618   9.668
19209WAT     H257870   2.627   7.678   9.584
19210WAT      O57871   9.118   9.472   7.988
19210WAT     H157872   9.067   9.491   8.073
19210WAT     H257873   9.203   9.525   7.988
19211WAT      O57874   3.511   4.833   3.424
19211WAT     H157875   3.546   4.739   3.420
19211WAT     H257876   3.506   4.870   3.331
19212WAT      O57877   6.772   3.740   6.503
19212WAT     H157878   6.692   3.692   6.540
19212WAT     H257879   6.844   3.743   6.572
19213WAT      O57880   2.351   6.467   1.175
19213WAT     H157881   2.253   6.467   1.153
19213WAT     H257882   2.377   6.554   1.215
19214WAT      O57883   2.653   0.368   1.760
19214WAT     H157884   2.634   0.445   1.821
19214WAT     H257885   2.567   0.332   1.723
19215WAT      O57886   5.422   1.260   2.281
19215WAT     H157887   5.470   1.258   2.368
19215WAT     H257888   5.415   1.168   2.244
19216WAT      O57889   9.720   6.947   3.252
19216WAT     H157890   9.634   6.992   3.228
19216WAT     H257891   9.727   6.940   3.352
19217WAT      O57892   8.511   0.391   8.538
19217WAT     H157893   8.528   0.394   8.440
19217WAT     H257894   8.527   0.298   8.571
19218WAT      O57895   5.223   6.843   5.644
19218WAT     H157896   5.251   6.766   5.586
19218WAT     H257897   5.123   6.841   5.655
19219WAT      O57898   0.504   0.805   8.573
19219WAT     H157899   0.498   0.804   8.673
19219WAT     H257900   0.524   0.713   8.540
19220WAT      O57901   3.308   5.014   2.629
19220WAT     H157902   3.259   5.023   2.716
19220WAT     H257903   3.390   5.071   2.632
19221WAT      O57904   3.903   5.848   1.368
19221WAT     H157905   3.839   5.921   1.393
19221WAT     H257906   3.990   5.887   1.339
19222WAT      O57907   3.255   6.108   0.892
19222WAT     H157908   3.191   6.046   0.847
19222WAT     H257909   3.208   6.193   0.916
19223WAT      O57910   5.727   2.909   0.608
19223WAT     H157911   5.742   2.884   0.512
19223WAT     H257912   5.668   2.990   0.613
19224WAT      O57913   2.191   9.544   0.835
19224WAT     H157914   2.262   9.611   0.812
19224WAT     H257915   2.130   9.583   0.903
19225WAT      O57916   8.531   1.040   4.455
19225WAT     H157917   8.592   1.119   4.458
19225WAT     H257918   8.488   1.028   4.545
19226WAT      O57919   0.269   9.446   3.649
19226WAT     H157920   0.216   9.463   3.566
19226WAT     H257921   0.354   9.500   3.645
19227WAT      O57922   2.213   3.011   5.089
19227WAT     H157923   2.158   3.064   5.025
19227WAT     H257924   2.309   3.041   5.083
19228WAT      O57925   5.441   5.685   5.303
19228WAT     H157926   5.342   5.675   5.314
19228WAT     H257927   5.478   5.601   5.262
19229WAT      O57928   5.089   6.066   2.880
19229WAT     H157929   5.016   6.124   2.846
19229WAT     H257930   5.060   5.970   2.877
19230WAT      O57931   1.759   0.945   6.377
19230WAT     H157932   1.679   0.955   6.436
19230WAT     H257933   1.735   0.891   6.296
19231WAT      O57934   9.428   6.742   7.512
19231WAT     H157935   9.441   6.761   7.415
19231WAT     H257936   9.489   6.801   7.565
19232WAT      O57937   4.194   6.830   9.070
19232WAT     H157938   4.150   6.748   9.035
19232WAT     H257939   4.281   6.806   9.113
19233WAT      O57940   4.127   2.094   1.337
19233WAT     H157941   4.139   2.141   1.424
19233WAT     H257942   4.130   2.160   1.262
19234WAT      O57943   5.951   2.155   7.805
19234WAT     H157944   5.996   2.241   7.781
19234WAT     H257945   6.019   2.088   7.835
19235WAT      O57946   6.284   2.633   6.118
19235WAT     H157947   6.211   2.566   6.123
19235WAT     H257948   6.255   2.718   6.161
19236WAT      O57949   2.297   1.097   4.792
19236WAT     H157950   2.370   1.132   4.733
19236WAT     H257951   2.281   1.001   4.772
19237WAT      O57952   2.511   8.034   3.085
19237WAT     H157953   2.509   7.975   3.165
19237WAT     H257954   2.510   7.979   3.002
19238WAT      O57955   3.521   9.392   0.111
19238WAT     H157956   3.600   9.333   0.126
19238WAT     H257957   3.518   9.462   0.182
19239WAT      O57958   6.712   6.107   4.899
19239WAT     H157959   6.716   6.021   4.848
19239WAT     H257960   6.620   6.118   4.938
19240WAT      O57961   1.187   7.454   2.188
19240WAT     H157962   1.197   7.551   2.166
19240WAT     H257963   1.156   7.404   2.107
19241WAT      O57964   1.665   7.737   3.682
19241WAT     H157965   1.747   7.714   3.630
19241WAT     H257966   1.623   7.819   3.644
19242WAT      O57967   7.867   4.277   8.802
19242WAT     H157968   7.927   4.197   8.798
19242WAT     H257969   7.776   4.253   8.769
19243WAT      O57970   2.229   5.670   9.126
19243WAT     H157971   2.160   5.739   9.104
19243WAT     H257972   2.184   5.586   9.157
19244WAT      O57973   2.999   0.436   5.338
19244WAT     H157974   3.027   0.505   5.271
19244WAT     H257975   2.978   0.480   5.425
19245WAT      O57976   3.534   1.501   5.829
19245WAT     H157977   3.532   1.544   5.919
19245WAT     H257978   3.615   1.443   5.822
19246WAT      O57979   7.670   0.035   9.184
19246WAT     H157980   7.756  -0.014   9.166
19246WAT     H257981   7.651   0.034   9.282
19247WAT      O57982   8.481   3.784   2.803
19247WAT     H157983   8.385   3.807   2.787
19247WAT     H257984   8.498   3.689   2.776
19248WAT      O57985   2.965   6.139   6.945
19248WAT     H157986   3.011   6.090   6.871
19248WAT     H257987   3.014   6.223   6.966
19249WAT      O57988   7.910   0.618   9.041
19249WAT     H157989   7.894   0.539   8.982
19249WAT     H257990   7.911   0.588   9.137
19250WAT      O57991   5.048   6.788   3.742
19250WAT     H157992   5.090   6.699   3.761
19250WAT     H257993   5.053   6.846   3.823
19251WAT      O57994   3.997   6.879   8.809
19251WAT     H157995   4.043   6.881   8.721
19251WAT     H257996   4.024   6.798   8.860
19252WAT      O57997   3.715   0.349   6.847
19252WAT     H157998   3.796   0.384   6.894
19252WAT     H257999   3.742   0.281   6.779
19253WAT      O58000   3.844   9.399   1.679
19253WAT     H158001   3.773   9.466   1.697
19253WAT     H258002   3.917   9.408   1.746
19254WAT      O58003   7.517   5.762   6.005
19254WAT     H158004   7.478   5.802   5.922
19254WAT     H258005   7.463   5.682   6.032
19255WAT      O58006   0.165   7.100   5.476
19255WAT     H158007   0.240   7.143   5.426
19255WAT     H258008   0.152   7.007   5.443
19256WAT      O58009   5.662   9.515   2.457
19256WAT     H158010   5.597   9.449   2.419
19256WAT     H258011   5.635   9.537   2.551
19257WAT      O58012   5.242   0.967   7.794
19257WAT     H158013   5.283   1.052   7.762
19257WAT     H258014   5.144   0.966   7.771
19258WAT      O58015   6.029   8.583   6.702
19258WAT     H158016   5.935   8.591   6.736
19258WAT     H258017   6.061   8.489   6.713
19259WAT      O58018   5.110   5.336   3.848
19259WAT     H158019   5.102   5.407   3.778
19259WAT     H258020   5.055   5.257   3.822
19260WAT      O58021   6.666   5.807   4.330
19260WAT     H158022   6.757   5.843   4.347
19260WAT     H258023   6.651   5.799   4.231
19261WAT      O58024   9.159   3.087   6.897
19261WAT     H158025   9.173   3.125   6.805
19261WAT     H258026   9.104   3.151   6.951
19262WAT      O58027   6.877   5.052   4.938
19262WAT     H158028   6.868   5.003   4.851
19262WAT     H258029   6.914   5.143   4.921
19263WAT      O58030   2.463   5.228   6.011
19263WAT     H158031   2.524   5.256   5.936
19263WAT     H258032   2.518   5.195   6.088
19264WAT      O58033   0.353   2.294   4.859
19264WAT     H158034   0.446   2.289   4.894
19264WAT     H258035   0.350   2.356   4.781
19265WAT      O58036   9.076   5.520   9.831
19265WAT     H158037   9.161   5.519   9.884
19265WAT     H258038   9.064   5.432   9.785
19266WAT      O58039   1.591   3.294   2.095
19266WAT     H158040   1.626   3.220   2.037
19266WAT     H258041   1.663   3.361   2.111
19267WAT      O58042   9.309   8.886   3.781
19267WAT     H158043   9.260   8.809   3.823
19267WAT     H258044   9.315   8.872   3.683
19268WAT      O58045   5.953   0.664   6.039
19268WAT     H158046   6.037   0.617   6.068
19268WAT     H258047   5.888   0.666   6.116
19269WAT      O58048   1.157   4.143   2.838
19269WAT     H158049   1.184   4.157   2.933
19269WAT     H258050   1.177   4.048   2.812
19270WAT      O58051   0.391   1.045   8.508
19270WAT     H158052   0.459   1.107   8.548
19270WAT     H258053   0.408   0.952   8.540
19271WAT      O58054   2.406   6.691   7.187
19271WAT     H158055   2.314   6.651   7.194
19271WAT     H258056   2.467   6.644   7.250
19272WAT      O58057   7.183   9.491   6.652
19272WAT     H158058   7.256   9.557   6.633
19272WAT     H258059   7.098   9.541   6.672
19273WAT      O58060   8.376   9.516   5.926
19273WAT     H158061   8.408   9.428   5.962
19273WAT     H258062   8.313   9.558   5.991
19274WAT      O58063   1.634   8.024   7.711
19274WAT     H158064   1.723   8.062   7.736
19274WAT     H258065   1.607   7.956   7.779
19275WAT      O58066   7.721   6.141   5.902
19275WAT     H158067   7.774   6.125   5.819
19275WAT     H258068   7.783   6.155   5.979
19276WAT      O58069   6.108   3.846   0.238
19276WAT     H158070   6.130   3.942   0.226
19276WAT     H258071   6.058   3.813   0.158
19277WAT      O58072   2.514   8.373   4.942
19277WAT     H158073   2.575   8.310   4.989
19277WAT     H258074   2.567   8.447   4.902
19278WAT      O58075   2.004   3.399   8.473
19278WAT     H158076   2.043   3.312   8.442
19278WAT     H258077   2.065   3.474   8.446
19279WAT      O58078   4.989   8.131   3.283
19279WAT     H158079   4.917   8.118   3.215
19279WAT     H258080   4.981   8.222   3.324
19280WAT      O58081   5.315   6.716   5.886
19280WAT     H158082   5.248   6.683   5.952
19280WAT     H258083   5.271   6.777   5.820
19281WAT      O58084   4.484   1.034   5.454
19281WAT     H158085   4.409   0.970   5.472
19281WAT     H258086   4.460   1.092   5.376
19282WAT      O58087   3.809   3.310   7.547
19282WAT     H158088   3.787   3.374   7.473
19282WAT     H258089   3.726   3.260   7.573
19283WAT      O58090   1.338   3.651   4.407
19283WAT     H158091   1.293   3.567   4.379
19283WAT     H258092   1.282   3.730   4.379
19284WAT      O58093   5.655   5.078   1.362
19284WAT     H158094   5.620   5.113   1.448
19284WAT     H258095   5.710   4.996   1.379
19285WAT      O58096   4.659   6.287   3.389
19285WAT     H158097   4.758   6.268   3.391
19285WAT     H258098   4.613   6.226   3.453
19286WAT      O58099   8.324   5.363   0.691
19286WAT     H158100   8.393   5.302   0.729
19286WAT     H258101   8.252   5.310   0.647
19287WAT      O58102   1.340   8.837   4.354
19287WAT     H158103   1.251   8.883   4.358
19287WAT     H258104   1.328   8.740   4.375
19288WAT      O58105   8.498   2.116   4.319
19288WAT     H158106   8.398   2.108   4.316
19288WAT     H258107   8.523   2.210   4.339
19289WAT      O58108   1.444   8.581   4.679
19289WAT     H158109   1.508   8.648   4.643
19289WAT     H258110   1.477   8.545   4.766
19290WAT      O58111   6.800   0.763   6.612
19290WAT     H158112   6.795   0.862   6.622
19290WAT     H258113   6.811   0.740   6.515
19291WAT      O58114   8.647   9.534   5.160
19291WAT     H158115   8.712   9.610   5.150
19291WAT     H258116   8.614   9.531   5.255
19292WAT      O58117   3.666   0.597   5.532
19292WAT     H158118   3.627   0.511   5.501
19292WAT     H258119   3.629   0.673   5.478
19293WAT      O58120   3.118   3.089   1.214
19293WAT     H158121   3.154   3.183   1.214
19293WAT     H258122   3.186   3.028   1.255
19294WAT      O58123   3.620   7.403   4.146
19294WAT     H158124   3.577   7.492   4.128
19294WAT     H258125   3.719   7.410   4.135
19295WAT      O58126   1.994   7.085   7.821
19295WAT     H158127   1.959   7.028   7.747
19295WAT     H258128   2.062   7.034   7.874
19296WAT      O58129   5.458   0.480   2.998
19296WAT     H158130   5.520   0.404   3.013
19296WAT     H258131   5.509   0.566   3.001
19297WAT      O58132   2.486   3.348   7.480
19297WAT     H158133   2.531   3.419   7.534
19297WAT     H258134   2.405   3.386   7.435
19298WAT      O58135   7.668   8.867   7.055
19298WAT     H158136   7.734   8.924   7.006
19298WAT     H258137   7.692   8.770   7.043
19299WAT      O58138   8.411   4.372   3.520
19299WAT     H158139   8.477   4.412   3.457
19299WAT     H258140   8.320   4.375   3.479
19300WAT      O58141   0.405   2.946   5.252
19300WAT     H158142   0.309   2.952   5.279
19300WAT     H258143   0.414   2.966   5.154
19301WAT      O58144   1.724   8.421   9.431
19301WAT     H158145   1.713   8.399   9.334
19301WAT     H258146   1.808   8.473   9.443
19302WAT      O58147   9.764   3.022   4.597
19302WAT     H158148   9.683   2.988   4.644
19302WAT     H258149   9.739   3.054   4.506
19303WAT      O58150   3.300   0.946   3.698
19303WAT     H158151   3.298   0.907   3.790
19303WAT     H258152   3.325   0.875   3.632
19304WAT      O58153   2.575   1.896   6.367
19304WAT     H158154   2.514   1.818   6.356
19304WAT     H258155   2.632   1.906   6.285
19305WAT      O58156   4.689   7.084   2.057
19305WAT     H158157   4.776   7.043   2.028
19305WAT     H258158   4.682   7.176   2.019
19306WAT      O58159   1.927   7.854   1.329
19306WAT     H158160   1.925   7.953   1.321
19306WAT     H258161   1.990   7.828   1.402
19307WAT      O58162   1.481   9.637   2.025
19307WAT     H158163   1.384   9.615   2.019
19307WAT     H258164   1.494   9.736   2.013
19308WAT      O58165   8.781   4.169   0.036
19308WAT     H158166   8.748   4.088   0.084
19308WAT     H258167   8.724   4.186  -0.045
19309WAT      O58168   2.961   9.605   2.186
19309WAT     H158169   2.949   9.693   2.139
19309WAT     H258170   2.986   9.535   2.119
19310WAT      O58171   9.885   3.119   7.947
19310WAT     H158172   9.846   3.110   7.855
19310WAT     H258173   9.936   3.206   7.953
19311WAT      O58174   2.315   1.495   4.549
19311WAT     H158175   2.387   1.521   4.484
19311WAT     H258176   2.243   1.564   4.548
19312WAT      O58177   0.684   1.138   2.717
19312WAT     H158178   0.606   1.094   2.762
19312WAT     H258179   0.687   1.110   2.621
19313WAT      O58180   8.191   7.360   1.798
19313WAT     H158181   8.111   7.404   1.756
19313WAT     H258182   8.227   7.291   1.736
19314WAT      O58183   7.611   4.476   4.806
19314WAT     H158184   7.535   4.428   4.761
19314WAT     H258185   7.691   4.417   4.808
19315WAT      O58186   5.733   8.978   1.860
19315WAT     H158187   5.706   8.885   1.837
19315WAT     H258188   5.833   8.985   1.862
19316WAT      O58189   8.003   9.236   1.824
19316WAT     H158190   7.988   9.322   1.775
19316WAT     H258191   8.099   9.231   1.853
19317WAT      O58192   0.425   7.810   9.091
19317WAT     H158193   0.338   7.801   9.140
19317WAT     H258194   0.491   7.858   9.149
19318WAT      O58195   0.938   6.999   2.451
19318WAT     H158196   0.858   7.052   2.479
19318WAT     H258197   0.962   7.023   2.357
19319WAT      O58198   0.258   9.693   7.195
19319WAT     H158199   0.312   9.749   7.132
19319WAT     H258200   0.170   9.672   7.153
19320WAT      O58201   7.063   1.349   8.440
19320WAT     H158202   7.155   1.380   8.416
19320WAT     H258203   7.058   1.331   8.538
19321WAT      O58204   3.932   4.931   9.798
19321WAT     H158205   4.003   4.867   9.770
19321WAT     H258206   3.956   4.972   9.886
19322WAT      O58207   8.781   2.387   7.035
19322WAT     H158208   8.849   2.396   7.107
19322WAT     H258209   8.802   2.450   6.960
19323WAT      O58210   4.854   4.858   5.126
19323WAT     H158211   4.898   4.938   5.084
19323WAT     H258212   4.770   4.886   5.172
19324WAT      O58213   8.742   1.845   7.838
19324WAT     H158214   8.779   1.762   7.797
19324WAT     H258215   8.677   1.887   7.774
19325WAT      O58216   1.883   4.693   4.744
19325WAT     H158217   1.823   4.649   4.811
19325WAT     H258218   1.829   4.754   4.686
19326WAT      O58219   2.936   7.181   2.857
19326WAT     H158220   2.854   7.170   2.801
19326WAT     H258221   2.998   7.246   2.813
19327WAT      O58222   5.199   2.078   9.608
19327WAT     H158223   5.225   2.157   9.663
19327WAT     H258224   5.243   1.995   9.643
19328WAT      O58225   0.775   2.561   0.086
19328WAT     H158226   0.767   2.660   0.099
19328WAT     H258227   0.781   2.541  -0.012
19329WAT      O58228   0.846   6.105   2.573
19329WAT     H158229   0.867   6.196   2.606
19329WAT     H258230   0.927   6.047   2.579
19330WAT      O58231   6.231   8.411   7.995
19330WAT     H158232   6.322   8.412   8.037
19330WAT     H258233   6.167   8.366   8.058
19331WAT      O58234   9.238   7.791   0.256
19331WAT     H158235   9.238   7.697   0.290
19331WAT     H258236   9.330   7.815   0.224
19332WAT      O58237   3.333   8.017   1.428
19332WAT     H158238   3.417   8.030   1.374
19332WAT     H258239   3.287   8.105   1.440
19333WAT      O58240   1.626   3.687   4.697
19333WAT     H158241   1.700   3.747   4.666
19333WAT     H258242   1.641   3.595   4.661
19334WAT      O58243   4.707   8.184   5.330
19334WAT     H158244   4.726   8.191   5.232
19334WAT     H258245   4.762   8.251   5.380
19335WAT      O58246   6.908   0.152   0.638
19335WAT     H158247   6.923   0.071   0.581
19335WAT     H258248   6.872   0.226   0.581
19336WAT      O58249   2.154   7.509   3.336
19336WAT     H158250   2.229   7.492   3.272
19336WAT     H258251   2.083   7.564   3.291
19337WAT      O58252   0.689   2.954   3.679
19337WAT     H158253   0.607   3.008   3.693
19337WAT     H258254   0.664   2.857   3.673
19338WAT      O58255   5.044   6.994   0.300
19338WAT     H158256   4.981   7.040   0.362
19338WAT     H258257   5.106   6.935   0.352
19339WAT      O58258   3.302   3.023   1.918
19339WAT     H158259   3.368   3.085   1.874
19339WAT     H258260   3.340   2.992   2.006
19340WAT      O58261   0.131   6.797   1.857
19340WAT     H158262   0.124   6.839   1.767
19340WAT     H258263   0.046   6.747   1.877
19341WAT      O58264   0.560   3.348   3.609
19341WAT     H158265   0.497   3.353   3.532
19341WAT     H258266   0.511   3.368   3.694
19342WAT      O58267   5.999   0.831   9.806
19342WAT     H158268   5.912   0.801   9.767
19342WAT     H258269   5.982   0.891   9.884
19343WAT      O58270   4.383   0.248   5.885
19343WAT     H158271   4.421   0.325   5.936
19343WAT     H258272   4.298   0.277   5.840
19344WAT      O58273   6.655   9.046   9.673
19344WAT     H158274   6.584   9.107   9.637
19344WAT     H258275   6.687   9.080   9.762
19345WAT      O58276   3.953   1.270   2.214
19345WAT     H158277   3.979   1.215   2.293
19345WAT     H258278   4.017   1.253   2.139
19346WAT      O58279   4.471   1.276   1.460
19346WAT     H158280   4.402   1.336   1.502
19346WAT     H258281   4.521   1.228   1.532
19347WAT      O58282   7.795   6.189   2.647
19347WAT     H158283   7.869   6.254   2.662
19347WAT     H258284   7.830   6.110   2.597
19348WAT      O58285   1.046   5.118   1.355
19348WAT     H158286   1.033   5.213   1.383
19348WAT     H258287   1.123   5.079   1.405
19349WAT      O58288   1.245   8.803   2.373
19349WAT     H158289   1.343   8.791   2.390
19349WAT     H258290   1.224   8.779   2.278
19350WAT      O58291   5.222   9.798   0.203
19350WAT     H158292   5.239   9.865   0.275
19350WAT     H258293   5.126   9.770   0.206
19351WAT      O58294   0.166   5.865   9.890
19351WAT     H158295   0.178   5.778   9.842
19351WAT     H258296   0.189   5.940   9.827
19352WAT      O58297   6.125   9.165   5.378
19352WAT     H158298   6.079   9.251   5.398
19352WAT     H258299   6.088   9.093   5.437
19353WAT      O58300   9.849   2.363   7.753
19353WAT     H158301   9.926   2.307   7.723
19353WAT     H258302   9.848   2.448   7.699
19354WAT      O58303   8.972   6.023   9.843
19354WAT     H158304   8.873   6.007   9.836
19354WAT     H258305   9.021   5.939   9.820
19355WAT      O58306   1.413   0.247   4.375
19355WAT     H158307   1.413   0.213   4.469
19355WAT     H258308   1.365   0.335   4.371
19356WAT      O58309   0.077   1.495   9.890
19356WAT     H158310   0.122   1.450   9.968
19356WAT     H258311   0.131   1.478   9.807
19357WAT      O58312   7.894   6.929   3.006
19357WAT     H158313   7.903   6.900   3.102
19357WAT     H258314   7.948   7.012   2.992
19358WAT      O58315   0.917   5.508   3.619
19358WAT     H158316   0.917   5.419   3.574
19358WAT     H258317   0.823   5.539   3.633
19359WAT      O58318   7.196   5.082   9.250
19359WAT     H158319   7.108   5.096   9.204
19359WAT     H258320   7.268   5.069   9.182
19360WAT      O58321   2.912   6.070   7.396
19360WAT     H158322   2.894   6.125   7.477
19360WAT     H258323   2.919   5.974   7.421
19361WAT      O58324   1.021   1.865   1.062
19361WAT     H158325   1.110   1.864   1.107
19361WAT     H258326   0.989   1.959   1.054
19362WAT      O58327   1.299   6.638   6.177
19362WAT     H158328   1.290   6.564   6.243
19362WAT     H258329   1.386   6.685   6.191
19363WAT      O58330   4.552   9.702   7.824
19363WAT     H158331   4.621   9.730   7.890
19363WAT     H258332   4.596   9.682   7.737
19364WAT      O58333   6.136   9.552   9.645
19364WAT     H158334   6.187   9.472   9.678
19364WAT     H258335   6.144   9.626   9.712
19365WAT      O58336   6.937   3.911   8.253
19365WAT     H158337   6.909   3.932   8.159
19365WAT     H258338   7.004   3.836   8.252
19366WAT      O58339   2.653   0.422   4.811
19366WAT     H158340   2.557   0.394   4.821
19366WAT     H258341   2.708   0.343   4.783
19367WAT      O58342   1.760   5.676   1.755
19367WAT     H158343   1.666   5.707   1.743
19367WAT     H258344   1.799   5.719   1.837
19368WAT      O58345   1.161   3.855   5.338
19368WAT     H158346   1.165   3.850   5.238
19368WAT     H258347   1.245   3.818   5.377
19369WAT      O58348   3.149   0.930   1.710
19369WAT     H158349   3.243   0.906   1.734
19369WAT     H258350   3.086   0.886   1.774
19370WAT      O58351   7.631   0.380   7.905
19370WAT     H158352   7.652   0.283   7.895
19370WAT     H258353   7.647   0.427   7.818
19371WAT      O58354   1.661   4.188   6.865
19371WAT     H158355   1.630   4.118   6.801
19371WAT     H258356   1.759   4.179   6.880
19372WAT      O58357   9.536   4.374   9.303
19372WAT     H158358   9.561   4.278   9.314
19372WAT     H258359   9.438   4.382   9.289
19373WAT      O58360   2.074   9.772   5.032
19373WAT     H158361   2.047   9.737   5.122
19373WAT     H258362   2.083   9.696   4.968
19374WAT      O58363   6.192   4.630   9.555
19374WAT     H158364   6.220   4.690   9.480
19374WAT     H258365   6.156   4.545   9.518
19375WAT      O58366   8.177   7.447   4.870
19375WAT     H158367   8.264   7.484   4.837
19375WAT     H258368   8.156   7.486   4.960
19376WAT      O58369   8.500   8.878   4.224
19376WAT     H158370   8.551   8.956   4.260
19376WAT     H258371   8.498   8.804   4.292
19377WAT      O58372   5.282   0.951   5.432
19377WAT     H158373   5.207   0.897   5.395
19377WAT     H258374   5.246   1.031   5.480
19378WAT      O58375   4.224   8.489   7.331
19378WAT     H158376   4.259   8.432   7.405
19378WAT     H258377   4.296   8.502   7.262
19379WAT      O58378   6.612   1.688   8.658
19379WAT     H158379   6.708   1.715   8.668
19379WAT     H258380   6.591   1.674   8.562
19380WAT      O58381   8.394   6.567   5.120
19380WAT     H158382   8.366   6.649   5.168
19380WAT     H258383   8.484   6.538   5.153
19381WAT      O58384   9.485   3.805   7.345
19381WAT     H158385   9.539   3.763   7.272
19381WAT     H258386   9.391   3.820   7.313
19382WAT      O58387   2.694   3.841   8.116
19382WAT     H158388   2.653   3.813   8.203
19382WAT     H258389   2.762   3.774   8.088
19383WAT      O58390   3.722   5.665   7.112
19383WAT     H158391   3.727   5.602   7.035
19383WAT     H258392   3.627   5.688   7.131
19384WAT      O58393   7.466   6.314   5.839
19384WAT     H158394   7.541   6.262   5.799
19384WAT     H258395   7.379   6.267   5.819
19385WAT      O58396   6.784   2.004   7.663
19385WAT     H158397   6.746   1.952   7.587
19385WAT     H258398   6.740   1.977   7.748
19386WAT      O58399   5.112   6.612   5.089
19386WAT     H158400   5.156   6.682   5.146
19386WAT     H258401   5.148   6.522   5.114
19387WAT      O58402   4.477   9.172   9.397
19387WAT     H158403   4.492   9.269   9.414
19387WAT     H258404   4.382   9.157   9.367
19388WAT      O58405   1.566   9.244   1.126
19388WAT     H158406   1.650   9.205   1.088
19388WAT     H258407   1.500   9.258   1.052
19389WAT      O58408   5.726   2.996   8.019
19389WAT     H158409   5.686   3.074   8.068
19389WAT     H258410   5.684   2.989   7.928
19390WAT      O58411   8.659   8.316   0.515
19390WAT     H158412   8.681   8.339   0.609
19390WAT     H258413   8.569   8.273   0.510
19391WAT      O58414   0.848   8.880   1.211
19391WAT     H158415   0.933   8.833   1.187
19391WAT     H258416   0.843   8.967   1.162
19392WAT      O58417   7.489   4.620   9.658
19392WAT     H158418   7.455   4.673   9.580
19392WAT     H258419   7.579   4.583   9.637
19393WAT      O58420   4.413   6.359   3.218
19393WAT     H158421   4.498   6.310   3.237
19393WAT     H258422   4.336   6.309   3.257
19394WAT      O58423   1.368   5.778   8.429
19394WAT     H158424   1.439   5.812   8.490
19394WAT     H258425   1.278   5.795   8.470
19395WAT      O58426   7.146   7.373   2.132
19395WAT     H158427   7.238   7.385   2.170
19395WAT     H258428   7.106   7.289   2.169
19396WAT      O58429   3.481   8.453   4.025
19396WAT     H158430   3.519   8.403   4.103
19396WAT     H258431   3.407   8.399   3.984
19397WAT      O58432   5.848   6.116   0.078
19397WAT     H158433   5.761   6.083   0.041
19397WAT     H258434   5.869   6.206   0.038
19398WAT      O58435   5.130   8.998   4.258
19398WAT     H158436   5.165   9.090   4.239
19398WAT     H258437   5.191   8.953   4.323
19399WAT      O58438   0.442   3.032   0.685
19399WAT     H158439   0.457   3.026   0.783
19399WAT     H258440   0.345   3.051   0.667
19400WAT      O58441   2.602   3.092   4.833
19400WAT     H158442   2.687   3.052   4.800
19400WAT     H258443   2.618   3.136   4.922
19401WAT      O58444   7.798   6.069   2.076
19401WAT     H158445   7.883   6.047   2.122
19401WAT     H258446   7.727   6.088   2.144
19402WAT      O58447   0.133   1.860   0.912
19402WAT     H158448   0.170   1.768   0.925
19402WAT     H258449   0.202   1.917   0.867
19403WAT      O58450   7.394   4.007   9.293
19403WAT     H158451   7.423   4.089   9.342
19403WAT     H258452   7.332   3.953   9.350
19404WAT      O58453   5.384   6.547   6.306
19404WAT     H158454   5.456   6.612   6.283
19404WAT     H258455   5.416   6.454   6.288
19405WAT      O58456   3.987   9.336   9.555
19405WAT     H158457   4.080   9.368   9.572
19405WAT     H258458   3.926   9.369   9.626
19406WAT      O58459   5.474   4.679   8.856
19406WAT     H158460   5.563   4.653   8.893
19406WAT     H258461   5.487   4.739   8.777
19407WAT      O58462   4.552   9.591   8.393
19407WAT     H158463   4.460   9.601   8.430
19407WAT     H258464   4.617   9.578   8.469
19408WAT      O58465   5.454   5.089   6.683
19408WAT     H158466   5.477   5.031   6.604
19408WAT     H258467   5.498   5.178   6.672
19409WAT      O58468   6.270   6.069   0.708
19409WAT     H158469   6.361   6.028   0.696
19409WAT     H258470   6.278   6.169   0.706
19410WAT      O58471   4.850   3.465   3.448
19410WAT     H158472   4.854   3.563   3.427
19410WAT     H258473   4.913   3.443   3.522
19411WAT      O58474   7.979   1.448   6.432
19411WAT     H158475   7.981   1.515   6.506
19411WAT     H258476   8.072   1.438   6.395
19412WAT      O58477   5.558   8.676   6.880
19412WAT     H158478   5.488   8.625   6.930
19412WAT     H258479   5.605   8.739   6.942
19413WAT      O58480   3.470   7.653   5.644
19413WAT     H158481   3.396   7.631   5.708
19413WAT     H258482   3.439   7.635   5.551
19414WAT      O58483   5.075   3.449   4.909
19414WAT     H158484   5.131   3.370   4.932
19414WAT     H258485   4.979   3.420   4.901
19415WAT      O58486   9.357   7.580   7.446
19415WAT     H158487   9.451   7.572   7.412
19415WAT     H258488   9.312   7.656   7.400
19416WAT      O58489   9.445   2.097   0.441
19416WAT     H158490   9.364   2.071   0.388
19416WAT     H258491   9.468   2.024   0.505
19417WAT      O58492   3.145   0.468   7.891
19417WAT     H158493   3.133   0.550   7.835
19417WAT     H258494   3.109   0.485   7.983
19418WAT      O58495   0.396   4.184   6.265
19418WAT     H158496   0.452   4.165   6.184
19418WAT     H258497   0.338   4.105   6.286
19419WAT      O58498   3.484   1.149   3.705
19419WAT     H158499   3.562   1.106   3.750
19419WAT     H258500   3.410   1.082   3.697
19420WAT      O58501   7.285   1.425   7.985
19420WAT     H158502   7.226   1.360   8.033
19420WAT     H258503   7.360   1.376   7.942
19421WAT      O58504   5.708   0.818   8.224
19421WAT     H158505   5.723   0.914   8.200
19421WAT     H258506   5.774   0.790   8.293
19422WAT      O58507   7.518   3.006   3.601
19422WAT     H158508   7.428   3.043   3.575
19422WAT     H258509   7.533   3.023   3.699
19423WAT      O58510   5.397   3.572   2.023
19423WAT     H158511   5.354   3.530   2.103
19423WAT     H258512   5.330   3.629   1.976
19424WAT      O58513   2.864   2.097   9.042
19424WAT     H158514   2.779   2.065   9.001
19424WAT     H258515   2.875   2.056   9.133
19425WAT      O58516   4.206   9.399   6.200
19425WAT     H158517   4.116   9.357   6.214
19425WAT     H258518   4.205   9.493   6.235
19426WAT      O58519   6.066   7.594   9.218
19426WAT     H158520   6.123   7.600   9.301
19426WAT     H258521   6.061   7.684   9.175
19427WAT      O58522   0.385   1.874   7.361
19427WAT     H158523   0.419   1.804   7.298
19427WAT     H258524   0.380   1.962   7.313
19428WAT      O58525   6.347   2.609   8.213
19428WAT     H158526   6.420   2.543   8.232
19428WAT     H258527   6.376   2.671   8.140
19429WAT      O58528   1.173   6.240   5.736
19429WAT     H158529   1.192   6.247   5.834
19429WAT     H258530   1.074   6.243   5.721
19430WAT      O58531   0.113   5.867   0.444
19430WAT     H158532   0.076   5.777   0.422
19430WAT     H258533   0.137   5.872   0.541
19431WAT      O58534   0.123   3.872   1.988
19431WAT     H158535   0.179   3.790   2.000
19431WAT     H258536   0.129   3.903   1.894
19432WAT      O58537   6.735   5.390   1.378
19432WAT     H158538   6.811   5.356   1.322
19432WAT     H258539   6.680   5.314   1.410
19433WAT      O58540   5.393   8.668   2.221
19433WAT     H158541   5.321   8.599   2.216
19433WAT     H258542   5.473   8.630   2.267
19434WAT      O58543   3.031   3.656   6.357
19434WAT     H158544   3.049   3.641   6.260
19434WAT     H258545   3.109   3.621   6.410
19435WAT      O58546   6.745   1.297   1.543
19435WAT     H158547   6.819   1.279   1.608
19435WAT     H258548   6.768   1.256   1.454
19436WAT      O58549   2.150   8.417   8.029
19436WAT     H158550   2.178   8.330   8.070
19436WAT     H258551   2.230   8.477   8.022
19437WAT      O58552   9.401   5.870   4.210
19437WAT     H158553   9.399   5.809   4.131
19437WAT     H258554   9.308   5.899   4.233
19438WAT      O58555   6.583   1.514   6.618
19438WAT     H158556   6.676   1.484   6.641
19438WAT     H258557   6.563   1.600   6.664
19439WAT      O58558   5.662   7.668   1.309
19439WAT     H158559   5.628   7.619   1.390
19439WAT     H258560   5.663   7.606   1.231
19440WAT      O58561   3.453   3.252   9.873
19440WAT     H158562   3.427   3.174   9.929
19440WAT     H258563   3.524   3.305   9.920
19441WAT      O58564   0.776   3.564   2.945
19441WAT     H158565   0.842   3.633   2.975
19441WAT     H258566   0.824   3.488   2.903
19442WAT      O58567   6.000   1.579   3.196
19442WAT     H158568   6.088   1.608   3.157
19442WAT     H258569   5.995   1.479   3.196
19443WAT      O58570   0.009   1.086   4.911
19443WAT     H158571   0.104   1.065   4.937
19443WAT     H258572  -0.025   1.160   4.969
19444WAT      O58573   3.499   6.574   7.055
19444WAT     H158574   3.407   6.539   7.071
19444WAT     H258575   3.556   6.501   7.018
19445WAT      O58576   5.373   0.410   3.307
19445WAT     H158577   5.310   0.406   3.229
19445WAT     H258578   5.423   0.496   3.305
19446WAT      O58579   2.730   4.478   1.872
19446WAT     H158580   2.810   4.467   1.813
19446WAT     H258581   2.648   4.455   1.820
19447WAT      O58582   2.702   3.219   3.684
19447WAT     H158583   2.618   3.250   3.640
19447WAT     H258584   2.725   3.128   3.650
19448WAT      O58585   2.810   0.193   4.877
19448WAT     H158586   2.755   0.142   4.811
19448WAT     H258587   2.766   0.190   4.966
19449WAT      O58588   3.630   1.593   4.091
19449WAT     H158589   3.622   1.608   4.190
19449WAT     H258590   3.560   1.645   4.043
19450WAT      O58591   5.198   7.530   3.490
19450WAT     H158592   5.263   7.595   3.450
19450WAT     H258593   5.247   7.464   3.546
19451WAT      O58594   5.147   3.611   7.370
19451WAT     H158595   5.171   3.681   7.302
19451WAT     H258596   5.096   3.653   7.445
19452WAT      O58597   8.636   8.566   6.714
19452WAT     H158598   8.563   8.517   6.667
19452WAT     H258599   8.662   8.647   6.661
19453WAT      O58600   0.375   9.631   2.214
19453WAT     H158601   0.312   9.583   2.154
19453WAT     H258602   0.326   9.664   2.295
19454WAT      O58603   9.209   4.189   8.886
19454WAT     H158604   9.256   4.183   8.798
19454WAT     H258605   9.275   4.173   8.959
19455WAT      O58606   0.254   3.719   7.754
19455WAT     H158607   0.179   3.756   7.810
19455WAT     H258608   0.265   3.774   7.672
19456WAT      O58609   3.470   4.888   9.103
19456WAT     H158610   3.503   4.794   9.109
19456WAT     H258611   3.415   4.898   9.020
19457WAT      O58612   4.783   3.431   2.468
19457WAT     H158613   4.741   3.522   2.464
19457WAT     H258614   4.754   3.377   2.389
19458WAT      O58615   7.706   5.338   9.457
19458WAT     H158616   7.736   5.243   9.456
19458WAT     H258617   7.784   5.397   9.481
19459WAT      O58618   0.576   5.490   6.072
19459WAT     H158619   0.635   5.462   6.147
19459WAT     H258620   0.529   5.575   6.096
19460WAT      O58621   5.223   0.515   3.112
19460WAT     H158622   5.155   0.508   3.039
19460WAT     H258623   5.315   0.514   3.072
19461WAT      O58624   2.196   6.519   7.223
19461WAT     H158625   2.136   6.454   7.175
19461WAT     H258626   2.271   6.469   7.266
19462WAT      O58627   3.857   3.294   5.206
19462WAT     H158628   3.849   3.392   5.224
19462WAT     H258629   3.777   3.246   5.244
19463WAT      O58630   4.141   6.650   3.401
19463WAT     H158631   4.156   6.638   3.303
19463WAT     H258632   4.190   6.732   3.432
19464WAT      O58633   1.816   6.570   5.274
19464WAT     H158634   1.847   6.553   5.180
19464WAT     H258635   1.717   6.577   5.276
19465WAT      O58636   8.212   1.342   9.394
19465WAT     H158637   8.223   1.403   9.316
19465WAT     H258638   8.140   1.276   9.376
19466WAT      O58639   1.451   2.081   0.791
19466WAT     H158640   1.550   2.095   0.800
19466WAT     H258641   1.428   2.063   0.695
19467WAT      O58642   7.663   7.874   3.691
19467WAT     H158643   7.604   7.875   3.611
19467WAT     H258644   7.674   7.780   3.723
19468WAT      O58645   7.116   3.807   0.611
19468WAT     H158646   7.160   3.852   0.688
19468WAT     H258647   7.142   3.853   0.526
19469WAT      O58648   3.585   6.343   1.142
19469WAT     H158649   3.562   6.387   1.055
19469WAT     H258650   3.510   6.355   1.206
19470WAT      O58651   9.868   9.654   6.080
19470WAT     H158652   9.850   9.632   6.176
19470WAT     H258653   9.958   9.696   6.072
19471WAT      O58654   1.168   0.828   8.932
19471WAT     H158655   1.199   0.895   8.864
19471WAT     H258656   1.135   0.876   9.013
19472WAT      O58657   1.684   0.906   5.514
19472WAT     H158658   1.722   0.907   5.606
19472WAT     H258659   1.585   0.893   5.519
19473WAT      O58660   9.593   3.586   8.936
19473WAT     H158661   9.600   3.491   8.905
19473WAT     H258662   9.523   3.591   9.008
19474WAT      O58663   1.986   1.726   8.179
19474WAT     H158664   1.964   1.677   8.095
19474WAT     H258665   2.068   1.686   8.220
19475WAT      O58666   5.847   5.144   8.248
19475WAT     H158667   5.830   5.241   8.262
19475WAT     H258668   5.939   5.131   8.211
19476WAT      O58669   0.882   4.345   5.045
19476WAT     H158670   0.870   4.287   5.125
19476WAT     H258671   0.802   4.404   5.035
19477WAT      O58672   1.871   1.477   8.435
19477WAT     H158673   1.818   1.392   8.436
19477WAT     H258674   1.809   1.555   8.435
19478WAT      O58675   2.640   4.829   7.721
19478WAT     H158676   2.621   4.887   7.642
19478WAT     H258677   2.575   4.753   7.723
19479WAT      O58678   2.815   1.575   8.814
19479WAT     H158679   2.912   1.556   8.834
19479WAT     H258680   2.809   1.653   8.751
19480WAT      O58681   3.930   2.536   5.170
19480WAT     H158682   3.914   2.445   5.130
19480WAT     H258683   3.851   2.594   5.155
19481WAT      O58684   5.694   3.580   7.124
19481WAT     H158685   5.757   3.533   7.061
19481WAT     H258686   5.705   3.679   7.114
19482WAT      O58687   4.312   2.375   9.280
19482WAT     H158688   4.304   2.327   9.193
19482WAT     H258689   4.285   2.470   9.268
19483WAT      O58690   3.404   8.313   7.887
19483WAT     H158691   3.347   8.394   7.893
19483WAT     H258692   3.350   8.236   7.852
19484WAT      O58693   7.739   3.547   8.204
19484WAT     H158694   7.779   3.507   8.287
19484WAT     H258695   7.654   3.499   8.182
19485WAT      O58696   3.002   7.744   6.592
19485WAT     H158697   2.903   7.733   6.601
19485WAT     H258698   3.030   7.832   6.630
19486WAT      O58699   4.535   0.963   0.467
19486WAT     H158700   4.480   1.017   0.403
19486WAT     H258701   4.586   1.025   0.527
19487WAT      O58702   6.500   9.253   3.780
19487WAT     H158703   6.403   9.272   3.766
19487WAT     H258704   6.551   9.339   3.788
19488WAT      O58705   1.574   1.553   5.252
19488WAT     H158706   1.503   1.483   5.238
19488WAT     H258707   1.625   1.566   5.167
19489WAT      O58708   4.132   6.013   3.489
19489WAT     H158709   4.144   6.061   3.576
19489WAT     H258710   4.043   5.967   3.488
19490WAT      O58711   8.856   8.941   4.845
19490WAT     H158712   8.790   8.985   4.907
19490WAT     H258713   8.808   8.909   4.763
19491WAT      O58714   9.205   2.217   9.724
19491WAT     H158715   9.138   2.143   9.724
19491WAT     H258716   9.256   2.215   9.638
19492WAT      O58717   4.422   1.711   0.208
19492WAT     H158718   4.423   1.708   0.308
19492WAT     H258719   4.339   1.757   0.177
19493WAT      O58720   3.568   2.318   1.342
19493WAT     H158721   3.638   2.368   1.393
19493WAT     H258722   3.583   2.220   1.352
19494WAT      O58723   3.771   4.249   5.347
19494WAT     H158724   3.821   4.194   5.414
19494WAT     H258725   3.809   4.234   5.256
19495WAT      O58726   5.621   6.333   1.753
19495WAT     H158727   5.539   6.305   1.804
19495WAT     H258728   5.632   6.432   1.759
19496WAT      O58729   2.220   3.176   7.312
19496WAT     H158730   2.224   3.266   7.357
19496WAT     H258731   2.229   3.188   7.213
19497WAT      O58732   1.610   6.631   8.030
19497WAT     H158733   1.664   6.588   8.102
19497WAT     H258734   1.670   6.685   7.971
19498WAT      O58735   1.986   6.423   3.291
19498WAT     H158736   2.017   6.332   3.317
19498WAT     H258737   2.014   6.442   3.197
19499WAT      O58738   8.391   4.120   8.078
19499WAT     H158739   8.396   4.020   8.072
19499WAT     H258740   8.385   4.147   8.175
19500WAT      O58741   8.274   1.619   1.521
19500WAT     H158742   8.198   1.621   1.586
19500WAT     H258743   8.349   1.566   1.559
19501WAT      O58744   2.018   0.934   2.501
19501WAT     H158745   1.949   0.912   2.570
19501WAT     H258746   2.004   0.876   2.421
19502WAT      O58747   5.920   8.488   2.290
19502WAT     H158748   5.918   8.456   2.196
19502WAT     H258749   5.985   8.563   2.299
19503WAT      O58750   4.998   2.968   9.740
19503WAT     H158751   4.904   3.000   9.728
19503WAT     H258752   4.998   2.868   9.751
19504WAT      O58753   0.447   6.901   4.456
19504WAT     H158754   0.540   6.911   4.422
19504WAT     H258755   0.443   6.932   4.551
19505WAT      O58756   8.300   8.341   1.796
19505WAT     H158757   8.358   8.330   1.877
19505WAT     H258758   8.344   8.403   1.731
19506WAT      O58759   4.903   6.417   2.078
19506WAT     H158760   4.917   6.463   2.166
19506WAT     H258761   4.980   6.438   2.017
19507WAT      O58762   5.191   3.740   0.206
19507WAT     H158763   5.163   3.802   0.133
19507WAT     H258764   5.110   3.707   0.255
19508WAT      O58765   2.475   3.504   5.168
19508WAT     H158766   2.435   3.596   5.178
19508WAT     H258767   2.574   3.509   5.180
19509WAT      O58768   1.177   6.808   6.785
19509WAT     H158769   1.121   6.891   6.781
19509WAT     H258770   1.124   6.734   6.826
19510WAT      O58771   5.094   6.934   9.152
19510WAT     H158772   5.003   6.895   9.136
19510WAT     H258773   5.162   6.861   9.150
19511WAT      O58774   6.940   6.338   0.665
19511WAT     H158775   7.012   6.391   0.710
19511WAT     H258776   6.920   6.378   0.576
19512WAT      O58777   1.236   5.007   5.491
19512WAT     H158778   1.269   5.055   5.572
19512WAT     H258779   1.314   4.968   5.441
19513WAT      O58780   5.266   6.299   3.902
19513WAT     H158781   5.331   6.225   3.881
19513WAT     H258782   5.256   6.307   4.001
19514WAT      O58783   1.648   6.550   2.038
19514WAT     H158784   1.597   6.558   2.124
19514WAT     H258785   1.683   6.458   2.028
19515WAT      O58786   8.566   8.028   6.740
19515WAT     H158787   8.563   7.997   6.835
19515WAT     H258788   8.474   8.027   6.701
19516WAT      O58789   6.091   8.973   8.595
19516WAT     H158790   6.033   9.047   8.560
19516WAT     H258791   6.070   8.957   8.692
19517WAT      O58792   7.327   2.143   6.898
19517WAT     H158793   7.365   2.212   6.837
19517WAT     H258794   7.317   2.181   6.990
19518WAT      O58795   6.842   9.325   0.631
19518WAT     H158796   6.819   9.354   0.724
19518WAT     H258797   6.933   9.358   0.608
19519WAT      O58798   4.094   6.156   3.721
19519WAT     H158799   4.056   6.150   3.814
19519WAT     H258800   4.178   6.210   3.723
19520WAT      O58801   5.902   2.133   7.526
19520WAT     H158802   5.931   2.121   7.621
19520WAT     H258803   5.982   2.133   7.467
19521WAT      O58804   9.665   3.363   4.521
19521WAT     H158805   9.738   3.399   4.579
19521WAT     H258806   9.698   3.355   4.426
19522WAT      O58807   6.367   4.434   8.695
19522WAT     H158808   6.348   4.355   8.753
19522WAT     H258809   6.420   4.501   8.746
19523WAT      O58810   8.110   5.383   7.380
19523WAT     H158811   8.112   5.457   7.312
19523WAT     H258812   8.189   5.393   7.441
19524WAT      O58813   6.860   0.117   3.491
19524WAT     H158814   6.860   0.136   3.589
19524WAT     H258815   6.770   0.084   3.463
19525WAT      O58816   5.566   9.260   0.374
19525WAT     H158817   5.545   9.207   0.456
19525WAT     H258818   5.527   9.215   0.294
19526WAT      O58819   8.759   5.939   3.538
19526WAT     H158820   8.833   5.964   3.476
19526WAT     H258821   8.671   5.964   3.496
19527WAT      O58822   4.629   2.323   5.360
19527WAT     H158823   4.577   2.246   5.396
19527WAT     H258824   4.704   2.345   5.423
19528WAT      O58825   3.720   1.038   8.340
19528WAT     H158826   3.711   1.137   8.350
19528WAT     H258827   3.816   1.015   8.323
19529WAT      O58828   9.839   9.685   8.129
19529WAT     H158829   9.802   9.778   8.137
19529WAT     H258830   9.939   9.689   8.132
19530WAT      O58831   3.788   5.943   1.052
19530WAT     H158832   3.828   5.920   0.963
19530WAT     H258833   3.725   5.870   1.080
19531WAT      O58834   8.462   3.548   3.496
19531WAT     H158835   8.494   3.454   3.506
19531WAT     H258836   8.472   3.596   3.583
19532WAT      O58837   2.239   0.500   1.852
19532WAT     H158838   2.300   0.440   1.905
19532WAT     H258839   2.144   0.480   1.877
19533WAT      O58840   2.462   3.486   7.136
19533WAT     H158841   2.406   3.412   7.101
19533WAT     H258842   2.405   3.552   7.184
19534WAT      O58843   4.301   3.962   7.473
19534WAT     H158844   4.377   4.014   7.434
19534WAT     H258845   4.291   3.984   7.570
19535WAT      O58846   0.039   3.481   1.184
19535WAT     H158847  -0.059   3.492   1.167
19535WAT     H258848   0.079   3.428   1.110
19536WAT      O58849   1.799   9.372   6.204
19536WAT     H158850   1.855   9.440   6.251
19536WAT     H258851   1.754   9.313   6.271
19537WAT      O58852   8.968   6.608   7.246
19537WAT     H158853   9.030   6.587   7.321
19537WAT     H258854   8.906   6.682   7.273
19538WAT      O58855   1.757   9.293   0.745
19538WAT     H158856   1.734   9.387   0.770
19538WAT     H258857   1.826   9.294   0.672
19539WAT      O58858   5.174   9.225   0.052
19539WAT     H158859   5.192   9.156  -0.018
19539WAT     H258860   5.080   9.214   0.086
19540WAT      O58861   0.276   0.817   4.063
19540WAT     H158862   0.287   0.733   4.010
19540WAT     H258863   0.195   0.866   4.032
19541WAT      O58864   5.749   6.505   7.491
19541WAT     H158865   5.803   6.568   7.546
19541WAT     H258866   5.652   6.529   7.499
19542WAT      O58867   9.413   1.885   8.520
19542WAT     H158868   9.461   1.961   8.477
19542WAT     H258869   9.449   1.870   8.612
19543WAT      O58870   3.549   1.655   1.585
19543WAT     H158871   3.518   1.732   1.642
19543WAT     H258872   3.645   1.636   1.606
19544WAT      O58873   4.820   1.193   3.800
19544WAT     H158874   4.792   1.121   3.864
19544WAT     H258875   4.894   1.158   3.742
19545WAT      O58876   3.556   3.015   1.055
19545WAT     H158877   3.508   3.098   1.029
19545WAT     H258878   3.557   3.006   1.155
19546WAT      O58879   9.208   6.838   4.709
19546WAT     H158880   9.162   6.769   4.765
19546WAT     H258881   9.191   6.819   4.612
19547WAT      O58882   4.445   5.948   0.822
19547WAT     H158883   4.513   5.906   0.882
19547WAT     H258884   4.354   5.933   0.859
19548WAT      O58885   1.189   2.857   0.313
19548WAT     H158886   1.103   2.904   0.294
19548WAT     H258887   1.198   2.778   0.252
19549WAT      O58888   9.405   3.468   3.079
19549WAT     H158889   9.370   3.428   3.163
19549WAT     H258890   9.338   3.532   3.042
19550WAT      O58891   0.574   7.357   8.452
19550WAT     H158892   0.524   7.423   8.395
19550WAT     H258893   0.672   7.374   8.445
19551WAT      O58894   7.876   1.580   8.242
19551WAT     H158895   7.830   1.507   8.294
19551WAT     H258896   7.810   1.623   8.181
19552WAT      O58897   7.548   9.548   1.056
19552WAT     H158898   7.610   9.611   1.103
19552WAT     H258899   7.456   9.556   1.096
19553WAT      O58900   0.992   1.925   4.583
19553WAT     H158901   0.931   1.847   4.566
19553WAT     H258902   1.080   1.891   4.617
19554WAT      O58903   7.014   5.666   8.369
19554WAT     H158904   7.097   5.639   8.417
19554WAT     H258905   7.005   5.766   8.372
19555WAT      O58906   1.713   6.530   3.951
19555WAT     H158907   1.650   6.596   3.910
19555WAT     H258908   1.667   6.442   3.962
19556WAT      O58909   6.797   0.006   7.614
19556WAT     H158910   6.785   0.064   7.533
19556WAT     H258911   6.881   0.032   7.662
19557WAT      O58912   5.125   2.425   1.016
19557WAT     H158913   5.126   2.370   0.932
19557WAT     H258914   5.124   2.363   1.095
19558WAT      O58915   9.039   1.399   7.930
19558WAT     H158916   9.077   1.349   8.008
19558WAT     H258917   8.957   1.449   7.960
19559WAT      O58918   0.402   3.331   6.888
19559WAT     H158919   0.355   3.356   6.803
19559WAT     H258920   0.353   3.372   6.966
19560WAT      O58921   8.757   7.010   3.228
19560WAT     H158922   8.846   7.052   3.211
19560WAT     H258923   8.694   7.078   3.265
19561WAT      O58924   7.897   9.552   1.087
19561WAT     H158925   7.827   9.486   1.118
19561WAT     H258926   7.918   9.535   0.991
19562WAT      O58927   6.959   2.859   1.669
19562WAT     H158928   6.870   2.887   1.634
19562WAT     H258929   6.977   2.906   1.756
19563WAT      O58930   4.035   1.468   2.804
19563WAT     H158931   3.994   1.542   2.857
19563WAT     H258932   4.087   1.408   2.864
19564WAT      O58933   0.141   8.486   1.264
19564WAT     H158934   0.043   8.469   1.252
19564WAT     H258935   0.192   8.444   1.189
19565WAT      O58936   0.389   5.739   5.828
19565WAT     H158937   0.383   5.649   5.784
19565WAT     H258938   0.363   5.730   5.924
19566WAT      O58939   7.738   3.949   1.219
19566WAT     H158940   7.694   4.037   1.237
19566WAT     H258941   7.833   3.951   1.250
19567WAT      O58942   9.799   1.265   0.201
19567WAT     H158943   9.753   1.317   0.130
19567WAT     H258944   9.778   1.305   0.291
19568WAT      O58945   7.398   0.097   4.581
19568WAT     H158946   7.391   0.144   4.493
19568WAT     H258947   7.481   0.040   4.581
19569WAT      O58948   5.856   4.053   5.761
19569WAT     H158949   5.852   4.090   5.668
19569WAT     H258950   5.893   3.960   5.758
19570WAT      O58951   8.726   9.348   8.817
19570WAT     H158952   8.632   9.329   8.846
19570WAT     H258953   8.731   9.346   8.717
19571WAT      O58954   2.985   2.063   2.982
19571WAT     H158955   2.942   1.973   2.989
19571WAT     H258956   2.915   2.134   2.989
19572WAT      O58957   9.492   9.616   2.064
19572WAT     H158958   9.515   9.528   2.106
19572WAT     H258959   9.415   9.604   2.002
19573WAT      O58960   7.877   3.916   6.862
19573WAT     H158961   7.798   3.957   6.907
19573WAT     H258962   7.864   3.816   6.857
19574WAT      O58963   2.306   7.260   0.042
19574WAT     H158964   2.221   7.311   0.049
19574WAT     H258965   2.380   7.313   0.083
19575WAT      O58966   7.979   6.060   0.133
19575WAT     H158967   8.065   6.110   0.141
19575WAT     H258968   7.914   6.114   0.080
19576WAT      O58969   2.521   5.424   8.496
19576WAT     H158970   2.521   5.506   8.437
19576WAT     H258971   2.564   5.348   8.447
19577WAT      O58972   1.083   1.998   6.074
19577WAT     H158973   1.040   2.037   5.993
19577WAT     H258974   1.106   1.902   6.057
19578WAT      O58975   7.024   2.334   5.710
19578WAT     H158976   6.999   2.431   5.706
19578WAT     H258977   6.994   2.289   5.626
19579WAT      O58978   1.793   7.270   5.170
19579WAT     H158979   1.704   7.240   5.206
19579WAT     H258980   1.820   7.209   5.095
19580WAT      O58981   2.615   2.347   7.528
19580WAT     H158982   2.647   2.395   7.446
19580WAT     H258983   2.636   2.250   7.520
19581WAT      O58984   3.718   2.024   7.602
19581WAT     H158985   3.684   2.057   7.690
19581WAT     H258986   3.663   2.063   7.528
19582WAT      O58987   1.819   7.478   1.586
19582WAT     H158988   1.777   7.567   1.606
19582WAT     H258989   1.796   7.413   1.659
19583WAT      O58990   5.368   2.189   1.040
19583WAT     H158991   5.404   2.133   1.115
19583WAT     H258992   5.273   2.214   1.061
19584WAT      O58993   4.542   6.672   1.974
19584WAT     H158994   4.495   6.584   1.968
19584WAT     H258995   4.530   6.723   1.889
19585WAT      O58996   8.174   7.557   9.820
19585WAT     H158997   8.138   7.508   9.900
19585WAT     H258998   8.273   7.544   9.815
19586WAT      O58999   8.815   4.960   2.353
19586WAT     H159000   8.775   4.883   2.404
19586WAT     H259001   8.892   4.997   2.404
19587WAT      O59002   3.207   0.756   2.784
19587WAT     H159003   3.224   0.751   2.882
19587WAT     H259004   3.229   0.668   2.742
19588WAT      O59005   0.095   7.719   5.120
19588WAT     H159006   0.100   7.634   5.174
19588WAT     H259007   0.167   7.781   5.151
19589WAT      O59008   1.720   1.843   7.349
19589WAT     H159009   1.638   1.897   7.329
19589WAT     H259010   1.696   1.747   7.355
19590WAT      O59011   1.199   3.384   3.515
19590WAT     H159012   1.210   3.471   3.564
19590WAT     H259013   1.174   3.312   3.580
19591WAT      O59014   2.085   5.605   3.868
19591WAT     H159015   2.037   5.691   3.853
19591WAT     H259016   2.154   5.592   3.796
19592WAT      O59017   6.490   4.653   5.216
19592WAT     H159018   6.495   4.731   5.155
19592WAT     H259019   6.418   4.591   5.185
19593WAT      O59020   2.796   2.940   8.151
19593WAT     H159021   2.707   2.912   8.187
19593WAT     H259022   2.799   2.922   8.053
19594WAT      O59023   9.886   8.464   0.373
19594WAT     H159024   9.948   8.495   0.446
19594WAT     H259025   9.806   8.523   0.369
19595WAT      O59026   4.153   2.386   0.697
19595WAT     H159027   4.162   2.342   0.607
19595WAT     H259028   4.057   2.411   0.712
19596WAT      O59029   2.070   7.439   6.895
19596WAT     H159030   2.098   7.346   6.919
19596WAT     H259031   2.077   7.498   6.976
19597WAT      O59032   4.138   5.989   0.676
19597WAT     H159033   4.150   5.901   0.722
19597WAT     H259034   4.149   6.063   0.742
19598WAT      O59035   0.674   2.324   7.325
19598WAT     H159036   0.677   2.233   7.284
19598WAT     H259037   0.734   2.327   7.405
19599WAT      O59038   2.151   9.551   1.995
19599WAT     H159039   2.067   9.574   2.045
19599WAT     H259040   2.215   9.627   2.001
19600WAT      O59041   3.310   5.335   2.341
19600WAT     H159042   3.393   5.315   2.288
19600WAT     H259043   3.273   5.250   2.378
19601WAT      O59044   2.645   3.617   6.991
19601WAT     H159045   2.720   3.653   7.046
19601WAT     H259046   2.589   3.556   7.046
19602WAT      O59047   3.542   2.248   3.707
19602WAT     H159048   3.639   2.239   3.729
19602WAT     H259049   3.507   2.334   3.745
19603WAT      O59050   2.885   4.192   6.971
19603WAT     H159051   2.868   4.204   6.873
19603WAT     H259052   2.935   4.271   7.006
19604WAT      O59053   6.610   7.427   7.264
19604WAT     H159054   6.634   7.439   7.167
19604WAT     H259055   6.626   7.512   7.313
19605WAT      O59056   9.400   1.919   7.232
19605WAT     H159057   9.315   1.927   7.180
19605WAT     H259058   9.394   1.840   7.293
19606WAT      O59059   7.754   0.944   0.963
19606WAT     H159060   7.717   0.892   0.886
19606WAT     H259061   7.779   0.881   1.036
19607WAT      O59062   2.945   2.504   5.603
19607WAT     H159063   2.886   2.443   5.655
19607WAT     H259064   2.936   2.597   5.639
19608WAT      O59065   5.866   7.724   8.059
19608WAT     H159066   5.836   7.688   7.971
19608WAT     H259067   5.824   7.670   8.132
19609WAT      O59068   7.527   8.153   9.386
19609WAT     H159069   7.487   8.168   9.295
19609WAT     H259070   7.481   8.076   9.430
19610WAT      O59071   9.313   9.655   4.487
19610WAT     H159072   9.402   9.615   4.465
19610WAT     H259073   9.302   9.658   4.586
19611WAT      O59074   3.582   6.493   4.607
19611WAT     H159075   3.573   6.462   4.701
19611WAT     H259076   3.493   6.483   4.561
19612WAT      O59077   3.843   1.952   4.523
19612WAT     H159078   3.814   1.871   4.575
19612WAT     H259079   3.830   1.936   4.425
19613WAT      O59080   4.101   3.509   1.152
19613WAT     H159081   4.112   3.515   1.053
19613WAT     H259082   4.054   3.591   1.186
19614WAT      O59083   9.103   7.626   0.766
19614WAT     H159084   9.069   7.558   0.701
19614WAT     H259085   9.184   7.671   0.728
19615WAT      O59086   3.704   8.570   1.154
19615WAT     H159087   3.734   8.476   1.142
19615WAT     H259088   3.752   8.610   1.232
19616WAT      O59089   7.556   2.131   8.483
19616WAT     H159090   7.606   2.200   8.536
19616WAT     H259091   7.620   2.081   8.425
19617WAT      O59092   4.997   6.978   5.058
19617WAT     H159093   4.941   7.060   5.046
19617WAT     H259094   4.941   6.896   5.043
19618WAT      O59095   0.480   1.052   9.480
19618WAT     H159096   0.467   0.967   9.529
19618WAT     H259097   0.577   1.061   9.454
19619WAT      O59098   3.666   8.187   2.832
19619WAT     H159099   3.590   8.249   2.809
19619WAT     H259100   3.720   8.169   2.750
19620WAT      O59101   6.546   2.431   4.243
19620WAT     H159102   6.543   2.333   4.264
19620WAT     H259103   6.531   2.483   4.327
19621WAT      O59104   1.302   2.508   9.273
19621WAT     H159105   1.292   2.590   9.328
19621WAT     H259106   1.311   2.428   9.332
19622WAT      O59107   5.972   7.526   0.020
19622WAT     H159108   5.942   7.438   0.056
19622WAT     H259109   5.907   7.597   0.047
19623WAT      O59110   8.643   0.667   5.001
19623WAT     H159111   8.716   0.599   5.005
19623WAT     H259112   8.649   0.727   5.081
19624WAT      O59113   5.181   9.256   9.429
19624WAT     H159114   5.123   9.284   9.353
19624WAT     H259115   5.124   9.231   9.507
19625WAT      O59116   6.769   9.023   7.026
19625WAT     H159117   6.734   9.111   7.058
19625WAT     H259118   6.821   8.980   7.099
19626WAT      O59119   7.221   0.308   2.018
19626WAT     H159120   7.170   0.227   1.988
19626WAT     H259121   7.237   0.301   2.117
19627WAT      O59122   8.587   1.955   7.091
19627WAT     H159123   8.503   1.914   7.126
19627WAT     H259124   8.666   1.916   7.139
19628WAT      O59125   6.717   6.648   3.073
19628WAT     H159126   6.664   6.583   3.019
19628WAT     H259127   6.694   6.741   3.046
19629WAT      O59128   8.089   1.536   7.532
19629WAT     H159129   8.099   1.577   7.441
19629WAT     H259130   8.076   1.437   7.523
19630WAT      O59131   6.162   6.799   5.977
19630WAT     H159132   6.126   6.773   6.066
19630WAT     H259133   6.087   6.818   5.914
19631WAT      O59134   3.723   4.692   6.950
19631WAT     H159135   3.804   4.694   7.009
19631WAT     H259136   3.697   4.785   6.926
19632WAT      O59137   2.465   2.309   8.400
19632WAT     H159138   2.379   2.270   8.368
19632WAT     H259139   2.515   2.346   8.322
19633WAT      O59140   8.765   2.723   4.189
19633WAT     H159141   8.823   2.777   4.128
19633WAT     H259142   8.689   2.779   4.222
19634WAT      O59143   8.948   9.185   9.520
19634WAT     H159144   8.895   9.227   9.446
19634WAT     H259145   9.044   9.210   9.511
19635WAT      O59146   0.436   7.608   7.999
19635WAT     H159147   0.462   7.522   7.955
19635WAT     H259148   0.347   7.637   7.964
19636WAT      O59149   7.984   1.453   0.488
19636WAT     H159150   8.041   1.408   0.557
19636WAT     H259151   7.890   1.460   0.522
19637WAT      O59152   7.233   3.143   2.367
19637WAT     H159153   7.301   3.083   2.410
19637WAT     H259154   7.256   3.155   2.270
19638WAT      O59155   6.815   2.340   9.728
19638WAT     H159156   6.836   2.384   9.816
19638WAT     H259157   6.839   2.243   9.733
19639WAT      O59158   8.479   1.113   4.919
19639WAT     H159159   8.430   1.043   4.867
19639WAT     H259160   8.471   1.201   4.872
19640WAT      O59161   7.243   3.708   6.059
19640WAT     H159162   7.236   3.658   6.146
19640WAT     H259163   7.311   3.664   6.001
19641WAT      O59164   8.925   8.173   7.389
19641WAT     H159165   8.865   8.236   7.439
19641WAT     H259166   8.978   8.223   7.321
19642WAT      O59167   2.784   3.529   3.486
19642WAT     H159168   2.847   3.488   3.552
19642WAT     H259169   2.725   3.458   3.448
19643WAT      O59170   7.339   7.711   0.861
19643WAT     H159171   7.247   7.745   0.842
19643WAT     H259172   7.338   7.611   0.860
19644WAT      O59173   4.889   4.642   5.303
19644WAT     H159174   4.887   4.728   5.251
19644WAT     H259175   4.815   4.583   5.273
19645WAT      O59176   3.348   2.144   2.779
19645WAT     H159177   3.410   2.205   2.830
19645WAT     H259178   3.254   2.178   2.786
19646WAT      O59179   5.247   2.167   6.530
19646WAT     H159180   5.252   2.239   6.600
19646WAT     H259181   5.156   2.167   6.489
19647WAT      O59182   1.125   9.344   0.101
19647WAT     H159183   1.169   9.265   0.143
19647WAT     H259184   1.047   9.314   0.046
19648WAT      O59185   3.433   1.825   5.373
19648WAT     H159186   3.510   1.777   5.330
19648WAT     H259187   3.399   1.895   5.310
19649WAT      O59188   9.401   5.233   8.112
19649WAT     H159189   9.345   5.269   8.037
19649WAT     H259190   9.498   5.237   8.085
19650WAT      O59191   3.808   8.242   2.220
19650WAT     H159192   3.869   8.228   2.297
19650WAT     H259193   3.848   8.310   2.158
19651WAT      O59194   1.747   3.286   7.149
19651WAT     H159195   1.789   3.251   7.233
19651WAT     H259196   1.818   3.314   7.085
19652WAT      O59197   0.413   1.799   2.017
19652WAT     H159198   0.477   1.728   1.989
19652WAT     H259199   0.325   1.756   2.040
19653WAT      O59200   9.431   2.550   2.314
19653WAT     H159201   9.466   2.610   2.242
19653WAT     H259202   9.507   2.512   2.366
19654WAT      O59203   9.194   2.919   2.742
19654WAT     H159204   9.191   3.005   2.792
19654WAT     H259205   9.187   2.938   2.644
19655WAT      O59206   2.139   7.766   6.819
19655WAT     H159207   2.213   7.700   6.833
19655WAT     H259208   2.166   7.831   6.748
19656WAT      O59209   4.448   0.542   1.568
19656WAT     H159210   4.525   0.598   1.597
19656WAT     H259211   4.477   0.480   1.496
19657WAT      O59212   4.611   8.848   1.476
19657WAT     H159213   4.540   8.801   1.424
19657WAT     H259214   4.675   8.893   1.414
19658WAT      O59215   4.177   0.576   3.928
19658WAT     H159216   4.265   0.530   3.916
19658WAT     H259217   4.126   0.574   3.842
19659WAT      O59218   5.589   1.278   1.681
19659WAT     H159219   5.684   1.295   1.706
19659WAT     H259220   5.584   1.195   1.624
19660WAT      O59221   5.219   8.110   2.031
19660WAT     H159222   5.256   8.201   2.052
19660WAT     H259223   5.292   8.053   1.993
19661WAT      O59224   3.975   1.588   7.892
19661WAT     H159225   4.015   1.514   7.945
19661WAT     H259226   3.897   1.554   7.839
19662WAT      O59227   5.905   7.022   6.920
19662WAT     H159228   5.947   6.995   6.833
19662WAT     H259229   5.953   7.102   6.957
19663WAT      O59230   1.612   2.356   7.631
19663WAT     H159231   1.558   2.327   7.709
19663WAT     H259232   1.709   2.344   7.651
19664WAT      O59233   9.313   3.081   6.588
19664WAT     H159234   9.242   3.136   6.544
19664WAT     H259235   9.350   3.016   6.522
19665WAT      O59236   3.879   8.185   3.756
19665WAT     H159237   3.863   8.211   3.661
19665WAT     H259238   3.830   8.100   3.777
19666WAT      O59239   5.262   3.103   0.875
19666WAT     H159240   5.269   3.188   0.926
19666WAT     H259241   5.341   3.044   0.895
19667WAT      O59242   2.345   2.101   1.776
19667WAT     H159243   2.419   2.168   1.778
19667WAT     H259244   2.361   2.032   1.847
19668WAT      O59245   3.195   0.317   8.733
19668WAT     H159246   3.141   0.336   8.651
19668WAT     H259247   3.281   0.272   8.708
19669WAT      O59248   4.533   0.955   6.483
19669WAT     H159249   4.544   0.862   6.447
19669WAT     H259250   4.600   0.971   6.555
19670WAT      O59251   7.741   3.284   7.438
19670WAT     H159252   7.673   3.355   7.418
19670WAT     H259253   7.700   3.212   7.493
19671WAT      O59254   8.481   9.057   8.567
19671WAT     H159255   8.418   8.988   8.603
19671WAT     H259256   8.455   9.147   8.602
19672WAT      O59257   7.892   2.191   4.849
19672WAT     H159258   7.990   2.203   4.839
19672WAT     H259259   7.845   2.248   4.781
19673WAT      O59260   4.494   9.730   6.992
19673WAT     H159261   4.446   9.662   6.937
19673WAT     H259262   4.572   9.687   7.038
19674WAT      O59263   5.424   2.548   4.086
19674WAT     H159264   5.333   2.587   4.102
19674WAT     H259265   5.428   2.455   4.122
19675WAT      O59266   1.018   2.110   5.045
19675WAT     H159267   1.024   2.011   5.061
19675WAT     H259268   0.996   2.127   4.949
19676WAT      O59269   3.946   4.094   7.399
19676WAT     H159270   3.975   3.998   7.397
19676WAT     H259271   3.883   4.112   7.324
19677WAT      O59272   2.186   4.910   0.171
19677WAT     H159273   2.229   4.962   0.096
19677WAT     H259274   2.207   4.955   0.258
19678WAT      O59275   5.746   1.536   4.076
19678WAT     H159276   5.835   1.524   4.032
19678WAT     H259277   5.738   1.630   4.110
19679WAT      O59278   0.088   1.874   8.288
19679WAT     H159279   0.017   1.804   8.296
19679WAT     H259280   0.061   1.942   8.219
19680WAT      O59281   6.419   2.683   8.964
19680WAT     H159282   6.385   2.590   8.957
19680WAT     H259283   6.518   2.681   8.979
19681WAT      O59284   1.915   6.266   6.837
19681WAT     H159285   1.961   6.192   6.786
19681WAT     H259286   1.825   6.235   6.866
19682WAT      O59287   6.290   7.456   8.803
19682WAT     H159288   6.205   7.469   8.753
19682WAT     H259289   6.270   7.448   8.901
19683WAT      O59290   1.804   4.488   6.188
19683WAT     H159291   1.894   4.485   6.231
19683WAT     H259292   1.781   4.582   6.164
19684WAT      O59293   2.678   7.409   8.305
19684WAT     H159294   2.747   7.339   8.287
19684WAT     H259295   2.595   7.388   8.253
19685WAT      O59296   3.939   4.357   8.433
19685WAT     H159297   3.895   4.323   8.350
19685WAT     H259298   4.021   4.303   8.452
19686WAT      O59299   2.116   8.474   4.551
19686WAT     H159300   2.183   8.414   4.595
19686WAT     H259301   2.050   8.418   4.501
19687WAT      O59302   2.066   1.069   1.363
19687WAT     H159303   1.985   1.037   1.413
19687WAT     H259304   2.139   1.089   1.428
19688WAT      O59305   9.591   8.907   1.265
19688WAT     H159306   9.532   8.987   1.271
19688WAT     H259307   9.616   8.892   1.170
19689WAT      O59308   0.097   4.917   3.196
19689WAT     H159309   0.102   5.016   3.181
19689WAT     H259310   0.070   4.899   3.290
19690WAT      O59311   4.382   6.638   1.038
19690WAT     H159312   4.377   6.558   1.098
19690WAT     H259313   4.466   6.688   1.057
19691WAT      O59314   0.452   8.233   6.222
19691WAT     H159315   0.493   8.271   6.139
19691WAT     H259316   0.413   8.308   6.276
19692WAT      O59317   1.268   9.109   6.949
19692WAT     H159318   1.354   9.159   6.939
19692WAT     H259319   1.265   9.035   6.882
19693WAT      O59320   0.441   0.597   1.118
19693WAT     H159321   0.369   0.543   1.074
19693WAT     H259322   0.445   0.575   1.215
19694WAT      O59323   6.376   8.951   5.523
19694WAT     H159324   6.315   8.987   5.593
19694WAT     H259325   6.391   8.854   5.537
19695WAT      O59326   9.267   2.639   7.636
19695WAT     H159327   9.325   2.572   7.590
19695WAT     H259328   9.249   2.716   7.575
19696WAT      O59329   0.213   6.996   0.508
19696WAT     H159330   0.224   7.095   0.515
19696WAT     H259331   0.125   6.975   0.464
19697WAT      O59332   2.225   1.000   0.105
19697WAT     H159333   2.308   1.018   0.158
19697WAT     H259334   2.217   1.068   0.032
19698WAT      O59335   2.956   5.687   8.642
19698WAT     H159336   2.873   5.631   8.645
19698WAT     H259337   3.034   5.633   8.673
19699WAT      O59338   3.376   7.712   2.816
19699WAT     H159339   3.379   7.621   2.776
19699WAT     H259340   3.283   7.730   2.850
19700WAT      O59341   8.601   3.705   7.217
19700WAT     H159342   8.564   3.761   7.143
19700WAT     H259343   8.638   3.764   7.288
19701WAT      O59344   9.859   1.511   5.209
19701WAT     H159345   9.937   1.527   5.148
19701WAT     H259346   9.801   1.593   5.210
19702WAT      O59347   1.583   0.809   8.196
19702WAT     H159348   1.612   0.844   8.285
19702WAT     H259349   1.631   0.724   8.176
19703WAT      O59350   5.183   0.648   2.509
19703WAT     H159351   5.105   0.611   2.560
19703WAT     H259352   5.259   0.582   2.512
19704WAT      O59353   8.423   3.837   5.880
19704WAT     H159354   8.331   3.872   5.859
19704WAT     H259355   8.435   3.831   5.979
19705WAT      O59356   6.103   8.634   5.423
19705WAT     H159357   6.166   8.565   5.386
19705WAT     H259358   6.009   8.601   5.414
19706WAT      O59359   8.991   2.720   6.135
19706WAT     H159360   8.893   2.724   6.153
19706WAT     H259361   9.009   2.653   6.063
19707WAT      O59362   2.918   8.130   7.255
19707WAT     H159363   2.855   8.207   7.266
19707WAT     H259364   2.872   8.045   7.282
19708WAT      O59365   8.064   5.290   5.668
19708WAT     H159366   8.034   5.267   5.761
19708WAT     H259367   8.159   5.320   5.671
19709WAT      O59368   1.619   1.715   0.969
19709WAT     H159369   1.676   1.794   0.947
19709WAT     H259370   1.523   1.738   0.957
19710WAT      O59371   4.882   4.158   6.090
19710WAT     H159372   4.938   4.193   6.165
19710WAT     H259373   4.786   4.157   6.116
19711WAT      O59374   9.851   5.890   8.102
19711WAT     H159375   9.943   5.879   8.064
19711WAT     H259376   9.858   5.909   8.200
19712WAT      O59377   5.122   3.405   8.063
19712WAT     H159378   5.146   3.498   8.037
19712WAT     H259379   5.117   3.348   7.981
19713WAT      O59380   7.005   0.687   3.588
19713WAT     H159381   7.077   0.649   3.530
19713WAT     H259382   6.974   0.773   3.549
19714WAT      O59383   6.506   8.237   5.770
19714WAT     H159384   6.579   8.179   5.804
19714WAT     H259385   6.498   8.227   5.671
19715WAT      O59386   9.585   4.108   9.325
19715WAT     H159387   9.555   4.070   9.413
19715WAT     H259388   9.620   4.035   9.267
19716WAT      O59389   5.502   1.155   9.317
19716WAT     H159390   5.413   1.192   9.344
19716WAT     H259391   5.489   1.067   9.272
19717WAT      O59392   6.038   3.830   1.045
19717WAT     H159393   6.131   3.846   1.078
19717WAT     H259394   5.997   3.917   1.017
19718WAT      O59395   7.800   2.782   5.073
19718WAT     H159396   7.753   2.855   5.024
19718WAT     H259397   7.816   2.705   5.011
19719WAT      O59398   7.675   6.035   0.691
19719WAT     H159399   7.599   6.075   0.638
19719WAT     H259400   7.653   5.940   0.713
19720WAT      O59401   3.585   3.918   5.329
19720WAT     H159402   3.549   3.947   5.241
19720WAT     H259403   3.685   3.920   5.327
19721WAT      O59404   6.084   6.888   6.712
19721WAT     H159405   6.083   6.934   6.623
19721WAT     H259406   6.026   6.807   6.707
19722WAT      O59407   5.601   6.017   0.027
19722WAT     H159408   5.568   6.068   0.107
19722WAT     H259409   5.577   6.067  -0.056
19723WAT      O59410   4.358   2.496   2.547
19723WAT     H159411   4.347   2.538   2.637
19723WAT     H259412   4.420   2.417   2.554
19724WAT      O59413   5.883   6.092   9.028
19724WAT     H159414   5.867   6.161   8.958
19724WAT     H259415   5.815   6.102   9.101
19725WAT      O59416   0.478   4.862   5.889
19725WAT     H159417   0.526   4.830   5.807
19725WAT     H259418   0.477   4.789   5.957
19726WAT      O59419   8.486   3.132   5.250
19726WAT     H159420   8.490   3.034   5.268
19726WAT     H259421   8.418   3.150   5.179
19727WAT      O59422   4.157   7.098   7.305
19727WAT     H159423   4.196   7.158   7.236
19727WAT     H259424   4.185   7.004   7.288
19728WAT      O59425   7.796   4.225   2.374
19728WAT     H159426   7.780   4.200   2.279
19728WAT     H259427   7.710   4.216   2.426
19729WAT      O59428   1.168   2.050   0.741
19729WAT     H159429   1.214   1.986   0.802
19729WAT     H259430   1.088   2.006   0.701
19730WAT      O59431   6.100   9.304   7.890
19730WAT     H159432   6.178   9.322   7.950
19730WAT     H259433   6.039   9.384   7.890
19731WAT      O59434   7.911   1.041   8.799
19731WAT     H159435   7.819   1.012   8.823
19731WAT     H259436   7.914   1.064   8.702
19732WAT      O59437   2.600   9.314   0.062
19732WAT     H159438   2.571   9.250  -0.010
19732WAT     H259439   2.586   9.272   0.152
19733WAT      O59440   8.106   3.748   7.977
19733WAT     H159441   8.138   3.763   7.884
19733WAT     H259442   8.080   3.835   8.019
19734WAT      O59443   8.603   7.118   8.506
19734WAT     H159444   8.655   7.102   8.422
19734WAT     H259445   8.630   7.205   8.546
19735WAT      O59446   4.089   8.378   5.691
19735WAT     H159447   4.030   8.304   5.659
19735WAT     H259448   4.153   8.403   5.618
19736WAT      O59449   1.100   9.115   4.978
19736WAT     H159450   1.116   9.149   4.886
19736WAT     H259451   1.005   9.086   4.987
19737WAT      O59452   2.080   6.890   9.752
19737WAT     H159453   2.024   6.809   9.735
19737WAT     H259454   2.170   6.862   9.785
19738WAT      O59455   4.567   6.859   5.525
19738WAT     H159456   4.507   6.908   5.588
19738WAT     H259457   4.513   6.797   5.469
19739WAT      O59458   0.529   5.085   2.082
19739WAT     H159459   0.467   5.148   2.128
19739WAT     H259460   0.528   4.997   2.129
19740WAT      O59461   3.508   1.094   6.054
19740WAT     H159462   3.578   1.124   5.989
19740WAT     H259463   3.552   1.073   6.142
19741WAT      O59464   8.140   1.634   3.468
19741WAT     H159465   8.213   1.569   3.446
19741WAT     H259466   8.176   1.704   3.530
19742WAT      O59467   7.232   4.974   7.036
19742WAT     H159468   7.328   4.948   7.030
19742WAT     H259469   7.180   4.902   7.083
19743WAT      O59470   7.440   4.202   6.365
19743WAT     H159471   7.463   4.191   6.268
19743WAT     H259472   7.342   4.189   6.378
19744WAT      O59473   8.033   5.728   3.517
19744WAT     H159474   8.040   5.659   3.444
19744WAT     H259475   7.936   5.748   3.534
19745WAT      O59476   6.880   5.529   6.155
19745WAT     H159477   6.904   5.579   6.238
19745WAT     H259478   6.871   5.593   6.079
19746WAT      O59479   5.904   5.749   1.404
19746WAT     H159480   5.872   5.654   1.401
19746WAT     H259481   5.992   5.756   1.357
19747WAT      O59482   2.981   9.048   9.483
19747WAT     H159483   3.017   9.046   9.390
19747WAT     H259484   3.009   8.966   9.532
19748WAT      O59485   7.285   1.906   2.612
19748WAT     H159486   7.213   1.945   2.669
19748WAT     H259487   7.305   1.813   2.643
19749WAT      O59488   0.494   3.676   7.068
19749WAT     H159489   0.403   3.674   7.028
19749WAT     H259490   0.555   3.616   7.017
19750WAT      O59491   2.832   5.578   0.879
19750WAT     H159492   2.743   5.550   0.915
19750WAT     H259493   2.827   5.586   0.779
19751WAT      O59494   6.216   2.471   6.804
19751WAT     H159495   6.125   2.512   6.790
19751WAT     H259496   6.260   2.513   6.883
19752WAT      O59497   2.701   6.127   6.842
19752WAT     H159498   2.777   6.111   6.906
19752WAT     H259499   2.732   6.185   6.767
19753WAT      O59500   0.079   5.763   6.231
19753WAT     H159501   0.087   5.727   6.138
19753WAT     H259502   0.167   5.798   6.261
19754WAT      O59503   9.379   7.831   4.850
19754WAT     H159504   9.344   7.768   4.919
19754WAT     H259505   9.479   7.822   4.844
19755WAT      O59506   3.855   6.529   2.177
19755WAT     H159507   3.940   6.581   2.182
19755WAT     H259508   3.800   6.548   2.258
19756WAT      O59509   3.950   5.212   5.345
19756WAT     H159510   3.895   5.264   5.410
19756WAT     H259511   3.954   5.260   5.257
19757WAT      O59512   8.915   2.329   6.479
19757WAT     H159513   8.932   2.247   6.534
19757WAT     H259514   9.001   2.375   6.459
19758WAT      O59515   0.634   4.647   7.842
19758WAT     H159516   0.655   4.573   7.906
19758WAT     H259517   0.539   4.638   7.812
19759WAT      O59518   0.159   3.038   7.657
19759WAT     H159519   0.060   3.028   7.663
19759WAT     H259520   0.181   3.130   7.623
19760WAT      O59521   7.606   8.556   8.609
19760WAT     H159522   7.521   8.525   8.653
19760WAT     H259523   7.600   8.540   8.510
19761WAT      O59524   7.190   1.460   0.966
19761WAT     H159525   7.192   1.489   0.870
19761WAT     H259526   7.138   1.375   0.973
19762WAT      O59527   2.157   4.124   7.161
19762WAT     H159528   2.133   4.171   7.075
19762WAT     H259529   2.105   4.164   7.236
19763WAT      O59530   9.547   6.145   1.317
19763WAT     H159531   9.575   6.088   1.393
19763WAT     H259532   9.459   6.189   1.339
19764WAT      O59533   1.363   7.972   6.582
19764WAT     H159534   1.272   8.013   6.590
19764WAT     H259535   1.362   7.905   6.507
19765WAT      O59536   4.059   5.114   7.067
19765WAT     H159537   4.006   5.186   7.023
19765WAT     H259538   4.117   5.153   7.138
19766WAT      O59539   2.733   1.546   9.075
19766WAT     H159540   2.796   1.496   9.134
19766WAT     H259541   2.772   1.554   8.983
19767WAT      O59542   2.556   3.323   5.817
19767WAT     H159543   2.604   3.303   5.732
19767WAT     H259544   2.611   3.386   5.872
19768WAT      O59545   9.668   0.937   6.032
19768WAT     H159546   9.602   0.861   6.028
19768WAT     H259547   9.666   0.986   5.945
19769WAT      O59548   0.737   5.172   5.655
19769WAT     H159549   0.641   5.198   5.658
19769WAT     H259550   0.794   5.253   5.665
19770WAT      O59551   6.433   4.494   8.084
19770WAT     H159552   6.511   4.469   8.140
19770WAT     H259553   6.394   4.412   8.041
19771WAT      O59554   0.893   3.522   7.411
19771WAT     H159555   0.936   3.446   7.363
19771WAT     H259556   0.813   3.553   7.361
19772WAT      O59557   4.941   2.871   5.803
19772WAT     H159558   4.863   2.815   5.773
19772WAT     H259559   4.993   2.821   5.872
19773WAT      O59560   5.959   0.656   8.641
19773WAT     H159561   6.019   0.577   8.652
19773WAT     H259562   5.923   0.684   8.730
19774WAT      O59563   5.108   9.730   1.985
19774WAT     H159564   5.088   9.762   1.893
19774WAT     H259565   5.097   9.805   2.050
19775WAT      O59566   5.413   1.057   4.136
19775WAT     H159567   5.404   0.958   4.148
19775WAT     H259568   5.407   1.102   4.226
19776WAT      O59569   2.185   2.079   8.385
19776WAT     H159570   2.109   2.014   8.393
19776WAT     H259571   2.270   2.037   8.416
19777WAT      O59572   2.760   3.810   4.231
19777WAT     H159573   2.705   3.859   4.299
19777WAT     H259574   2.855   3.840   4.238
19778WAT      O59575   4.265   7.849   4.257
19778WAT     H159576   4.206   7.858   4.337
19778WAT     H259577   4.349   7.901   4.273
19779WAT      O59578   7.639   0.428   4.257
19779WAT     H159579   7.670   0.334   4.269
19779WAT     H259580   7.539   0.431   4.261
19780WAT      O59581   7.265   2.677   3.185
19780WAT     H159582   7.315   2.758   3.214
19780WAT     H259583   7.251   2.681   3.086
19781WAT      O59584   3.563   4.585   7.588
19781WAT     H159585   3.614   4.605   7.504
19781WAT     H259586   3.618   4.614   7.667
19782WAT      O59587   9.154   9.326   0.811
19782WAT     H159588   9.067   9.333   0.762
19782WAT     H259589   9.145   9.257   0.883
19783WAT      O59590   9.275   0.084   5.558
19783WAT     H159591   9.316   0.170   5.588
19783WAT     H259592   9.207   0.055   5.625
19784WAT      O59593   0.720   5.087   2.682
19784WAT     H159594   0.633   5.080   2.632
19784WAT     H259595   0.796   5.066   2.620
19785WAT      O59596   3.016   9.683   8.183
19785WAT     H159597   2.971   9.770   8.159
19785WAT     H259598   2.948   9.610   8.182
19786WAT      O59599   2.740   3.747   2.118
19786WAT     H159600   2.824   3.745   2.172
19786WAT     H259601   2.717   3.654   2.089
19787WAT      O59602   3.031   9.157   2.184
19787WAT     H159603   3.097   9.183   2.114
19787WAT     H259604   3.058   9.197   2.272
19788WAT      O59605   1.848   2.766   5.338
19788WAT     H159606   1.830   2.812   5.251
19788WAT     H259607   1.824   2.670   5.330
19789WAT      O59608   6.288   4.861   2.185
19789WAT     H159609   6.228   4.918   2.128
19789WAT     H259610   6.349   4.808   2.127
19790WAT      O59611   1.783   3.526   5.418
19790WAT     H159612   1.804   3.478   5.333
19790WAT     H259613   1.849   3.600   5.431
19791WAT      O59614   0.705   3.036   4.543
19791WAT     H159615   0.802   3.030   4.570
19791WAT     H259616   0.698   3.036   4.443
19792WAT      O59617   0.937   3.755   3.049
19792WAT     H159618   0.907   3.778   3.142
19792WAT     H259619   1.028   3.794   3.033
19793WAT      O59620   4.179   8.058   6.944
19793WAT     H159621   4.209   8.152   6.957
19793WAT     H259622   4.132   8.026   7.026
19794WAT      O59623   0.519   7.962   4.729
19794WAT     H159624   0.458   7.884   4.713
19794WAT     H259625   0.501   8.033   4.662
19795WAT      O59626   7.201   8.002   4.656
19795WAT     H159627   7.245   8.012   4.745
19795WAT     H259628   7.164   7.910   4.647
19796WAT      O59629   1.047   0.934   9.153
19796WAT     H159630   0.962   0.973   9.119
19796WAT     H259631   1.059   0.959   9.249
19797WAT      O59632   5.548   9.032   9.776
19797WAT     H159633   5.622   9.099   9.789
19797WAT     H259634   5.525   9.027   9.679
19798WAT      O59635   3.974   1.399   8.326
19798WAT     H159636   3.905   1.339   8.367
19798WAT     H259637   4.064   1.376   8.362
19799WAT      O59638   4.754   1.295   8.993
19799WAT     H159639   4.732   1.200   9.018
19799WAT     H259640   4.700   1.322   8.914
19800WAT      O59641   0.501   4.281   2.997
19800WAT     H159642   0.574   4.215   3.013
19800WAT     H259643   0.514   4.323   2.907
19801WAT      O59644   3.011   2.492   2.274
19801WAT     H159645   3.041   2.547   2.196
19801WAT     H259646   2.923   2.527   2.307
19802WAT      O59647   5.219   6.048   1.838
19802WAT     H159648   5.251   5.957   1.810
19802WAT     H259649   5.233   6.060   1.936
19803WAT      O59650   7.599   3.692   5.202
19803WAT     H159651   7.609   3.760   5.275
19803WAT     H259652   7.634   3.604   5.233
19804WAT      O59653   0.052   4.156   4.305
19804WAT     H159654   0.060   4.088   4.377
19804WAT     H259655   0.048   4.110   4.216
19805WAT      O59656   4.182   0.700   4.680
19805WAT     H159657   4.100   0.689   4.623
19805WAT     H259658   4.173   0.783   4.736
19806WAT      O59659   7.299   4.122   9.054
19806WAT     H159660   7.279   4.214   9.090
19806WAT     H259661   7.310   4.058   9.130
19807WAT      O59662   1.366   3.347   7.897
19807WAT     H159663   1.340   3.254   7.872
19807WAT     H259664   1.297   3.386   7.959
19808WAT      O59665   1.235   2.126   2.517
19808WAT     H159666   1.261   2.054   2.581
19808WAT     H259667   1.144   2.161   2.541
19809WAT      O59668   9.857   3.102   6.666
19809WAT     H159669   9.768   3.069   6.695
19809WAT     H259670   9.846   3.175   6.599
19810WAT      O59671   1.199   0.365   6.637
19810WAT     H159672   1.243   0.382   6.725
19810WAT     H259673   1.127   0.433   6.622
19811WAT      O59674   8.113   3.932   6.706
19811WAT     H159675   8.067   3.872   6.640
19811WAT     H259676   8.054   3.945   6.786
19812WAT      O59677   8.771   1.336   0.967
19812WAT     H159678   8.795   1.316   0.872
19812WAT     H259679   8.713   1.417   0.972
19813WAT      O59680   0.260   5.023   8.004
19813WAT     H159681   0.250   5.122   8.007
19813WAT     H259682   0.342   4.995   8.053
19814WAT      O59683   8.398   9.636   3.032
19814WAT     H159684   8.413   9.733   3.013
19814WAT     H259685   8.478   9.598   3.079
19815WAT      O59686   8.282   1.260   1.379
19815WAT     H159687   8.258   1.269   1.475
19815WAT     H259688   8.375   1.224   1.371
19816WAT      O59689   5.053   8.300   4.812
19816WAT     H159690   4.977   8.239   4.835
19816WAT     H259691   5.089   8.276   4.722
19817WAT      O59692   1.257   8.873   5.015
19817WAT     H159693   1.184   8.941   5.018
19817WAT     H259694   1.343   8.918   4.989
19818WAT      O59695   3.451   5.329   0.956
19818WAT     H159696   3.421   5.324   0.861
19818WAT     H259697   3.411   5.409   1.000
19819WAT      O59698   8.439   4.061   8.901
19819WAT     H159699   8.426   4.019   8.811
19819WAT     H259700   8.360   4.042   8.958
19820WAT      O59701   0.965   9.581   9.601
19820WAT     H159702   0.867   9.601   9.595
19820WAT     H259703   0.996   9.538   9.517
19821WAT      O59704   8.524   4.719   1.275
19821WAT     H159705   8.592   4.755   1.338
19821WAT     H259706   8.499   4.626   1.300
19822WAT      O59707   6.202   9.689   3.291
19822WAT     H159708   6.267   9.750   3.246
19822WAT     H259709   6.231   9.594   3.279
19823WAT      O59710   2.451   1.377   4.742
19823WAT     H159711   2.385   1.431   4.689
19823WAT     H259712   2.426   1.379   4.839
19824WAT      O59713   8.489   5.327   9.821
19824WAT     H159714   8.446   5.412   9.792
19824WAT     H259715   8.418   5.265   9.856
19825WAT      O59716   4.728   4.997   1.424
19825WAT     H159717   4.715   4.918   1.364
19825WAT     H259718   4.714   5.081   1.371
19826WAT      O59719   6.407   1.088   0.100
19826WAT     H159720   6.372   1.138   0.020
19826WAT     H259721   6.505   1.075   0.090
19827WAT      O59722   0.191   6.528   3.282
19827WAT     H159723   0.268   6.474   3.248
19827WAT     H259724   0.220   6.623   3.297
19828WAT      O59725   3.063   6.398   8.695
19828WAT     H159726   3.009   6.433   8.772
19828WAT     H259727   3.147   6.450   8.687
19829WAT      O59728   1.284   7.988   2.897
19829WAT     H159729   1.372   8.002   2.850
19829WAT     H259730   1.258   7.892   2.891
19830WAT      O59731   4.065   1.382   8.054
19830WAT     H159732   4.165   1.376   8.052
19830WAT     H259733   4.034   1.399   8.147
19831WAT      O59734   8.753   8.140   3.636
19831WAT     H159735   8.766   8.168   3.541
19831WAT     H259736   8.667   8.090   3.645
19832WAT      O59737   5.737   1.966   8.077
19832WAT     H159738   5.686   1.886   8.045
19832WAT     H259739   5.808   1.989   8.010
19833WAT      O59740   1.692   2.199   6.663
19833WAT     H159741   1.667   2.107   6.692
19833WAT     H259742   1.613   2.260   6.671
19834WAT      O59743   9.863   8.126   4.931
19834WAT     H159744   9.843   8.049   4.992
19834WAT     H259745   9.802   8.121   4.852
19835WAT      O59746   0.018   9.168   0.524
19835WAT     H159747   0.039   9.219   0.607
19835WAT     H259748  -0.055   9.215   0.473
19836WAT      O59749   9.799   5.638   9.814
19836WAT     H159750   9.895   5.614   9.802
19836WAT     H259751   9.770   5.697   9.739
19837WAT      O59752   8.610   0.790   8.252
19837WAT     H159753   8.633   0.715   8.190
19837WAT     H259754   8.521   0.829   8.226
19838WAT      O59755   6.999   9.377   9.754
19838WAT     H159756   6.930   9.316   9.714
19838WAT     H259757   6.965   9.471   9.752
19839WAT      O59758   5.494   4.611   5.212
19839WAT     H159759   5.447   4.663   5.282
19839WAT     H259760   5.593   4.616   5.226
19840WAT      O59761   9.477   4.591   2.046
19840WAT     H159762   9.535   4.570   2.124
19840WAT     H259763   9.439   4.507   2.008
19841WAT      O59764   1.234   2.469   4.249
19841WAT     H159765   1.222   2.399   4.178
19841WAT     H259766   1.309   2.530   4.223
19842WAT      O59767   7.073   6.798   4.739
19842WAT     H159768   7.116   6.808   4.649
19842WAT     H259769   7.028   6.709   4.744
19843WAT      O59770   7.289   8.245   5.539
19843WAT     H159771   7.198   8.263   5.500
19843WAT     H259772   7.304   8.146   5.542
19844WAT      O59773   5.520   8.604   1.219
19844WAT     H159774   5.512   8.657   1.304
19844WAT     H259775   5.524   8.506   1.241
19845WAT      O59776   6.650   3.262   1.805
19845WAT     H159777   6.745   3.238   1.823
19845WAT     H259778   6.598   3.179   1.783
19846WAT      O59779   2.227   0.680   7.448
19846WAT     H159780   2.233   0.638   7.358
19846WAT     H259781   2.191   0.613   7.513
19847WAT      O59782   1.784   3.924   8.865
19847WAT     H159783   1.852   3.984   8.907
19847WAT     H259784   1.711   3.979   8.824
19848WAT      O59785   9.401   8.805   7.884
19848WAT     H159786   9.464   8.880   7.902
19848WAT     H259787   9.442   8.719   7.912
19849WAT      O59788   8.670   7.419   5.889
19849WAT     H159789   8.623   7.387   5.971
19849WAT     H259790   8.665   7.519   5.883
19850WAT      O59791   7.575   1.643   4.652
19850WAT     H159792   7.493   1.688   4.686
19850WAT     H259793   7.585   1.553   4.696
19851WAT      O59794   6.368   0.724   6.731
19851WAT     H159795   6.459   0.691   6.759
19851WAT     H259796   6.372   0.822   6.715
19852WAT      O59797   7.051   0.637   6.065
19852WAT     H159798   7.108   0.560   6.093
19852WAT     H259799   6.959   0.604   6.043
19853WAT      O59800   7.406   5.391   5.387
19853WAT     H159801   7.454   5.458   5.443
19853WAT     H259802   7.416   5.300   5.427
19854WAT      O59803   1.631   6.969   5.324
19854WAT     H159804   1.568   6.895   5.346
19854WAT     H259805   1.725   6.936   5.333
19855WAT      O59806   6.530   3.113   5.341
19855WAT     H159807   6.573   3.057   5.271
19855WAT     H259808   6.600   3.148   5.404
19856WAT      O59809   5.840   9.714   4.297
19856WAT     H159810   5.939   9.728   4.291
19856WAT     H259811   5.819   9.618   4.282
19857WAT      O59812   6.725   7.116   2.813
19857WAT     H159813   6.701   7.079   2.903
19857WAT     H259814   6.775   7.202   2.825
19858WAT      O59815   4.438   2.000   2.263
19858WAT     H159816   4.386   2.040   2.339
19858WAT     H259817   4.521   1.957   2.299
19859WAT      O59818   7.039   3.170   2.894
19859WAT     H159819   7.016   3.184   2.798
19859WAT     H259820   6.979   3.227   2.951
19860WAT      O59821   9.561   8.405   2.564
19860WAT     H159822   9.523   8.359   2.644
19860WAT     H259823   9.515   8.374   2.482
19861WAT      O59824   2.561   2.397   7.805
19861WAT     H159825   2.512   2.314   7.830
19861WAT     H259826   2.586   2.393   7.708
19862WAT      O59827   0.987   9.526   0.987
19862WAT     H159828   1.066   9.549   1.045
19862WAT     H259829   0.943   9.444   1.022
19863WAT      O59830   2.038   6.463   1.859
19863WAT     H159831   2.012   6.400   1.931
19863WAT     H259832   2.030   6.557   1.892
19864WAT      O59833   3.706   3.784   6.947
19864WAT     H159834   3.686   3.746   6.857
19864WAT     H259835   3.783   3.848   6.940
19865WAT      O59836   6.410   0.844   5.219
19865WAT     H159837   6.318   0.809   5.235
19865WAT     H259838   6.407   0.917   5.151
19866WAT      O59839   1.792   2.241   3.773
19866WAT     H159840   1.884   2.223   3.737
19866WAT     H259841   1.791   2.329   3.820
19867WAT      O59842   3.688   1.102   7.556
19867WAT     H159843   3.604   1.118   7.503
19867WAT     H259844   3.733   1.189   7.574
19868WAT      O59845   9.435   2.768   3.895
19868WAT     H159846   9.392   2.807   3.977
19868WAT     H259847   9.400   2.675   3.881
19869WAT      O59848   9.632   2.770   1.466
19869WAT     H159849   9.672   2.856   1.436
19869WAT     H259850   9.584   2.726   1.390
19870WAT      O59851   4.037   3.602   0.164
19870WAT     H159852   3.998   3.567   0.079
19870WAT     H259853   4.128   3.641   0.145
19871WAT      O59854   4.589   9.021   6.891
19871WAT     H159855   4.524   9.019   6.966
19871WAT     H259856   4.575   8.941   6.833
19872WAT      O59857   4.667   6.982   6.803
19872WAT     H159858   4.700   6.922   6.876
19872WAT     H259859   4.632   7.066   6.842
19873WAT      O59860   6.790   8.586   7.158
19873WAT     H159861   6.705   8.633   7.135
19873WAT     H259862   6.829   8.627   7.241
19874WAT      O59863   7.557   8.433   4.925
19874WAT     H159864   7.461   8.421   4.899
19874WAT     H259865   7.575   8.531   4.936
19875WAT      O59866   4.957   4.538   9.876
19875WAT     H159867   4.924   4.519   9.784
19875WAT     H259868   4.947   4.456   9.933
19876WAT      O59869   1.398   6.214   0.161
19876WAT     H159870   1.389   6.133   0.103
19876WAT     H259871   1.318   6.273   0.147
19877WAT      O59872   0.260   6.737   9.249
19877WAT     H159873   0.342   6.681   9.260
19877WAT     H259874   0.269   6.795   9.169
19878WAT      O59875   2.960   1.967   0.031
19878WAT     H159876   2.971   1.951  -0.067
19878WAT     H259877   2.894   1.902   0.069
19879WAT      O59878   8.183   2.802   4.505
19879WAT     H159879   8.256   2.762   4.450
19879WAT     H259880   8.147   2.883   4.460
19880WAT      O59881   7.951   2.382   4.153
19880WAT     H159882   8.034   2.365   4.100
19880WAT     H259883   7.942   2.313   4.225
19881WAT      O59884   6.084   9.810   9.455
19881WAT     H159885   6.052   9.883   9.516
19881WAT     H259886   6.012   9.741   9.445
19882WAT      O59887   7.428   8.568   7.200
19882WAT     H159888   7.519   8.556   7.162
19882WAT     H259889   7.430   8.642   7.268
19883WAT      O59890   2.789   3.703   7.553
19883WAT     H159891   2.724   3.725   7.479
19883WAT     H259892   2.882   3.711   7.518
19884WAT      O59893   5.899   1.900   2.393
19884WAT     H159894   5.811   1.946   2.380
19884WAT     H259895   5.891   1.805   2.362
19885WAT      O59896   7.196   6.223   7.494
19885WAT     H159897   7.120   6.195   7.552
19885WAT     H259898   7.179   6.315   7.458
19886WAT      O59899   3.500   3.053   8.881
19886WAT     H159900   3.536   3.095   8.964
19886WAT     H259901   3.416   3.003   8.902
19887WAT      O59902   1.997   8.010   7.654
19887WAT     H159903   2.070   8.017   7.586
19887WAT     H259904   2.034   8.029   7.745
19888WAT      O59905   5.411   2.699   6.037
19888WAT     H159906   5.511   2.700   6.035
19888WAT     H259907   5.379   2.720   6.129
19889WAT      O59908   5.360   6.122   6.709
19889WAT     H159909   5.347   6.189   6.636
19889WAT     H259910   5.456   6.124   6.738
19890WAT      O59911   6.650   3.089   6.451
19890WAT     H159912   6.661   3.109   6.548
19890WAT     H259913   6.567   3.035   6.437
19891WAT      O59914   2.016   2.094   1.565
19891WAT     H159915   2.054   2.008   1.531
19891WAT     H259916   1.925   2.108   1.526
19892WAT      O59917   3.406   3.493   6.287
19892WAT     H159918   3.369   3.403   6.265
19892WAT     H259919   3.425   3.543   6.203
19893WAT      O59920   7.389   5.072   5.032
19893WAT     H159921   7.456   5.140   5.065
19893WAT     H259922   7.369   5.008   5.106
19894WAT      O59923   4.826   6.008   8.332
19894WAT     H159924   4.894   5.957   8.280
19894WAT     H259925   4.840   6.106   8.317
19895WAT      O59926   6.281   9.010   7.641
19895WAT     H159927   6.224   9.089   7.619
19895WAT     H259928   6.225   8.927   7.640
19896WAT      O59929   4.354   9.579   4.258
19896WAT     H159930   4.435   9.588   4.316
19896WAT     H259931   4.349   9.657   4.196
19897WAT      O59932   7.576   9.475   6.416
19897WAT     H159933   7.559   9.477   6.317
19897WAT     H259934   7.654   9.416   6.435
19898WAT      O59935   7.624   4.933   5.306
19898WAT     H159936   7.664   5.021   5.279
19898WAT     H259937   7.622   4.872   5.227
19899WAT      O59938   7.193   2.658   5.429
19899WAT     H159939   7.097   2.632   5.432
19899WAT     H259940   7.204   2.748   5.472
19900WAT      O59941   6.922   9.645   8.197
19900WAT     H159942   6.870   9.644   8.283
19900WAT     H259943   6.979   9.727   8.194
19901WAT      O59944   1.486   3.844   5.704
19901WAT     H159945   1.395   3.811   5.681
19901WAT     H259946   1.499   3.936   5.667
19902WAT      O59947   8.795   3.709   9.608
19902WAT     H159948   8.759   3.659   9.687
19902WAT     H259949   8.894   3.698   9.605
19903WAT      O59950   8.818   6.716   7.624
19903WAT     H159951   8.873   6.760   7.553
19903WAT     H259952   8.802   6.620   7.599
19904WAT      O59953   7.924   1.343   2.431
19904WAT     H159954   7.906   1.310   2.338
19904WAT     H259955   7.873   1.427   2.447
19905WAT      O59956   5.127   0.869   3.855
19905WAT     H159957   5.115   0.783   3.806
19905WAT     H259958   5.078   0.942   3.808
19906WAT      O59959   9.619   3.859   9.677
19906WAT     H159960   9.569   3.846   9.591
19906WAT     H259961   9.567   3.820   9.752
19907WAT      O59962   5.939   2.598   5.503
19907WAT     H159963   5.996   2.680   5.513
19907WAT     H259964   5.994   2.516   5.518
19908WAT      O59965   0.971   1.181   1.682
19908WAT     H159966   1.025   1.259   1.714
19908WAT     H259967   0.923   1.206   1.598
19909WAT      O59968   3.658   2.537   4.807
19909WAT     H159969   3.758   2.540   4.810
19909WAT     H259970   3.628   2.515   4.714
19910WAT      O59971   7.598   8.641   0.176
19910WAT     H159972   7.675   8.584   0.147
19910WAT     H259973   7.611   8.669   0.271
19911WAT      O59974   1.975   3.321   2.201
19911WAT     H159975   1.981   3.288   2.295
19911WAT     H259976   2.063   3.358   2.173
19912WAT      O59977   1.633   4.757   9.445
19912WAT     H159978   1.612   4.685   9.511
19912WAT     H259979   1.554   4.817   9.435
19913WAT      O59980   9.532   3.900   2.995
19913WAT     H159981   9.484   3.882   2.909
19913WAT     H259982   9.588   3.982   2.985
19914WAT      O59983   9.316   4.233   8.391
19914WAT     H159984   9.333   4.322   8.434
19914WAT     H259985   9.338   4.160   8.456
19915WAT      O59986   6.616   6.841   9.510
19915WAT     H159987   6.691   6.844   9.576
19915WAT     H259988   6.595   6.934   9.479
19916WAT      O59989   2.944   2.480   3.723
19916WAT     H159990   2.952   2.573   3.757
19916WAT     H259991   3.020   2.462   3.659
19917WAT      O59992   4.046   5.486   3.021
19917WAT     H159993   4.074   5.504   3.115
19917WAT     H259994   4.122   5.443   2.972
19918WAT      O59995   3.160   3.583   5.229
19918WAT     H159996   3.117   3.512   5.284
19918WAT     H259997   3.153   3.560   5.132
19919WAT      O59998   9.306   6.275   1.398
19919WAT     H159999   9.330   6.315   1.487
19919WAT     H260000   9.285   6.348   1.333
19920WAT      O60001   5.646   6.259   4.138
19920WAT     H160002   5.597   6.337   4.177
19920WAT     H260003   5.675   6.281   4.045
19921WAT      O60004   3.019   7.516   3.127
19921WAT     H160005   2.953   7.462   3.181
19921WAT     H260006   3.098   7.458   3.104
19922WAT      O60007   1.172   9.834   5.241
19922WAT     H160008   1.237   9.859   5.313
19922WAT     H260009   1.087   9.885   5.253
19923WAT      O60010   2.287   1.607   6.850
19923WAT     H160011   2.200   1.618   6.898
19923WAT     H260012   2.362   1.622   6.913
19924WAT      O60013   1.853   9.112   2.654
19924WAT     H160014   1.941   9.100   2.608
19924WAT     H260015   1.779   9.083   2.594
19925WAT      O60016   3.769   9.422   8.358
19925WAT     H160017   3.684   9.428   8.305
19925WAT     H260018   3.845   9.456   8.303
19926WAT      O60019   7.283   6.343   2.481
19926WAT     H160020   7.366   6.340   2.425
19926WAT     H260021   7.303   6.306   2.572
19927WAT      O60022   5.850   1.472   4.926
19927WAT     H160023   5.813   1.508   5.012
19927WAT     H260024   5.806   1.386   4.903
19928WAT      O60025   0.347   9.326   0.540
19928WAT     H160026   0.340   9.271   0.624
19928WAT     H260027   0.305   9.415   0.554
19929WAT      O60028   2.573   6.802   8.616
19929WAT     H160029   2.611   6.717   8.580
19929WAT     H260030   2.621   6.827   8.700
19930WAT      O60031   5.226   3.180   9.511
19930WAT     H160032   5.213   3.117   9.588
19930WAT     H260033   5.212   3.274   9.542
19931WAT      O60034   5.707   5.157   1.965
19931WAT     H160035   5.778   5.137   1.897
19931WAT     H260036   5.638   5.086   1.963
19932WAT      O60037   6.217   3.298   1.082
19932WAT     H160038   6.172   3.331   1.166
19932WAT     H260039   6.179   3.209   1.057
19933WAT      O60040   0.413   4.007   1.107
19933WAT     H160041   0.317   4.012   1.082
19933WAT     H260042   0.424   3.946   1.186
19934WAT      O60043   5.012   0.477   2.297
19934WAT     H160044   4.989   0.383   2.273
19934WAT     H260045   5.104   0.499   2.263
19935WAT      O60046   5.962   4.124   1.558
19935WAT     H160047   6.009   4.173   1.631
19935WAT     H260048   5.917   4.043   1.596
19936WAT      O60049   6.449   2.516   5.916
19936WAT     H160050   6.516   2.583   5.883
19936WAT     H260051   6.409   2.548   6.002
19937WAT      O60052   8.326   1.629   3.055
19937WAT     H160053   8.254   1.579   3.102
19937WAT     H260054   8.406   1.570   3.045
19938WAT      O60055   1.884   7.367   7.212
19938WAT     H160056   1.858   7.299   7.143
19938WAT     H260057   1.802   7.412   7.248
19939WAT      O60058   0.572   0.270   2.219
19939WAT     H160059   0.585   0.297   2.315
19939WAT     H260060   0.558   0.352   2.163
19940WAT      O60061   4.411   5.049   2.269
19940WAT     H160062   4.343   5.020   2.336
19940WAT     H260063   4.391   5.006   2.181
19941WAT      O60064   5.544   2.218   4.840
19941WAT     H160065   5.577   2.306   4.805
19941WAT     H260066   5.585   2.201   4.930
19942WAT      O60067   3.471   8.690   0.707
19942WAT     H160068   3.445   8.744   0.627
19942WAT     H260069   3.389   8.646   0.745
19943WAT      O60070   5.212   6.434   2.005
19943WAT     H160071   5.189   6.523   1.966
19943WAT     H260072   5.218   6.441   2.104
19944WAT      O60073   0.484   6.935   2.854
19944WAT     H160074   0.477   6.871   2.930
19944WAT     H260075   0.502   7.027   2.889
19945WAT      O60076   4.554   2.787   7.731
19945WAT     H160077   4.521   2.877   7.759
19945WAT     H260078   4.546   2.723   7.807
19946WAT      O60079   3.127   0.109   3.499
19946WAT     H160080   3.080   0.152   3.422
19946WAT     H260081   3.223   0.092   3.474
19947WAT      O60082   0.258   8.566   3.450
19947WAT     H160083   0.345   8.573   3.402
19947WAT     H260084   0.246   8.472   3.484
19948WAT      O60085   2.634   0.282   9.367
19948WAT     H160086   2.553   0.298   9.425
19948WAT     H260087   2.618   0.321   9.277
19949WAT      O60088   8.394   1.962   1.091
19949WAT     H160089   8.324   1.934   1.025
19949WAT     H260090   8.471   2.002   1.042
19950WAT      O60091   4.283   5.507   9.211
19950WAT     H160092   4.294   5.591   9.158
19950WAT     H260093   4.317   5.521   9.304
19951WAT      O60094   7.746   2.312   5.304
19951WAT     H160095   7.774   2.255   5.226
19951WAT     H260096   7.677   2.263   5.357
19952WAT      O60097   5.582   2.359   1.063
19952WAT     H160098   5.621   2.278   1.108
19952WAT     H260099   5.490   2.337   1.030
19953WAT      O60100   2.470   4.985   4.353
19953WAT     H160101   2.429   5.060   4.300
19953WAT     H260102   2.403   4.913   4.367
19954WAT      O60103   0.899   8.974   1.469
19954WAT     H160104   0.981   8.946   1.519
19954WAT     H260105   0.896   8.927   1.381
19955WAT      O60106   5.216   4.746   8.524
19955WAT     H160107   5.127   4.774   8.559
19955WAT     H260108   5.229   4.781   8.431
19956WAT      O60109   5.141   2.321   5.495
19956WAT     H160110   5.154   2.330   5.593
19956WAT     H260111   5.188   2.395   5.447
19957WAT      O60112   0.447   2.965   9.858
19957WAT     H160113   0.538   2.929   9.838
19957WAT     H260114   0.384   2.936   9.785
19958WAT      O60115   3.595   7.944   1.354
19958WAT     H160116   3.559   7.969   1.264
19958WAT     H260117   3.679   7.994   1.372
19959WAT      O60118   2.481   6.644   1.326
19959WAT     H160119   2.483   6.744   1.319
19959WAT     H260120   2.574   6.608   1.311
19960WAT      O60121   7.664   4.524   5.990
19960WAT     H160122   7.680   4.621   6.007
19960WAT     H260123   7.657   4.508   5.891
19961WAT      O60124   1.770   0.415   1.319
19961WAT     H160125   1.730   0.326   1.299
19961WAT     H260126   1.700   0.476   1.354
19962WAT      O60127   4.731   7.140   2.341
19962WAT     H160128   4.708   7.121   2.245
19962WAT     H260129   4.672   7.212   2.376
19963WAT      O60130   6.492   8.508   5.826
19963WAT     H160131   6.484   8.417   5.787
19963WAT     H260132   6.402   8.551   5.832
19964WAT      O60133   0.578   2.478   2.182
19964WAT     H160134   0.636   2.559   2.196
19964WAT     H260135   0.509   2.499   2.114
19965WAT      O60136   1.098  -0.003   8.262
19965WAT     H160137   1.034  -0.031   8.333
19965WAT     H260138   1.086   0.095   8.243
19966WAT      O60139   5.238   9.359   7.740
19966WAT     H160140   5.156   9.303   7.729
19966WAT     H260141   5.308   9.306   7.790
19967WAT      O60142   1.531   5.183   3.265
19967WAT     H160143   1.598   5.124   3.220
19967WAT     H260144   1.538   5.276   3.229
19968WAT      O60145   9.771   0.993   8.465
19968WAT     H160146   9.795   0.926   8.395
19968WAT     H260147   9.848   1.005   8.527
19969WAT      O60148   7.067   8.919   7.953
19969WAT     H160149   7.008   8.979   7.899
19969WAT     H260150   7.089   8.963   8.040
19970WAT      O60151   8.213   8.440   7.354
19970WAT     H160152   8.218   8.350   7.397
19970WAT     H260153   8.120   8.476   7.362
19971WAT      O60154   6.140   4.006   8.075
19971WAT     H160155   6.211   4.059   8.123
19971WAT     H260156   6.102   4.062   8.001
19972WAT      O60157   3.249   6.465   7.558
19972WAT     H160158   3.252   6.553   7.606
19972WAT     H260159   3.269   6.391   7.622
19973WAT      O60160   4.331   5.333   8.779
19973WAT     H160161   4.427   5.343   8.805
19973WAT     H260162   4.282   5.284   8.851
19974WAT      O60163   6.387   6.753   4.588
19974WAT     H160164   6.477   6.735   4.628
19974WAT     H260165   6.319   6.759   4.661
19975WAT      O60166   6.261   8.400   3.939
19975WAT     H160167   6.296   8.330   4.001
19975WAT     H260168   6.211   8.469   3.991
19976WAT      O60169   7.458   3.028   8.369
19976WAT     H160170   7.502   3.114   8.396
19976WAT     H260171   7.393   3.044   8.295
19977WAT      O60172   3.285   1.818   7.937
19977WAT     H160173   3.382   1.792   7.937
19977WAT     H260174   3.260   1.849   8.029
19978WAT      O60175   4.052   7.826   6.607
19978WAT     H160176   4.044   7.735   6.566
19978WAT     H260177   3.961   7.866   6.616
19979WAT      O60178   5.599   1.089   5.568
19979WAT     H160179   5.595   1.064   5.471
19979WAT     H260180   5.506   1.101   5.603
19980WAT      O60181   3.082   5.775   9.144
19980WAT     H160182   3.007   5.799   9.082
19980WAT     H260183   3.091   5.676   9.149
19981WAT      O60184   7.537   9.298   8.154
19981WAT     H160185   7.514   9.393   8.136
19981WAT     H260186   7.608   9.268   8.090
19982WAT      O60187   9.517   0.136   7.105
19982WAT     H160188   9.526   0.105   7.010
19982WAT     H260189   9.530   0.235   7.109
19983WAT      O60190   6.218   1.575   0.428
19983WAT     H160191   6.269   1.489   0.422
19983WAT     H260192   6.210   1.602   0.524
19984WAT      O60193   7.912   1.053   8.525
19984WAT     H160194   7.842   1.046   8.453
19984WAT     H260195   7.986   1.111   8.494
19985WAT      O60196   5.524   6.170   0.249
19985WAT     H160197   5.457   6.218   0.305
19985WAT     H260198   5.530   6.074   0.277
19986WAT      O60199   7.148   2.457   4.420
19986WAT     H160200   7.120   2.482   4.513
19986WAT     H260201   7.109   2.369   4.396
19987WAT      O60202   7.396   6.844   4.348
19987WAT     H160203   7.363   6.931   4.385
19987WAT     H260204   7.345   6.769   4.390
19988WAT      O60205   3.385   0.156   0.268
19988WAT     H160206   3.365   0.152   0.366
19988WAT     H260207   3.468   0.210   0.254
19989WAT      O60208   0.929   9.674   2.827
19989WAT     H160209   0.844   9.673   2.776
19989WAT     H260210   0.987   9.597   2.798
19990WAT      O60211   5.464   9.812   4.444
19990WAT     H160212   5.477   9.718   4.413
19990WAT     H260213   5.550   9.863   4.434
19991WAT      O60214   8.311   5.444   4.213
19991WAT     H160215   8.398   5.442   4.262
19991WAT     H260216   8.270   5.534   4.222
19992WAT      O60217   0.465   1.628   1.453
19992WAT     H160218   0.480   1.601   1.548
19992WAT     H260219   0.509   1.716   1.436
19993WAT      O60220   4.177   7.441   8.307
19993WAT     H160221   4.233   7.377   8.359
19993WAT     H260222   4.219   7.532   8.309
19994WAT      O60223   0.005   8.197   9.784
19994WAT     H160224  -0.040   8.286   9.785
19994WAT     H260225  -0.007   8.153   9.872
19995WAT      O60226   8.800   6.711   3.461
19995WAT     H160227   8.840   6.673   3.545
19995WAT     H260228   8.866   6.706   3.387
19996WAT      O60229   6.517   1.724   2.117
19996WAT     H160230   6.585   1.733   2.190
19996WAT     H260231   6.561   1.740   2.028
19997WAT      O60232   4.905   7.491   3.171
19997WAT     H160233   4.916   7.590   3.170
19997WAT     H260234   4.862   7.463   3.257
19998WAT      O60235   5.915   4.361   3.992
19998WAT     H160236   5.993   4.422   3.979
19998WAT     H260237   5.894   4.316   3.905
19999WAT      O60238   2.852   2.518   1.394
19999WAT     H160239   2.778   2.515   1.327
19999WAT     H260240   2.822   2.569   1.474
20000WAT      O60241   2.622   5.239   5.612
20000WAT     H160242   2.568   5.156   5.624
20000WAT     H260243   2.589   5.290   5.532
20001WAT      O60244   5.242   1.241   9.331
20001WAT     H160245   5.234   1.213   9.426
20001WAT     H260246   5.156   1.225   9.283
20002WAT      O60247   9.166   5.177   7.012
20002WAT     H160248   9.096   5.207   6.948
20002WAT     H260249   9.124   5.118   7.082
20003WAT      O60250   3.268   4.863   2.235
20003WAT     H160251   3.216   4.894   2.156
20003WAT     H260252   3.207   4.816   2.299
20004WAT      O60253   5.774   0.728   2.662
20004WAT     H160254   5.813   0.810   2.702
20004WAT     H260255   5.714   0.683   2.728
20005WAT      O60256   0.712   4.474   8.024
20005WAT     H160257   0.743   4.387   8.061
20005WAT     H260258   0.744   4.549   8.082
20006WAT      O60259   9.436   6.683   8.453
20006WAT     H160260   9.530   6.718   8.450
20006WAT     H260261   9.429   6.615   8.527
20007WAT      O60262   8.141   0.484   3.333
20007WAT     H160263   8.145   0.397   3.284
20007WAT     H260264   8.220   0.539   3.309
20008WAT      O60265   8.713   1.499   5.732
20008WAT     H160266   8.649   1.573   5.714
20008WAT     H260267   8.776   1.527   5.806
20009WAT      O60268   0.126   8.350   7.382
20009WAT     H160269   0.037   8.383   7.414
20009WAT     H260270   0.194   8.359   7.455
20010WAT      O60271   0.415   2.568   6.346
20010WAT     H160272   0.499   2.579   6.292
20010WAT     H260273   0.438   2.567   6.443
20011WAT      O60274   1.456   6.412   8.125
20011WAT     H160275   1.520   6.476   8.084
20011WAT     H260276   1.366   6.456   8.133
20012WAT      O60277   9.335   3.285   6.009
20012WAT     H160278   9.399   3.263   5.936
20012WAT     H260279   9.286   3.369   5.987
20013WAT      O60280   9.763   0.119   8.114
20013WAT     H160281   9.674   0.137   8.071
20013WAT     H260282   9.786   0.194   8.176
20014WAT      O60283   7.474   4.270   1.543
20014WAT     H160284   7.432   4.360   1.550
20014WAT     H260285   7.552   4.264   1.606
20015WAT      O60286   6.507   7.468   8.346
20015WAT     H160287   6.487   7.473   8.444
20015WAT     H260288   6.566   7.543   8.319
20016WAT      O60289   4.836   4.540   4.887
20016WAT     H160290   4.804   4.469   4.824
20016WAT     H260291   4.790   4.627   4.865
20017WAT      O60292   5.368   5.798   2.721
20017WAT     H160293   5.331   5.734   2.653
20017WAT     H260294   5.412   5.874   2.674
20018WAT      O60295   7.352   2.889   8.623
20018WAT     H160296   7.344   2.797   8.585
20018WAT     H260297   7.369   2.954   8.549
20019WAT      O60298   7.047   1.830   7.856
20019WAT     H160299   6.958   1.816   7.901
20019WAT     H260300   7.067   1.928   7.852
20020WAT      O60301   9.351   3.115   7.077
20020WAT     H160302   9.343   3.178   7.154
20020WAT     H260303   9.269   3.122   7.020
20021WAT      O60304   1.012   9.493   1.708
20021WAT     H160305   1.019   9.515   1.611
20021WAT     H260306   1.023   9.395   1.722
20022WAT      O60307   8.394   7.056   4.884
20022WAT     H160308   8.482   7.034   4.841
20022WAT     H260309   8.407   7.069   4.982
20023WAT      O60310   5.724   5.005   3.802
20023WAT     H160311   5.652   5.055   3.848
20023WAT     H260312   5.802   5.066   3.786
20024WAT      O60313   5.390   5.285   9.061
20024WAT     H160314   5.312   5.227   9.087
20024WAT     H260315   5.474   5.246   9.098
20025WAT      O60316   5.944   4.099   1.299
20025WAT     H160317   5.933   4.113   1.397
20025WAT     H260318   5.860   4.060   1.261
20026WAT      O60319   4.104   5.431   4.140
20026WAT     H160320   4.148   5.445   4.052
20026WAT     H260321   4.159   5.473   4.212
20027WAT      O60322   2.211   7.398   5.071
20027WAT     H160323   2.305   7.413   5.040
20027WAT     H260324   2.174   7.484   5.107
20028WAT      O60325   1.342   4.518   5.068
20028WAT     H160326   1.245   4.495   5.079
20028WAT     H260327   1.352   4.582   4.992
20029WAT      O60328   3.619   7.783   5.334
20029WAT     H160329   3.525   7.750   5.327
20029WAT     H260330   3.622   7.880   5.307
20030WAT      O60331   8.733   5.953   5.203
20030WAT     H160332   8.682   5.989   5.125
20030WAT     H260333   8.749   6.025   5.270
20031WAT      O60334   7.840   6.778   0.562
20031WAT     H160335   7.789   6.841   0.503
20031WAT     H260336   7.916   6.738   0.511
20032WAT      O60337   8.550   3.049   0.181
20032WAT     H160338   8.614   3.114   0.141
20032WAT     H260339   8.572   3.036   0.278
20033WAT      O60340   3.664   6.562   5.724
20033WAT     H160341   3.593   6.576   5.792
20033WAT     H260342   3.741   6.624   5.742
20034WAT      O60343   7.842   3.666   8.612
20034WAT     H160344   7.812   3.761   8.610
20034WAT     H260345   7.919   3.657   8.675
20035WAT      O60346   2.424   1.071   0.717
20035WAT     H160347   2.386   1.080   0.809
20035WAT     H260348   2.445   0.975   0.699
20036WAT      O60349   1.104   5.528   9.562
20036WAT     H160350   1.031   5.461   9.569
20036WAT     H260351   1.168   5.501   9.491
20037WAT      O60352   5.203   5.083   0.938
20037WAT     H160353   5.282   5.143   0.929
20037WAT     H260354   5.218   5.020   1.013
20038WAT      O60355   1.246   2.091   5.678
20038WAT     H160356   1.168   2.114   5.737
20038WAT     H260357   1.308   2.169   5.672
20039WAT      O60358   3.787   1.684   1.253
20039WAT     H160359   3.867   1.732   1.288
20039WAT     H260360   3.796   1.586   1.273
20040WAT      O60361   5.457   8.399   9.729
20040WAT     H160362   5.487   8.357   9.814
20040WAT     H260363   5.494   8.348   9.651
20041WAT      O60364   0.898   3.959   4.389
20041WAT     H160365   0.904   3.880   4.329
20041WAT     H260366   0.802   3.985   4.401
20042WAT      O60367   8.166   4.148   8.850
20042WAT     H160368   8.077   4.111   8.825
20042WAT     H260369   8.155   4.237   8.894
20043WAT      O60370   8.167   3.702   7.430
20043WAT     H160371   8.132   3.714   7.338
20043WAT     H260372   8.211   3.787   7.460
20044WAT      O60373   1.081   7.184   8.085
20044WAT     H160374   1.164   7.130   8.103
20044WAT     H260375   1.092   7.275   8.125
20045WAT      O60376   0.284   8.132   7.843
20045WAT     H160377   0.349   8.116   7.768
20045WAT     H260378   0.206   8.183   7.809
20046WAT      O60379   2.292   8.774   3.652
20046WAT     H160380   2.365   8.804   3.590
20046WAT     H260381   2.304   8.819   3.741
20047WAT      O60382   1.878   3.167   3.524
20047WAT     H160383   1.889   3.070   3.503
20047WAT     H260384   1.894   3.183   3.621
20048WAT      O60385   9.714   6.748   6.359
20048WAT     H160386   9.718   6.798   6.446
20048WAT     H260387   9.628   6.696   6.355
20049WAT      O60388   8.865   4.120   9.403
20049WAT     H160389   8.864   4.193   9.472
20049WAT     H260390   8.782   4.127   9.347
20050WAT      O60391   2.503   1.501   0.838
20050WAT     H160392   2.435   1.575   0.843
20050WAT     H260393   2.556   1.499   0.923
20051WAT      O60394   4.695   8.795   5.133
20051WAT     H160395   4.605   8.786   5.092
20051WAT     H260396   4.693   8.867   5.203
20052WAT      O60397   9.527   5.362   0.906
20052WAT     H160398   9.580   5.406   0.834
20052WAT     H260399   9.511   5.266   0.881
20053WAT      O60400   3.922   1.149   9.558
20053WAT     H160401   3.907   1.050   9.563
20053WAT     H260402   4.001   1.167   9.499
20054WAT      O60403   7.540   9.486   4.471
20054WAT     H160404   7.547   9.474   4.571
20054WAT     H260405   7.584   9.408   4.426
20055WAT      O60406   2.717   0.124   7.395
20055WAT     H160407   2.705   0.221   7.413
20055WAT     H260408   2.794   0.089   7.449
20056WAT      O60409   8.921   1.678   0.238
20056WAT     H160410   8.885   1.766   0.270
20056WAT     H260411   8.856   1.637   0.174
20057WAT      O60412   0.070   2.737   0.566
20057WAT     H160413  -0.010   2.718   0.510
20057WAT     H260414   0.152   2.733   0.509
20058WAT      O60415   7.562   8.924   1.212
20058WAT     H160416   7.590   8.986   1.285
20058WAT     H260417   7.463   8.928   1.200
20059WAT      O60418   9.054   5.292   1.964
20059WAT     H160419   9.061   5.378   2.014
20059WAT     H260420   9.026   5.219   2.027
20060WAT      O60421   5.448   1.191   3.335
20060WAT     H160422   5.482   1.180   3.242
20060WAT     H260423   5.500   1.261   3.383
20061WAT      O60424   2.594   7.269   1.667
20061WAT     H160425   2.661   7.339   1.644
20061WAT     H260426   2.637   7.199   1.724
20062WAT      O60427   2.364   7.884   3.271
20062WAT     H160428   2.451   7.847   3.302
20062WAT     H260429   2.292   7.863   3.337
20063WAT      O60430   5.225   9.110   5.563
20063WAT     H160431   5.193   9.157   5.645
20063WAT     H260432   5.153   9.049   5.530
20064WAT      O60433   4.140   3.997   0.413
20064WAT     H160434   4.199   4.053   0.354
20064WAT     H260435   4.188   3.913   0.437
20065WAT      O60436   7.955   4.458   1.369
20065WAT     H160437   7.882   4.500   1.422
20065WAT     H260438   7.916   4.393   1.304
20066WAT      O60439   6.753   9.589   4.393
20066WAT     H160440   6.849   9.563   4.404
20066WAT     H260441   6.737   9.621   4.300
20067WAT      O60442   1.644   4.885   7.143
20067WAT     H160443   1.629   4.791   7.112
20067WAT     H260444   1.737   4.914   7.120
20068WAT      O60445   3.547   2.471   0.566
20068WAT     H160446   3.616   2.407   0.532
20068WAT     H260447   3.593   2.554   0.598
20069WAT      O60448   8.461   1.271   7.820
20069WAT     H160449   8.460   1.371   7.815
20069WAT     H260450   8.555   1.240   7.837
20070WAT      O60451   8.260   1.157   2.363
20070WAT     H160452   8.261   1.057   2.352
20070WAT     H260453   8.349   1.194   2.338
20071WAT      O60454   2.219   0.174   1.365
20071WAT     H160455   2.130   0.138   1.392
20071WAT     H260456   2.286   0.152   1.436
20072WAT      O60457   2.807   4.656   6.290
20072WAT     H160458   2.743   4.579   6.295
20072WAT     H260459   2.757   4.740   6.272
20073WAT      O60460   6.004   3.812   6.279
20073WAT     H160461   6.055   3.803   6.193
20073WAT     H260462   5.915   3.854   6.260
20074WAT      O60463   5.179   4.726   1.787
20074WAT     H160464   5.121   4.690   1.713
20074WAT     H260465   5.139   4.702   1.875
20075WAT      O60466   7.402   2.676   8.293
20075WAT     H160467   7.479   2.737   8.272
20075WAT     H260468   7.320   2.707   8.245
20076WAT      O60469   4.926   5.750   3.312
20076WAT     H160470   4.970   5.797   3.388
20076WAT     H260471   4.981   5.670   3.286
20077WAT      O60472   4.365   6.452   9.608
20077WAT     H160473   4.462   6.432   9.623
20077WAT     H260474   4.356   6.541   9.564
20078WAT      O60475   9.695   6.506   4.372
20078WAT     H160476   9.688   6.604   4.389
20078WAT     H260477   9.645   6.456   4.442
20079WAT      O60478   6.242   0.624   6.110
20079WAT     H160479   6.263   0.623   6.208
20079WAT     H260480   6.297   0.694   6.065
20080WAT      O60481   7.002   1.513   4.385
20080WAT     H160482   6.920   1.481   4.430
20080WAT     H260483   6.979   1.550   4.295
20081WAT      O60484   1.679   7.522   6.282
20081WAT     H160485   1.695   7.470   6.366
20081WAT     H260486   1.683   7.620   6.302
20082WAT      O60487   7.254   2.942   7.158
20082WAT     H160488   7.196   2.977   7.232
20082WAT     H260489   7.343   2.915   7.195
20083WAT      O60490   4.685   4.956   5.786
20083WAT     H160491   4.692   4.856   5.797
20083WAT     H260492   4.640   4.976   5.699
20084WAT      O60493   8.931   6.216   4.067
20084WAT     H160494   8.888   6.242   4.153
20084WAT     H260495   8.966   6.123   4.073
20085WAT      O60496   3.600   1.422   4.946
20085WAT     H160497   3.604   1.520   4.961
20085WAT     H260498   3.561   1.403   4.856
20086WAT      O60499   4.762   9.605   7.077
20086WAT     H160500   4.772   9.550   6.994
20086WAT     H260501   4.839   9.588   7.138
20087WAT      O60502   0.519   7.915   7.039
20087WAT     H160503   0.493   7.823   7.066
20087WAT     H260504   0.604   7.911   6.985
20088WAT      O60505   9.149   3.723   8.611
20088WAT     H160506   9.069   3.705   8.667
20088WAT     H260507   9.228   3.674   8.648
20089WAT      O60508   1.810   9.752   5.648
20089WAT     H160509   1.772   9.772   5.739
20089WAT     H260510   1.789   9.827   5.586
20090WAT      O60511   7.195   8.781   0.790
20090WAT     H160512   7.284   8.743   0.764
20090WAT     H260513   7.180   8.768   0.888
20091WAT      O60514   8.427   3.776   2.247
20091WAT     H160515   8.335   3.787   2.285
20091WAT     H260516   8.424   3.711   2.171
20092WAT      O60517   8.996   3.889   9.505
20092WAT     H160518   8.936   3.961   9.469
20092WAT     H260519   9.016   3.908   9.601
20093WAT      O60520   3.781   8.084   8.893
20093WAT     H160521   3.698   8.089   8.949
20093WAT     H260522   3.788   7.993   8.852
20094WAT      O60523   3.559   7.350   3.289
20094WAT     H160524   3.529   7.422   3.353
20094WAT     H260525   3.511   7.361   3.202
20095WAT      O60526   2.894   3.856   3.622
20095WAT     H160527   2.959   3.812   3.560
20095WAT     H260528   2.942   3.882   3.707
20096WAT      O60529   1.626   1.445   0.988
20096WAT     H160530   1.535   1.404   0.998
20096WAT     H260531   1.618   1.544   0.984
20097WAT      O60532   3.688   5.531   4.438
20097WAT     H160533   3.741   5.492   4.362
20097WAT     H260534   3.731   5.614   4.470
20098WAT      O60535   1.119   6.231   6.762
20098WAT     H160536   1.049   6.217   6.831
20098WAT     H260537   1.118   6.327   6.732
20099WAT      O60538   6.182   6.406   3.769
20099WAT     H160539   6.252   6.466   3.730
20099WAT     H260540   6.225   6.330   3.816
20100WAT      O60541   7.620   7.882   6.772
20100WAT     H160542   7.687   7.928   6.830
20100WAT     H260543   7.528   7.908   6.801
20101WAT      O60544   8.958   6.385   1.912
20101WAT     H160545   8.993   6.384   1.818
20101WAT     H260546   9.017   6.442   1.969
20102WAT      O60547   3.598   9.190   1.594
20102WAT     H160548   3.676   9.142   1.555
20102WAT     H260549   3.583   9.276   1.545
20103WAT      O60550   2.396   8.122   9.515
20103WAT     H160551   2.473   8.179   9.486
20103WAT     H260552   2.350   8.084   9.435
20104WAT      O60553   4.706   1.265   1.257
20104WAT     H160554   4.639   1.280   1.330
20104WAT     H260555   4.796   1.296   1.289
20105WAT      O60556   6.671   6.175   6.453
20105WAT     H160557   6.631   6.172   6.545
20105WAT     H260558   6.654   6.088   6.406
20106WAT      O60559   2.972   0.663   4.429
20106WAT     H160560   3.024   0.609   4.495
20106WAT     H260561   3.032   0.731   4.387
20107WAT      O60562   8.235   4.597   7.915
20107WAT     H160563   8.218   4.510   7.962
20107WAT     H260564   8.331   4.602   7.888
20108WAT      O60565   2.883   7.446   8.485
20108WAT     H160566   2.905   7.387   8.562
20108WAT     H260567   2.799   7.413   8.441
20109WAT      O60568   1.317   3.276   9.020
20109WAT     H160569   1.217   3.269   9.018
20109WAT     H260570   1.345   3.358   8.971
20110WAT      O60571   0.898   1.704   0.373
20110WAT     H160572   0.930   1.666   0.286
20110WAT     H260573   0.799   1.718   0.368
20111WAT      O60574   3.015   1.991   1.994
20111WAT     H160575   2.981   2.068   2.047
20111WAT     H260576   3.108   1.969   2.024
20112WAT      O60577   2.431   9.426   2.156
20112WAT     H160578   2.426   9.521   2.126
20112WAT     H260579   2.421   9.422   2.256
20113WAT      O60580   3.602   3.543   3.874
20113WAT     H160581   3.675   3.494   3.825
20113WAT     H260582   3.620   3.540   3.972
20114WAT      O60583   1.617   7.590   9.174
20114WAT     H160584   1.702   7.642   9.174
20114WAT     H260585   1.618   7.524   9.249
20115WAT      O60586   6.176   2.285   1.418
20115WAT     H160587   6.168   2.287   1.319
20115WAT     H260588   6.183   2.190   1.449
20116WAT      O60589   6.719   3.257   4.627
20116WAT     H160590   6.638   3.201   4.607
20116WAT     H260591   6.716   3.341   4.573
20117WAT      O60592   4.535   2.277   2.592
20117WAT     H160593   4.545   2.213   2.668
20117WAT     H260594   4.625   2.312   2.565
20118WAT      O60595   5.525   6.454   6.622
20118WAT     H160596   5.610   6.439   6.573
20118WAT     H260597   5.448   6.439   6.560
20119WAT      O60598   9.055   7.608   0.426
20119WAT     H160599   8.979   7.543   0.431
20119WAT     H260600   9.023   7.694   0.388
20120WAT      O60601   6.127   4.985   4.602
20120WAT     H160602   6.158   4.957   4.693
20120WAT     H260603   6.082   5.075   4.608
20121WAT      O60604   4.696   8.471   1.736
20121WAT     H160605   4.773   8.414   1.708
20121WAT     H260606   4.708   8.564   1.701
20122WAT      O60607   1.736   1.266   6.590
20122WAT     H160608   1.703   1.304   6.503
20122WAT     H260609   1.786   1.181   6.572
20123WAT      O60610   5.253   2.844   9.786
20123WAT     H160611   5.256   2.839   9.885
20123WAT     H260612   5.173   2.896   9.757
20124WAT      O60613   4.570   2.952   3.972
20124WAT     H160614   4.598   2.856   3.973
20124WAT     H260615   4.557   2.985   4.065
20125WAT      O60616   8.229   8.472   8.468
20125WAT     H160617   8.261   8.401   8.405
20125WAT     H260618   8.271   8.560   8.444
20126WAT      O60619   6.919   2.927   5.266
20126WAT     H160620   7.003   2.981   5.256
20126WAT     H260621   6.865   2.934   5.182
20127WAT      O60622   8.050   8.162   7.470
20127WAT     H160623   7.989   8.161   7.390
20127WAT     H260624   8.000   8.127   7.550
20128WAT      O60625   2.017   1.144   2.100
20128WAT     H160626   1.980   1.132   2.008
20128WAT     H260627   2.088   1.075   2.116
20129WAT      O60628   6.420   3.046   8.209
20129WAT     H160629   6.486   3.071   8.138
20129WAT     H260630   6.366   3.126   8.233
20130WAT      O60631   1.605   3.336   2.637
20130WAT     H160632   1.661   3.255   2.656
20130WAT     H260633   1.514   3.323   2.676
20131WAT      O60634   0.387   5.398   0.481
20131WAT     H160635   0.480   5.421   0.510
20131WAT     H260636   0.359   5.458   0.406
20132WAT      O60637   0.414   6.506   5.813
20132WAT     H160638   0.316   6.484   5.817
20132WAT     H260639   0.425   6.604   5.800
20133WAT      O60640   6.726   9.030   4.622
20133WAT     H160641   6.773   9.109   4.662
20133WAT     H260642   6.754   9.020   4.527
20134WAT      O60643   7.302   7.178   1.612
20134WAT     H160644   7.312   7.183   1.711
20134WAT     H260645   7.253   7.094   1.587
20135WAT      O60646   0.826   2.243   4.347
20135WAT     H160647   0.799   2.184   4.272
20135WAT     H260648   0.799   2.337   4.328
20136WAT      O60649   0.886   7.765   7.094
20136WAT     H160650   0.823   7.789   7.020
20136WAT     H260651   0.840   7.773   7.182
20137WAT      O60652   3.323   5.557   1.018
20137WAT     H160653   3.330   5.654   1.044
20137WAT     H260654   3.239   5.543   0.966
20138WAT      O60655   4.238   1.678   8.500
20138WAT     H160656   4.245   1.674   8.401
20138WAT     H260657   4.146   1.651   8.528
20139WAT      O60658   6.843   6.883   9.278
20139WAT     H160659   6.798   6.971   9.287
20139WAT     H260660   6.776   6.814   9.251
20140WAT      O60661   9.004   8.752   1.694
20140WAT     H160662   8.942   8.692   1.644
20140WAT     H260663   9.014   8.719   1.788
20141WAT      O60664   7.448   9.511   2.276
20141WAT     H160665   7.537   9.474   2.249
20141WAT     H260666   7.437   9.502   2.375
20142WAT      O60667   5.581   7.856   5.976
20142WAT     H160668   5.497   7.888   6.020
20142WAT     H260669   5.621   7.931   5.923
20143WAT      O60670   3.976   6.527   1.106
20143WAT     H160671   4.054   6.514   1.167
20143WAT     H260672   3.995   6.484   1.017
20144WAT      O60673   4.393   1.900   3.524
20144WAT     H160674   4.448   1.920   3.605
20144WAT     H260675   4.334   1.821   3.542
20145WAT      O60676   7.766   6.803   4.641
20145WAT     H160677   7.835   6.874   4.635
20145WAT     H260678   7.720   6.808   4.730
20146WAT      O60679   1.597   6.377   2.971
20146WAT     H160680   1.633   6.465   3.001
20146WAT     H260681   1.577   6.320   3.052
20147WAT      O60682   0.974   3.452   1.093
20147WAT     H160683   1.061   3.404   1.081
20147WAT     H260684   0.926   3.455   1.006
20148WAT      O60685   0.688   3.171   8.963
20148WAT     H160686   0.732   3.212   8.883
20148WAT     H260687   0.609   3.117   8.934
20149WAT      O60688   1.261   8.843   7.966
20149WAT     H160689   1.272   8.768   7.902
20149WAT     H260690   1.170   8.883   7.955
20150WAT      O60691   2.226   0.128   1.795
20150WAT     H160692   2.265   0.046   1.753
20150WAT     H260693   2.132   0.110   1.823
20151WAT      O60694   2.221   4.645   0.618
20151WAT     H160695   2.270   4.724   0.580
20151WAT     H260696   2.140   4.627   0.562
20152WAT      O60697   2.656   3.789   0.363
20152WAT     H160698   2.658   3.888   0.378
20152WAT     H260699   2.714   3.743   0.430
20153WAT      O60700   1.715   5.783   7.816
20153WAT     H160701   1.687   5.688   7.801
20153WAT     H260702   1.812   5.786   7.836
20154WAT      O60703   2.621   7.937   9.451
20154WAT     H160704   2.546   7.964   9.511
20154WAT     H260705   2.610   7.841   9.424
20155WAT      O60706   3.638   8.426   9.657
20155WAT     H160707   3.735   8.401   9.659
20155WAT     H260708   3.598   8.397   9.570
20156WAT      O60709   4.386   8.636   6.851
20156WAT     H160710   4.390   8.538   6.833
20156WAT     H260711   4.296   8.660   6.887
20157WAT      O60712   7.473   9.720   6.478
20157WAT     H160713   7.400   9.731   6.546
20157WAT     H260714   7.468   9.629   6.437
20158WAT      O60715   7.949   7.237   8.574
20158WAT     H160716   7.883   7.246   8.499
20158WAT     H260717   7.902   7.209   8.657
20159WAT      O60718   6.808   1.389   6.674
20159WAT     H160719   6.837   1.309   6.727
20159WAT     H260720   6.878   1.459   6.678
20160WAT      O60721   4.526   6.998   8.113
20160WAT     H160722   4.434   7.026   8.087
20160WAT     H260723   4.544   6.906   8.078
20161WAT      O60724   1.301   1.073   7.127
20161WAT     H160725   1.287   1.122   7.212
20161WAT     H260726   1.399   1.055   7.115
20162WAT      O60727   7.409   0.907   3.806
20162WAT     H160728   7.435   0.830   3.865
20162WAT     H260729   7.314   0.931   3.823
20163WAT      O60730   0.966   3.290   7.283
20163WAT     H160731   0.883   3.277   7.337
20163WAT     H260732   1.028   3.213   7.300
20164WAT      O60733   8.690   5.534   6.264
20164WAT     H160734   8.770   5.594   6.256
20164WAT     H260735   8.717   5.447   6.304
20165WAT      O60736   1.542   8.765   9.643
20165WAT     H160737   1.579   8.676   9.670
20165WAT     H260738   1.609   8.836   9.665
20166WAT      O60739   2.521   0.959   3.408
20166WAT     H160740   2.610   0.916   3.396
20166WAT     H260741   2.528   1.030   3.479
20167WAT      O60742   5.235   2.555   3.645
20167WAT     H160743   5.236   2.608   3.560
20167WAT     H260744   5.273   2.610   3.719
20168WAT      O60745   1.168   5.434   2.472
20168WAT     H160746   1.126   5.405   2.558
20168WAT     H260747   1.260   5.395   2.465
20169WAT      O60748   5.628   7.359   9.829
20169WAT     H160749   5.655   7.294   9.900
20169WAT     H260750   5.554   7.417   9.863
20170WAT      O60751   8.545   7.109   2.894
20170WAT     H160752   8.487   7.112   2.975
20170WAT     H260753   8.492   7.077   2.816
20171WAT      O60754   9.022   1.345   3.861
20171WAT     H160755   8.980   1.434   3.880
20171WAT     H260756   8.953   1.281   3.830
20172WAT      O60757   0.208   8.707   0.142
20172WAT     H160758   0.131   8.733   0.201
20172WAT     H260759   0.204   8.609   0.124
20173WAT      O60760   0.137   0.401   4.742
20173WAT     H160761   0.231   0.384   4.772
20173WAT     H260762   0.076   0.405   4.821
20174WAT      O60763   5.184   0.569   7.775
20174WAT     H160764   5.190   0.562   7.676
20174WAT     H260765   5.251   0.635   7.808
20175WAT      O60766   8.405   6.537   2.012
20175WAT     H160767   8.382   6.569   1.920
20175WAT     H260768   8.321   6.531   2.067
20176WAT      O60769   4.673   3.172   2.886
20176WAT     H160770   4.680   3.187   2.985
20176WAT     H260771   4.685   3.074   2.867
20177WAT      O60772   1.909   2.765   9.441
20177WAT     H160773   1.944   2.805   9.525
20177WAT     H260774   1.830   2.817   9.408
20178WAT      O60775   8.135   2.144   3.501
20178WAT     H160776   8.227   2.104   3.502
20178WAT     H260777   8.075   2.088   3.444
20179WAT      O60778   1.122   2.310   8.220
20179WAT     H160779   1.220   2.326   8.215
20179WAT     H260780   1.102   2.215   8.196
20180WAT      O60781   2.397   5.209   7.081
20180WAT     H160782   2.300   5.226   7.103
20180WAT     H260783   2.446   5.296   7.079
20181WAT      O60784   1.988   6.912   4.616
20181WAT     H160785   2.054   6.935   4.688
20181WAT     H260786   1.991   6.814   4.597
20182WAT      O60787   7.440   2.286   5.965
20182WAT     H160788   7.465   2.190   5.952
20182WAT     H260789   7.378   2.316   5.892
20183WAT      O60790   7.374   5.315   8.780
20183WAT     H160791   7.337   5.248   8.714
20183WAT     H260792   7.394   5.269   8.866
20184WAT      O60793   1.534   2.203   4.012
20184WAT     H160794   1.487   2.157   4.087
20184WAT     H260795   1.619   2.154   3.991
20185WAT      O60796   1.739   5.027   3.137
20185WAT     H160797   1.700   4.995   3.051
20185WAT     H260798   1.786   5.114   3.122
20186WAT      O60799   5.767   4.797   2.684
20186WAT     H160800   5.835   4.834   2.622
20186WAT     H260801   5.689   4.859   2.690
20187WAT      O60802   1.582   2.647   5.693
20187WAT     H160803   1.676   2.678   5.711
20187WAT     H260804   1.554   2.584   5.766
20188WAT      O60805   8.493   3.450   7.329
20188WAT     H160806   8.521   3.545   7.316
20188WAT     H260807   8.407   3.433   7.281
20189WAT      O60808   6.085   0.901   2.209
20189WAT     H160809   6.117   0.981   2.159
20189WAT     H260810   6.144   0.884   2.288
20190WAT      O60811   7.022   4.614   2.341
20190WAT     H160812   7.103   4.663   2.372
20190WAT     H260813   7.011   4.626   2.243
20191WAT      O60814   8.617   4.358   6.396
20191WAT     H160815   8.575   4.268   6.395
20191WAT     H260816   8.683   4.363   6.471
20192WAT      O60817   6.080   2.792   6.282
20192WAT     H160818   6.100   2.828   6.373
20192WAT     H260819   6.059   2.695   6.288
20193WAT      O60820   8.165   3.245   8.684
20193WAT     H160821   8.250   3.296   8.698
20193WAT     H260822   8.089   3.296   8.723
20194WAT      O60823   2.194   4.490   0.826
20194WAT     H160824   2.096   4.489   0.808
20194WAT     H260825   2.239   4.553   0.762
20195WAT      O60826   2.171   0.982   2.916
20195WAT     H160827   2.103   0.911   2.896
20195WAT     H260828   2.161   1.012   3.011
20196WAT      O60829   3.408   7.449   1.980
20196WAT     H160830   3.481   7.474   1.917
20196WAT     H260831   3.319   7.466   1.936
20197WAT      O60832   3.178   8.005   0.383
20197WAT     H160833   3.116   7.988   0.306
20197WAT     H260834   3.248   8.071   0.356
20198WAT      O60835   8.433   0.463   2.644
20198WAT     H160836   8.455   0.370   2.673
20198WAT     H260837   8.360   0.500   2.703
20199WAT      O60838   3.747   0.579   9.439
20199WAT     H160839   3.659   0.557   9.481
20199WAT     H260840   3.786   0.660   9.482
20200WAT      O60841   7.546   5.534   3.752
20200WAT     H160842   7.468   5.517   3.813
20200WAT     H260843   7.630   5.501   3.795
20201WAT      O60844   3.691   9.762   8.674
20201WAT     H160845   3.673   9.841   8.615
20201WAT     H260846   3.694   9.793   8.770
20202WAT      O60847   8.260   3.849   3.460
20202WAT     H160848   8.339   3.824   3.405
20202WAT     H260849   8.234   3.944   3.439
20203WAT      O60850   0.662   1.008   4.744
20203WAT     H160851   0.670   1.052   4.654
20203WAT     H260852   0.653   0.909   4.732
20204WAT      O60853   4.021   2.356   8.831
20204WAT     H160854   3.996   2.452   8.824
20204WAT     H260855   3.947   2.305   8.874
20205WAT      O60856   0.435   3.076   3.707
20205WAT     H160857   0.448   3.043   3.800
20205WAT     H260858   0.416   3.174   3.709
20206WAT      O60859   2.997   2.720   7.801
20206WAT     H160860   3.012   2.665   7.883
20206WAT     H260861   2.989   2.660   7.722
20207WAT      O60862   8.857   7.373   2.256
20207WAT     H160863   8.802   7.449   2.222
20207WAT     H260864   8.886   7.315   2.180
20208WAT      O60865   3.063   6.138   8.799
20208WAT     H160866   3.042   6.222   8.749
20208WAT     H260867   3.003   6.065   8.767
20209WAT      O60868   8.760   2.462   6.740
20209WAT     H160869   8.778   2.385   6.678
20209WAT     H260870   8.668   2.499   6.721
20210WAT      O60871   7.532   2.001   5.191
20210WAT     H160872   7.471   1.923   5.209
20210WAT     H260873   7.548   2.050   5.277
20211WAT      O60874   2.539   6.025   0.983
20211WAT     H160875   2.603   6.083   0.931
20211WAT     H260876   2.576   6.007   1.074
20212WAT      O60877   5.361   9.691   1.556
20212WAT     H160878   5.369   9.790   1.542
20212WAT     H260879   5.449   9.654   1.585
20213WAT      O60880   0.379   9.436   7.158
20213WAT     H160881   0.339   9.518   7.199
20213WAT     H260882   0.363   9.437   7.059
20214WAT      O60883   7.566   2.717   2.533
20214WAT     H160884   7.645   2.703   2.473
20214WAT     H260885   7.489   2.752   2.479
20215WAT      O60886   2.867   5.392   3.353
20215WAT     H160887   2.844   5.489   3.363
20215WAT     H260888   2.890   5.373   3.258
20216WAT      O60889   2.677   2.975   9.262
20216WAT     H160890   2.594   2.956   9.209
20216WAT     H260891   2.705   3.070   9.247
20217WAT      O60892   4.328   7.401   6.329
20217WAT     H160893   4.411   7.457   6.320
20217WAT     H260894   4.274   7.408   6.245
20218WAT      O60895   3.526   0.533   2.020
20218WAT     H160896   3.597   0.468   1.991
20218WAT     H260897   3.507   0.597   1.946
20219WAT      O60898   4.171   9.751   0.129
20219WAT     H160899   4.142   9.799   0.212
20219WAT     H260900   4.237   9.808   0.079
20220WAT      O60901   4.726   2.838   9.401
20220WAT     H160902   4.642   2.888   9.422
20220WAT     H260903   4.801   2.904   9.389
20221WAT      O60904   5.558   4.053   3.786
20221WAT     H160905   5.560   4.139   3.836
20221WAT     H260906   5.540   3.978   3.850
20222WAT      O60907   6.033   4.886   0.838
20222WAT     H160908   5.968   4.839   0.778
20222WAT     H260909   6.038   4.838   0.926
20223WAT      O60910   2.866   5.044   6.156
20223WAT     H160911   2.918   5.112   6.104
20223WAT     H260912   2.854   4.962   6.099
20224WAT      O60913   5.591   7.835   3.547
20224WAT     H160914   5.654   7.878   3.481
20224WAT     H260915   5.610   7.737   3.553
20225WAT      O60916   4.812   5.319   9.732
20225WAT     H160917   4.910   5.303   9.731
20225WAT     H260918   4.789   5.383   9.805
20226WAT      O60919   7.641   8.548   9.288
20226WAT     H160920   7.556   8.524   9.336
20226WAT     H260921   7.714   8.563   9.355
20227WAT      O60922   8.916   2.024   8.559
20227WAT     H160923   8.985   2.033   8.486
20227WAT     H260924   8.962   2.021   8.647
20228WAT      O60925   3.132   7.334   7.940
20228WAT     H160926   3.142   7.433   7.946
20228WAT     H260927   3.156   7.304   7.847
20229WAT      O60928   1.827   7.107   9.525
20229WAT     H160929   1.830   7.204   9.550
20229WAT     H260930   1.755   7.062   9.578
20230WAT      O60931   6.243   6.923   1.860
20230WAT     H160932   6.291   6.972   1.787
20230WAT     H260933   6.251   6.974   1.946
20231WAT      O60934   6.332   0.764   3.393
20231WAT     H160935   6.233   0.773   3.394
20231WAT     H260936   6.372   0.835   3.334
20232WAT      O60937   8.102   9.058   9.599
20232WAT     H160938   8.162   9.122   9.648
20232WAT     H260939   8.007   9.079   9.621
20233WAT      O60940   3.994   4.038   3.357
20233WAT     H160941   3.980   3.943   3.387
20233WAT     H260942   3.965   4.100   3.430
20234WAT      O60943   7.550   7.763   0.364
20234WAT     H160944   7.545   7.859   0.338
20234WAT     H260945   7.645   7.737   0.378
20235WAT      O60946   8.717   4.491   7.922
20235WAT     H160947   8.640   4.531   7.873
20235WAT     H260948   8.690   4.403   7.961
20236WAT      O60949   0.453   8.729   1.556
20236WAT     H160950   0.431   8.666   1.631
20236WAT     H260951   0.384   8.720   1.484
20237WAT      O60952   4.264   4.867   2.440
20237WAT     H160953   4.274   4.906   2.532
20237WAT     H260954   4.303   4.775   2.438
20238WAT      O60955   6.544   4.588   6.603
20238WAT     H160956   6.453   4.556   6.579
20238WAT     H260957   6.542   4.687   6.620
20239WAT      O60958   7.472   6.742   1.802
20239WAT     H160959   7.465   6.839   1.822
20239WAT     H260960   7.410   6.719   1.727
20240WAT      O60961   4.804   9.703   9.030
20240WAT     H160962   4.722   9.663   9.072
20240WAT     H260963   4.860   9.630   8.991
20241WAT      O60964   3.338   1.443   7.184
20241WAT     H160965   3.254   1.393   7.164
20241WAT     H260966   3.358   1.438   7.281
20242WAT      O60967   8.025   1.240   1.803
20242WAT     H160968   7.961   1.171   1.836
20242WAT     H260969   8.076   1.279   1.880
20243WAT      O60970   0.240   6.846   9.788
20243WAT     H160971   0.269   6.938   9.815
20243WAT     H260972   0.234   6.789   9.870
20244WAT      O60973   2.411   3.441   2.685
20244WAT     H160974   2.401   3.500   2.605
20244WAT     H260975   2.461   3.358   2.658
20245WAT      O60976   9.096   3.773   5.041
20245WAT     H160977   9.193   3.747   5.040
20245WAT     H260978   9.081   3.848   4.976
20246WAT      O60979   7.179   5.376   6.507
20246WAT     H160980   7.137   5.328   6.430
20246WAT     H260981   7.241   5.446   6.472
20247WAT      O60982   2.229   0.221   2.594
20247WAT     H160983   2.264   0.136   2.634
20247WAT     H260984   2.290   0.253   2.522
20248WAT      O60985   8.722   2.602   5.819
20248WAT     H160986   8.663   2.666   5.868
20248WAT     H260987   8.809   2.594   5.867
20249WAT      O60988   2.834   5.695   3.090
20249WAT     H160989   2.767   5.657   3.027
20249WAT     H260990   2.882   5.771   3.046
20250WAT      O60991   5.099   6.730   6.921
20250WAT     H160992   5.046   6.719   6.837
20250WAT     H260993   5.196   6.742   6.898
20251WAT      O60994   6.724   5.863   8.243
20251WAT     H160995   6.772   5.812   8.172
20251WAT     H260996   6.688   5.948   8.205
20252WAT      O60997   0.242   6.055   9.696
20252WAT     H160998   0.172   6.041   9.625
20252WAT     H260999   0.260   6.152   9.705
20253WAT      O61000   0.426   9.239   1.883
20253WAT     H161001   0.520   9.208   1.870
20253WAT     H261002   0.363   9.168   1.853
20254WAT      O61003   5.279   0.480   2.745
20254WAT     H161004   5.322   0.453   2.658
20254WAT     H261005   5.348   0.479   2.818
20255WAT      O61006   4.835   0.074   6.922
20255WAT     H161007   4.781  -0.010   6.914
20255WAT     H261008   4.779   0.152   6.896
20256WAT      O61009   9.431   6.788   6.615
20256WAT     H161010   9.449   6.878   6.655
20256WAT     H261011   9.357   6.795   6.548
20257WAT      O61012   4.242   2.182   7.503
20257WAT     H161013   4.288   2.094   7.489
20257WAT     H261014   4.238   2.202   7.601
20258WAT      O61015   8.721   5.348   0.178
20258WAT     H161016   8.796   5.412   0.158
20258WAT     H261017   8.693   5.302   0.094
20259WAT      O61018   8.108   6.624   6.515
20259WAT     H161019   8.145   6.566   6.588
20259WAT     H261020   8.181   6.681   6.478
20260WAT      O61021   6.448   4.562   4.458
20260WAT     H161022   6.375   4.626   4.478
20260WAT     H261023   6.421   4.470   4.486
20261WAT      O61024   2.311   9.592   3.003
20261WAT     H161025   2.286   9.554   3.091
20261WAT     H261026   2.251   9.669   2.981
20262WAT      O61027   0.610   8.821   5.710
20262WAT     H161028   0.666   8.758   5.656
20262WAT     H261029   0.543   8.865   5.650
20263WAT      O61030   6.828   1.509   4.651
20263WAT     H161031   6.887   1.464   4.718
20263WAT     H261032   6.792   1.442   4.587
20264WAT      O61033   3.573   9.599   3.522
20264WAT     H161034   3.642   9.658   3.564
20264WAT     H261035   3.525   9.548   3.593
20265WAT      O61036   1.313   7.942   5.226
20265WAT     H161037   1.312   8.004   5.148
20265WAT     H261038   1.400   7.893   5.229
20266WAT      O61039   2.459   7.601   0.338
20266WAT     H161040   2.542   7.618   0.392
20266WAT     H261041   2.478   7.529   0.270
20267WAT      O61042   4.549   2.636   1.963
20267WAT     H161043   4.462   2.686   1.956
20267WAT     H261044   4.547   2.575   2.042
20268WAT      O61045   9.084   6.753  -0.001
20268WAT     H161046   9.177   6.753   0.036
20268WAT     H261047   9.044   6.662   0.012
20269WAT      O61048   0.612   7.124   6.037
20269WAT     H161049   0.667   7.138   6.119
20269WAT     H261050   0.550   7.201   6.024
20270WAT      O61051   7.362   8.326   6.417
20270WAT     H161052   7.425   8.266   6.467
20270WAT     H261053   7.331   8.399   6.477
20271WAT      O61054   0.311   2.141   4.290
20271WAT     H161055   0.296   2.070   4.221
20271WAT     H261056   0.297   2.102   4.381
20272WAT      O61057   7.400   2.214   0.872
20272WAT     H161058   7.326   2.182   0.812
20272WAT     H261059   7.482   2.233   0.818
20273WAT      O61060   1.846   8.068   2.307
20273WAT     H161061   1.768   8.073   2.245
20273WAT     H261062   1.860   8.157   2.351
20274WAT      O61063   8.232   7.269   5.114
20274WAT     H161064   8.274   7.247   5.025
20274WAT     H261065   8.251   7.365   5.137
20275WAT      O61066   3.148   9.034   0.288
20275WAT     H161067   3.106   8.958   0.337
20275WAT     H261068   3.135   9.022   0.190
20276WAT      O61069   2.840   4.030   6.697
20276WAT     H161070   2.848   4.127   6.674
20276WAT     H261071   2.745   4.000   6.683
20277WAT      O61072   0.866   7.696   9.825
20277WAT     H161073   0.947   7.732   9.778
20277WAT     H261074   0.801   7.770   9.839
20278WAT      O61075   2.437   0.371   5.244
20278WAT     H161076   2.536   0.385   5.250
20278WAT     H261077   2.418   0.296   5.181
20279WAT      O61078   4.843   8.520   4.880
20279WAT     H161079   4.880   8.589   4.942
20279WAT     H261080   4.917   8.458   4.853
20280WAT      O61081   3.428   1.005   5.168
20280WAT     H161082   3.477   1.041   5.089
20280WAT     H261083   3.365   0.933   5.140
20281WAT      O61084   3.949   3.292   2.601
20281WAT     H161085   3.969   3.212   2.658
20281WAT     H261086   3.896   3.358   2.654
20282WAT      O61087   5.786   0.471   7.638
20282WAT     H161088   5.781   0.549   7.702
20282WAT     H261089   5.809   0.388   7.689
20283WAT      O61090   2.281   2.157   9.586
20283WAT     H161091   2.188   2.157   9.549
20283WAT     H261092   2.305   2.250   9.615
20284WAT      O61093   5.125   6.717   8.727
20284WAT     H161094   5.115   6.629   8.772
20284WAT     H261095   5.220   6.728   8.696
20285WAT      O61096   4.786   5.753   9.179
20285WAT     H161097   4.751   5.666   9.145
20285WAT     H261098   4.710   5.812   9.205
20286WAT      O61099   6.103   4.065   8.833
20286WAT     H161100   6.140   3.994   8.892
20286WAT     H261101   6.048   4.024   8.761
20287WAT      O61102   3.323   7.932   2.434
20287WAT     H161103   3.296   7.965   2.343
20287WAT     H261104   3.393   7.992   2.472
20288WAT      O61105   7.121   2.324   1.185
20288WAT     H161106   7.062   2.381   1.128
20288WAT     H261107   7.073   2.301   1.269
20289WAT      O61108   8.963   8.356   0.412
20289WAT     H161109   8.977   8.438   0.357
20289WAT     H261110   8.865   8.337   0.419
20290WAT      O61111   1.813   8.104   5.670
20290WAT     H161112   1.725   8.143   5.643
20290WAT     H261113   1.798   8.031   5.736
20291WAT      O61114   6.413   3.020   8.468
20291WAT     H161115   6.347   2.945   8.479
20291WAT     H261116   6.428   3.037   8.371
20292WAT      O61117   5.750   1.925   2.880
20292WAT     H161118   5.662   1.966   2.905
20292WAT     H261119   5.779   1.864   2.953
20293WAT      O61120   6.625   0.267   3.095
20293WAT     H161121   6.661   0.250   3.003
20293WAT     H261122   6.681   0.336   3.141
20294WAT      O61123   8.825   0.638   0.880
20294WAT     H161124   8.907   0.683   0.844
20294WAT     H261125   8.785   0.580   0.810
20295WAT      O61126   8.067   8.549   3.161
20295WAT     H161127   8.041   8.619   3.227
20295WAT     H261128   8.018   8.564   3.075
20296WAT      O61129   8.443   0.972   3.691
20296WAT     H161130   8.531   1.020   3.686
20296WAT     H261131   8.457   0.882   3.732
20297WAT      O61132   0.897   7.422   9.570
20297WAT     H161133   0.957   7.418   9.649
20297WAT     H261134   0.938   7.372   9.494
20298WAT      O61135   0.499   3.998   4.816
20298WAT     H161136   0.401   3.984   4.803
20298WAT     H261137   0.529   4.077   4.762
20299WAT      O61138   4.039   4.848   3.443
20299WAT     H161139   4.056   4.799   3.529
20299WAT     H261140   3.943   4.875   3.439
20300WAT      O61141   1.140   9.559   2.215
20300WAT     H161142   1.074   9.626   2.246
20300WAT     H261143   1.175   9.585   2.125
20301WAT      O61144   0.908   2.038   0.639
20301WAT     H161145   0.819   2.036   0.683
20301WAT     H261146   0.906   2.103   0.563
20302WAT      O61147   7.974   4.244   5.516
20302WAT     H161148   7.997   4.243   5.418
20302WAT     H261149   8.023   4.318   5.561
20303WAT      O61150   6.943   1.932   3.426
20303WAT     H161151   6.869   1.940   3.360
20303WAT     H261152   7.020   1.988   3.396
20304WAT      O61153   2.630   5.719   6.557
20304WAT     H161154   2.692   5.661   6.610
20304WAT     H261155   2.575   5.775   6.619
20305WAT      O61156   4.838   8.789   3.755
20305WAT     H161157   4.885   8.875   3.775
20305WAT     H261158   4.904   8.714   3.758
20306WAT      O61159   0.718   4.392   6.283
20306WAT     H161160   0.700   4.340   6.200
20306WAT     H261161   0.654   4.365   6.355
20307WAT      O61162   0.917   4.545   9.574
20307WAT     H161163   0.879   4.478   9.637
20307WAT     H261164   1.010   4.520   9.550
20308WAT      O61165   4.978   1.426   8.039
20308WAT     H161166   4.994   1.398   8.134
20308WAT     H261167   5.049   1.388   7.980
20309WAT      O61168   7.923   3.196   3.367
20309WAT     H161169   7.874   3.196   3.454
20309WAT     H261170   7.887   3.269   3.308
20310WAT      O61171   0.849   1.738   1.379
20310WAT     H161172   0.874   1.679   1.302
20310WAT     H261173   0.899   1.824   1.373
20311WAT      O61174   2.583   8.652   2.045
20311WAT     H161175   2.490   8.687   2.030
20311WAT     H261176   2.578   8.568   2.098
20312WAT      O61177   5.443   0.550   5.651
20312WAT     H161178   5.480   0.641   5.633
20312WAT     H261179   5.505   0.499   5.710
20313WAT      O61180   1.077   4.559   0.100
20313WAT     H161181   1.013   4.542   0.025
20313WAT     H261182   1.150   4.620   0.068
20314WAT      O61183   4.397   7.285   3.865
20314WAT     H161184   4.315   7.241   3.828
20314WAT     H261185   4.478   7.239   3.829
20315WAT      O61186   2.467   1.260   2.390
20315WAT     H161187   2.419   1.320   2.326
20315WAT     H261188   2.554   1.302   2.416
20316WAT      O61189   3.785   2.597   7.892
20316WAT     H161190   3.789   2.645   7.980
20316WAT     H261191   3.827   2.653   7.821
20317WAT      O61192   0.053   4.911   8.910
20317WAT     H161193   0.080   4.832   8.854
20317WAT     H261194  -0.017   4.882   8.976
20318WAT      O61195   1.956   6.706   0.406
20318WAT     H161196   2.006   6.781   0.362
20318WAT     H261197   1.910   6.740   0.488
20319WAT      O61198   0.955   4.782   1.269
20319WAT     H161199   0.898   4.853   1.229
20319WAT     H261200   1.043   4.777   1.220
20320WAT      O61201   3.383   0.387   6.122
20320WAT     H161202   3.428   0.463   6.077
20320WAT     H261203   3.349   0.322   6.054
20321WAT      O61204   3.945   9.363   0.291
20321WAT     H161205   3.928   9.461   0.292
20321WAT     H261206   4.042   9.346   0.272
20322WAT      O61207   6.453   4.079   7.701
20322WAT     H161208   6.410   4.167   7.680
20322WAT     H261209   6.549   4.093   7.722
20323WAT      O61210   5.488   2.036   8.926
20323WAT     H161211   5.484   2.004   8.832
20323WAT     H261212   5.431   1.977   8.984
20324WAT      O61213   1.382   2.003   8.822
20324WAT     H161214   1.311   2.057   8.776
20324WAT     H261215   1.348   1.910   8.836
20325WAT      O61216   2.363   0.848   8.249
20325WAT     H161217   2.411   0.800   8.176
20325WAT     H261218   2.269   0.813   8.255
20326WAT      O61219   6.241   7.647   3.418
20326WAT     H161220   6.191   7.565   3.388
20326WAT     H261221   6.339   7.627   3.421
20327WAT      O61222   4.691   9.257   3.815
20327WAT     H161223   4.744   9.232   3.734
20327WAT     H261224   4.614   9.193   3.825
20328WAT      O61225   1.877   6.477   2.705
20328WAT     H161226   1.862   6.396   2.648
20328WAT     H261227   1.934   6.542   2.654
20329WAT      O61228   4.197   7.533   5.852
20329WAT     H161229   4.189   7.453   5.912
20329WAT     H261230   4.145   7.609   5.891
20330WAT      O61231   2.194   7.589   4.184
20330WAT     H161232   2.098   7.562   4.191
20330WAT     H261233   2.204   7.684   4.215
20331WAT      O61234   8.714   5.095   9.236
20331WAT     H161235   8.688   5.058   9.147
20331WAT     H261236   8.689   5.192   9.241
20332WAT      O61237   9.462   8.047   5.426
20332WAT     H161238   9.518   8.038   5.508
20332WAT     H261239   9.375   8.090   5.450
20333WAT      O61240   5.149   8.342   7.805
20333WAT     H161241   5.156   8.340   7.904
20333WAT     H261242   5.232   8.302   7.765
20334WAT      O61243   9.070   6.193   2.970
20334WAT     H161244   9.105   6.223   3.059
20334WAT     H261245   8.975   6.164   2.980
20335WAT      O61246   7.778   7.370   5.074
20335WAT     H161247   7.865   7.359   5.122
20335WAT     H261248   7.784   7.450   5.014
20336WAT      O61249   9.208   0.310   6.090
20336WAT     H161250   9.138   0.356   6.035
20336WAT     H261251   9.244   0.232   6.039
20337WAT      O61252   7.162   6.416   2.098
20337WAT     H161253   7.112   6.333   2.123
20337WAT     H261254   7.200   6.458   2.180
20338WAT      O61255   4.591   5.979   2.263
20338WAT     H161256   4.541   6.065   2.273
20338WAT     H261257   4.604   5.959   2.166
20339WAT      O61258   1.759   4.472   3.649
20339WAT     H161259   1.844   4.420   3.659
20339WAT     H261260   1.719   4.452   3.559
20340WAT      O61261   3.455   0.958   1.237
20340WAT     H161262   3.411   1.045   1.261
20340WAT     H261263   3.437   0.891   1.309
20341WAT      O61264   8.901   0.690   3.083
20341WAT     H161265   8.990   0.671   3.042
20341WAT     H261266   8.832   0.697   3.011
20342WAT      O61267   0.350   9.495   5.810
20342WAT     H161268   0.371   9.446   5.725
20342WAT     H261269   0.421   9.563   5.827
20343WAT      O61270   2.156   8.958   2.829
20343WAT     H161271   2.150   8.897   2.750
20343WAT     H261272   2.223   9.030   2.810
20344WAT      O61273   0.758   7.150   2.551
20344WAT     H161274   0.663   7.123   2.564
20344WAT     H261275   0.808   7.138   2.637
20345WAT      O61276   3.998   1.700   5.349
20345WAT     H161277   3.931   1.653   5.291
20345WAT     H261278   4.090   1.685   5.312
20346WAT      O61279   7.860   8.903   7.535
20346WAT     H161280   7.841   8.842   7.458
20346WAT     H261281   7.933   8.864   7.592
20347WAT      O61282   0.216   2.974   1.563
20347WAT     H161283   0.129   3.008   1.599
20347WAT     H261284   0.288   3.042   1.579
20348WAT      O61285   5.721   8.602   7.266
20348WAT     H161286   5.742   8.697   7.288
20348WAT     H261287   5.754   8.582   7.173
20349WAT      O61288   8.499   1.444   1.077
20349WAT     H161289   8.424   1.445   1.143
20349WAT     H261290   8.471   1.393   0.995
20350WAT      O61291   8.899   3.110   3.154
20350WAT     H161292   8.897   3.182   3.222
20350WAT     H261293   8.826   3.126   3.087
20351WAT      O61294   9.667   8.030   5.599
20351WAT     H161295   9.672   8.030   5.699
20351WAT     H261296   9.746   7.983   5.561
20352WAT      O61297   1.569   0.836   6.563
20352WAT     H161298   1.557   0.869   6.657
20352WAT     H261299   1.560   0.736   6.562
20353WAT      O61300   6.032   3.784   3.034
20353WAT     H161301   6.117   3.759   2.987
20353WAT     H261302   5.990   3.861   2.987
20354WAT      O61303   1.008   9.357   9.273
20354WAT     H161304   1.081   9.416   9.239
20354WAT     H261305   1.035   9.261   9.263
20355WAT      O61306   4.651   6.748   9.771
20355WAT     H161307   4.664   6.814   9.697
20355WAT     H261308   4.564   6.766   9.817
20356WAT      O61309   9.017   1.769   2.850
20356WAT     H161310   9.056   1.845   2.798
20356WAT     H261311   8.979   1.701   2.787
20357WAT      O61312   0.504   9.257   1.032
20357WAT     H161313   0.553   9.198   1.096
20357WAT     H261314   0.471   9.338   1.080
20358WAT      O61315   8.951   6.717   1.562
20358WAT     H161316   8.959   6.671   1.650
20358WAT     H261317   9.040   6.755   1.536
20359WAT      O61318   4.392   8.522   0.020
20359WAT     H161319   4.372   8.616  -0.009
20359WAT     H261320   4.479   8.493  -0.020
20360WAT      O61321   7.612   4.291   2.722
20360WAT     H161322   7.666   4.222   2.771
20360WAT     H261323   7.552   4.246   2.657
20361WAT      O61324   6.808   1.975   2.220
20361WAT     H161325   6.893   2.013   2.258
20361WAT     H261326   6.731   2.033   2.246
20362WAT      O61327   7.123   1.617   7.219
20362WAT     H161328   7.128   1.631   7.120
20362WAT     H261329   7.030   1.631   7.251
20363WAT      O61330   1.359   1.475   1.168
20363WAT     H161331   1.313   1.422   1.096
20363WAT     H261332   1.359   1.422   1.253
20364WAT      O61333   4.590   6.287   7.605
20364WAT     H161334   4.558   6.242   7.522
20364WAT     H261335   4.676   6.335   7.586
20365WAT      O61336   7.975   7.751   1.661
20365WAT     H161337   7.955   7.685   1.589
20365WAT     H261338   7.950   7.843   1.630
20366WAT      O61339   8.543   5.866   2.941
20366WAT     H161340   8.540   5.938   3.010
20366WAT     H261341   8.509   5.780   2.980
20367WAT      O61342   9.452   0.777   0.410
20367WAT     H161343   9.358   0.746   0.403
20367WAT     H261344   9.477   0.785   0.507
20368WAT      O61345   2.774   6.870   1.260
20368WAT     H161346   2.775   6.770   1.263
20368WAT     H261347   2.686   6.904   1.292
20369WAT      O61348   9.836   1.298   6.845
20369WAT     H161349   9.764   1.342   6.791
20369WAT     H261350   9.799   1.275   6.935
20370WAT      O61351   9.665   0.591   3.955
20370WAT     H161352   9.655   0.506   3.903
20370WAT     H261353   9.737   0.580   4.024
20371WAT      O61354   9.255   0.140   2.047
20371WAT     H161355   9.157   0.152   2.062
20371WAT     H261356   9.303   0.225   2.066
20372WAT      O61357   2.279   8.596   5.393
20372WAT     H161358   2.232   8.684   5.396
20372WAT     H261359   2.356   8.601   5.329
20373WAT      O61360   5.542   2.201   5.466
20373WAT     H161361   5.499   2.238   5.548
20373WAT     H261362   5.494   2.117   5.439
20374WAT      O61363   0.634   6.714   9.492
20374WAT     H161364   0.696   6.654   9.541
20374WAT     H261365   0.550   6.728   9.546
20375WAT      O61366   8.920   9.402   6.615
20375WAT     H161367   9.000   9.342   6.614
20375WAT     H261368   8.838   9.348   6.598
20376WAT      O61369   4.252   4.339   9.304
20376WAT     H161370   4.252   4.241   9.281
20376WAT     H261371   4.311   4.388   9.239
20377WAT      O61372   8.526   2.928   6.438
20377WAT     H161373   8.451   2.881   6.391
20377WAT     H261374   8.607   2.929   6.379
20378WAT      O61375   5.970   0.595   4.870
20378WAT     H161376   5.970   0.694   4.886
20378WAT     H261377   6.058   0.567   4.830
20379WAT      O61378   1.708   2.672   8.846
20379WAT     H161379   1.629   2.717   8.887
20379WAT     H261380   1.786   2.679   8.907
20380WAT      O61381   4.917   0.270   4.812
20380WAT     H161382   4.987   0.198   4.807
20380WAT     H261383   4.835   0.233   4.856
20381WAT      O61384   5.058   0.565   7.002
20381WAT     H161385   5.000   0.572   6.921
20381WAT     H261386   5.004   0.584   7.084
20382WAT      O61387   9.051   5.556   3.127
20382WAT     H161388   9.132   5.500   3.146
20382WAT     H261389   8.998   5.513   3.053
20383WAT      O61390   6.267   9.508   6.076
20383WAT     H161391   6.298   9.594   6.035
20383WAT     H261392   6.332   9.479   6.147
20384WAT      O61393   5.648   3.996   1.561
20384WAT     H161394   5.653   3.943   1.477
20384WAT     H261395   5.566   3.969   1.613
20385WAT      O61396   4.821   9.297   5.355
20385WAT     H161397   4.814   9.326   5.260
20385WAT     H261398   4.917   9.289   5.381
20386WAT      O61399   2.726   2.282   0.192
20386WAT     H161400   2.741   2.209   0.259
20386WAT     H261401   2.628   2.295   0.179
20387WAT      O61402   4.386   0.472   7.844
20387WAT     H161403   4.385   0.569   7.819
20387WAT     H261404   4.348   0.417   7.770
20388WAT      O61405   4.485   5.166   3.081
20388WAT     H161406   4.514   5.153   3.176
20388WAT     H261407   4.455   5.079   3.043
20389WAT      O61408   1.749   3.734   7.225
20389WAT     H161409   1.849   3.734   7.225
20389WAT     H261410   1.715   3.824   7.251
20390WAT      O61411   2.593   1.880   9.833
20390WAT     H161412   2.535   1.809   9.794
20390WAT     H261413   2.595   1.870   9.933
20391WAT      O61414   7.388   9.567   3.106
20391WAT     H161415   7.318   9.635   3.126
20391WAT     H261416   7.419   9.525   3.191
20392WAT      O61417   8.665   3.241   0.792
20392WAT     H161418   8.678   3.316   0.856
20392WAT     H261419   8.600   3.268   0.721
20393WAT      O61420   4.974   7.197   1.297
20393WAT     H161421   5.015   7.286   1.317
20393WAT     H261422   5.044   7.135   1.262
20394WAT      O61423   4.777   7.266   1.684
20394WAT     H161424   4.781   7.182   1.630
20394WAT     H261425   4.687   7.309   1.671
20395WAT      O61426   5.384   2.620   1.003
20395WAT     H161427   5.304   2.575   1.043
20395WAT     H261428   5.465   2.600   1.058
20396WAT      O61429   5.998   3.786   0.508
20396WAT     H161430   6.019   3.835   0.423
20396WAT     H261431   6.083   3.769   0.559
20397WAT      O61432   4.734   9.473   5.550
20397WAT     H161433   4.643   9.498   5.516
20397WAT     H261434   4.773   9.402   5.492
20398WAT      O61435   6.623   7.251   6.599
20398WAT     H161436   6.536   7.263   6.646
20398WAT     H261437   6.658   7.340   6.569
20399WAT      O61438   7.623   6.936   1.549
20399WAT     H161439   7.608   7.035   1.557
20399WAT     H261440   7.554   6.897   1.488
20400WAT      O61441   8.172   6.692   1.669
20400WAT     H161442   8.231   6.769   1.694
20400WAT     H261443   8.227   6.608   1.669
20401WAT      O61444   7.785   3.718   0.025
20401WAT     H161445   7.691   3.694   0.048
20401WAT     H261446   7.848   3.655   0.071
20402WAT      O61447   9.413   4.322   1.941
20402WAT     H161448   9.402   4.230   1.980
20402WAT     H261449   9.324   4.366   1.932
20403WAT      O61450   9.554   7.724   5.477
20403WAT     H161451   9.502   7.747   5.559
20403WAT     H261452   9.600   7.805   5.443
20404WAT      O61453   3.813   4.357   1.652
20404WAT     H161454   3.890   4.349   1.716
20404WAT     H261455   3.847   4.345   1.558
20405WAT      O61456   1.016   9.374   2.445
20405WAT     H161457   1.045   9.402   2.353
20405WAT     H261458   0.933   9.423   2.470
20406WAT      O61459   6.388   6.310   5.136
20406WAT     H161460   6.431   6.379   5.077
20406WAT     H261461   6.313   6.353   5.187
20407WAT      O61462   3.048   3.798   8.616
20407WAT     H161463   3.100   3.879   8.590
20407WAT     H261464   3.097   3.748   8.688
20408WAT      O61465   8.515   3.492   6.943
20408WAT     H161466   8.448   3.418   6.934
20408WAT     H261467   8.522   3.519   7.038
20409WAT      O61468   9.364   1.943   2.195
20409WAT     H161469   9.406   1.992   2.119
20409WAT     H261470   9.390   1.986   2.281
20410WAT      O61471   9.458   6.046   0.093
20410WAT     H161472   9.501   6.135   0.074
20410WAT     H261473   9.438   6.040   0.191
20411WAT      O61474   5.890   9.395   9.005
20411WAT     H161475   5.927   9.356   9.089
20411WAT     H261476   5.959   9.390   8.933
20412WAT      O61477   7.234   9.199   0.513
20412WAT     H161478   7.320   9.248   0.495
20412WAT     H261479   7.205   9.150   0.431
20413WAT      O61480   9.295   1.200   1.468
20413WAT     H161481   9.387   1.212   1.505
20413WAT     H261482   9.243   1.139   1.528
20414WAT      O61483   9.581   4.076   3.630
20414WAT     H161484   9.628   4.036   3.551
20414WAT     H261485   9.585   4.012   3.707
20415WAT      O61486   3.982   3.506   6.741
20415WAT     H161487   3.973   3.550   6.830
20415WAT     H261488   3.920   3.428   6.736
20416WAT      O61489   2.618   5.051   4.099
20416WAT     H161490   2.579   5.141   4.082
20416WAT     H261491   2.608   5.027   4.196
20417WAT      O61492   0.550   2.609   8.054
20417WAT     H161493   0.563   2.511   8.069
20417WAT     H261494   0.463   2.625   8.008
20418WAT      O61495   7.338   4.179   9.511
20418WAT     H161496   7.267   4.112   9.489
20418WAT     H261497   7.304   4.271   9.492
20419WAT      O61498   8.689   5.698   9.258
20419WAT     H161499   8.609   5.679   9.202
20419WAT     H261500   8.765   5.639   9.229
20420WAT      O61501   8.396   5.188   3.118
20420WAT     H161502   8.457   5.133   3.175
20420WAT     H261503   8.307   5.196   3.162
20421WAT      O61504   2.620   6.833   9.122
20421WAT     H161505   2.647   6.878   9.037
20421WAT     H261506   2.520   6.821   9.123
20422WAT      O61507   1.693   1.211   1.894
20422WAT     H161508   1.708   1.113   1.905
20422WAT     H261509   1.777   1.260   1.916
20423WAT      O61510   8.390   9.069   1.693
20423WAT     H161511   8.333   9.125   1.752
20423WAT     H261512   8.456   9.018   1.748
20424WAT      O61513   8.620   8.587   3.112
20424WAT     H161514   8.578   8.675   3.134
20424WAT     H261515   8.679   8.598   3.031
20425WAT      O61516   8.141   5.238   4.118
20425WAT     H161517   8.064   5.230   4.181
20425WAT     H261518   8.208   5.303   4.155
20426WAT      O61519   7.373   6.601   8.062
20426WAT     H161520   7.321   6.527   8.105
20426WAT     H261521   7.470   6.575   8.057
20427WAT      O61522   7.671   9.823   4.457
20427WAT     H161523   7.755   9.806   4.510
20427WAT     H261524   7.692   9.885   4.381
20428WAT      O61525   0.208   5.723   8.561
20428WAT     H161526   0.112   5.718   8.591
20428WAT     H261527   0.259   5.648   8.602
20429WAT      O61528   9.073   9.478   8.266
20429WAT     H161529   9.031   9.560   8.307
20429WAT     H261530   9.171   9.478   8.286
20430WAT      O61531   8.845   2.030   2.733
20430WAT     H161532   8.854   2.038   2.634
20430WAT     H261533   8.768   1.969   2.754
20431WAT      O61534   7.971   2.145   2.578
20431WAT     H161535   7.928   2.220   2.528
20431WAT     H261536   8.044   2.105   2.523
20432WAT      O61537   2.801   6.437   9.293
20432WAT     H161538   2.890   6.396   9.273
20432WAT     H261539   2.793   6.454   9.391
20433WAT      O61540   4.358   0.043   1.947
20433WAT     H161541   4.392  -0.042   1.908
20433WAT     H261542   4.359   0.036   2.047
20434WAT      O61543   5.536   0.868   5.327
20434WAT     H161544   5.542   0.771   5.301
20434WAT     H261545   5.444   0.887   5.362
20435WAT      O61546   3.603   2.383   2.056
20435WAT     H161547   3.647   2.447   2.119
20435WAT     H261548   3.548   2.317   2.107
20436WAT      O61549   0.814   6.696   0.818
20436WAT     H161550   0.905   6.736   0.827
20436WAT     H261551   0.753   6.763   0.776
20437WAT      O61552   9.213   5.319   8.311
20437WAT     H161553   9.203   5.405   8.262
20437WAT     H261554   9.305   5.283   8.296
20438WAT      O61555   6.806   8.679   3.421
20438WAT     H161556   6.886   8.641   3.467
20438WAT     H261557   6.786   8.625   3.339
20439WAT      O61558   3.420   2.516   9.583
20439WAT     H161559   3.443   2.586   9.650
20439WAT     H261560   3.420   2.557   9.491
20440WAT      O61561   7.288   4.488   9.831
20440WAT     H161562   7.374   4.535   9.815
20440WAT     H261563   7.282   4.408   9.771
20441WAT      O61564   9.860   5.216   5.528
20441WAT     H161565   9.764   5.205   5.554
20441WAT     H261566   9.917   5.161   5.589
20442WAT      O61567   0.166   4.680   2.784
20442WAT     H161568   0.127   4.606   2.839
20442WAT     H261569   0.093   4.723   2.731
20443WAT      O61570   2.331   1.406   4.036
20443WAT     H161571   2.313   1.439   3.943
20443WAT     H261572   2.419   1.358   4.038
20444WAT      O61573   0.704   0.194   1.212
20444WAT     H161574   0.615   0.236   1.229
20444WAT     H261575   0.764   0.261   1.167
20445WAT      O61576   5.818   5.709   3.403
20445WAT     H161577   5.752   5.775   3.369
20445WAT     H261578   5.902   5.713   3.348
20446WAT      O61579   2.313   5.557   6.244
20446WAT     H161580   2.249   5.618   6.291
20446WAT     H261581   2.281   5.540   6.151
20447WAT      O61582   2.006   3.485   4.938
20447WAT     H161583   2.024   3.582   4.923
20447WAT     H261584   2.005   3.437   4.850
20448WAT      O61585   3.173   7.038   7.978
20448WAT     H161586   3.247   6.976   8.004
20448WAT     H261587   3.174   7.119   8.037
20449WAT      O61588   5.718   8.667   8.109
20449WAT     H161589   5.747   8.619   8.192
20449WAT     H261590   5.798   8.685   8.051
20450WAT      O61591   1.310   0.411   8.172
20450WAT     H161592   1.290   0.507   8.192
20450WAT     H261593   1.375   0.376   8.239
20451WAT      O61594   6.664   7.552   6.977
20451WAT     H161595   6.708   7.463   6.968
20451WAT     H261596   6.599   7.564   6.902
20452WAT      O61597   2.172   0.431   7.594
20452WAT     H161598   2.082   0.444   7.636
20452WAT     H261599   2.160   0.408   7.498
20453WAT      O61600   5.485   5.948   5.311
20453WAT     H161601   5.434   5.969   5.227
20453WAT     H261602   5.474   5.851   5.333
20454WAT      O61603   5.214   6.500   2.276
20454WAT     H161604   5.271   6.531   2.352
20454WAT     H261605   5.143   6.568   2.259
20455WAT      O61606   2.401   8.689   7.407
20455WAT     H161607   2.348   8.707   7.324
20455WAT     H261608   2.341   8.696   7.487
20456WAT      O61609   6.137   4.293   6.212
20456WAT     H161610   6.079   4.342   6.147
20456WAT     H261611   6.079   4.243   6.276
20457WAT      O61612   0.308   0.759   2.237
20457WAT     H161613   0.222   0.809   2.250
20457WAT     H261614   0.287   0.666   2.206
20458WAT      O61615   5.953   2.546   4.460
20458WAT     H161616   6.032   2.525   4.403
20458WAT     H261617   5.977   2.530   4.556
20459WAT      O61618   7.903   5.050   3.184
20459WAT     H161619   7.965   4.973   3.199
20459WAT     H261620   7.808   5.019   3.194
20460WAT      O61621   8.347   3.294   6.936
20460WAT     H161622   8.288   3.308   7.016
20460WAT     H261623   8.343   3.198   6.908
20461WAT      O61624   5.151   0.325   8.755
20461WAT     H161625   5.118   0.420   8.753
20461WAT     H261626   5.190   0.302   8.666
20462WAT      O61627   6.833   2.880   4.991
20462WAT     H161628   6.763   2.874   4.920
20462WAT     H261629   6.896   2.803   4.982
20463WAT      O61630   6.058   2.859   8.404
20463WAT     H161631   6.140   2.833   8.454
20463WAT     H261632   6.048   2.799   8.324
20464WAT      O61633   7.324   7.607   5.544
20464WAT     H161634   7.270   7.558   5.612
20464WAT     H261635   7.350   7.545   5.470
20465WAT      O61636   4.417   4.462   2.820
20465WAT     H161637   4.455   4.448   2.912
20465WAT     H261638   4.491   4.467   2.753
20466WAT      O61639   7.620   4.494   8.666
20466WAT     H161640   7.634   4.395   8.662
20466WAT     H261641   7.620   4.531   8.573
20467WAT      O61642   0.324   8.183   5.461
20467WAT     H161643   0.240   8.148   5.419
20467WAT     H261644   0.403   8.136   5.423
20468WAT      O61645   1.059   2.606   6.088
20468WAT     H161646   0.986   2.673   6.086
20468WAT     H261647   1.138   2.643   6.137
20469WAT      O61648   4.637   9.311   2.490
20469WAT     H161649   4.598   9.344   2.404
20469WAT     H261650   4.607   9.217   2.505
20470WAT      O61651   3.023   0.209   3.732
20470WAT     H161652   3.007   0.303   3.705
20470WAT     H261653   3.037   0.152   3.651
20471WAT      O61654   2.622   7.975   5.695
20471WAT     H161655   2.605   8.002   5.789
20471WAT     H261656   2.652   7.880   5.692
20472WAT      O61657   5.370   8.407   5.171
20472WAT     H161658   5.440   8.470   5.139
20472WAT     H261659   5.311   8.453   5.237
20473WAT      O61660   8.307   5.620   9.389
20473WAT     H161661   8.212   5.647   9.404
20473WAT     H261662   8.343   5.667   9.309
20474WAT      O61663   1.937   9.225   4.016
20474WAT     H161664   2.028   9.253   3.988
20474WAT     H261665   1.931   9.225   4.116
20475WAT      O61666   8.388   9.570   0.868
20475WAT     H161667   8.335   9.514   0.932
20475WAT     H261668   8.452   9.512   0.819
20476WAT      O61669   8.381   0.762   1.563
20476WAT     H161670   8.455   0.695   1.555
20476WAT     H261671   8.375   0.815   1.478
20477WAT      O61672   7.632   0.691   9.626
20477WAT     H161673   7.592   0.743   9.552
20477WAT     H261674   7.561   0.664   9.691
20478WAT      O61675   8.060   6.622   0.901
20478WAT     H161676   7.984   6.677   0.866
20478WAT     H261677   8.143   6.643   0.848
20479WAT      O61678   0.315   1.712   5.899
20479WAT     H161679   0.320   1.798   5.950
20479WAT     H261680   0.262   1.646   5.951
20480WAT      O61681   3.797   0.593   2.699
20480WAT     H161682   3.854   0.611   2.780
20480WAT     H261683   3.843   0.627   2.618
20481WAT      O61684   8.712   3.313   9.459
20481WAT     H161685   8.637   3.269   9.409
20481WAT     H261686   8.766   3.368   9.396
20482WAT      O61687   3.388   4.774   5.636
20482WAT     H161688   3.474   4.722   5.641
20482WAT     H261689   3.315   4.720   5.677
20483WAT      O61690   4.894   7.860   0.723
20483WAT     H161691   4.868   7.765   0.738
20483WAT     H261692   4.973   7.883   0.780
20484WAT      O61693   8.660   6.679   0.012
20484WAT     H161694   8.677   6.742  -0.064
20484WAT     H261695   8.650   6.586  -0.024
20485WAT      O61696   1.056   4.101   2.261
20485WAT     H161697   0.975   4.127   2.208
20485WAT     H261698   1.113   4.182   2.277
20486WAT      O61699   5.368   5.782   3.371
20486WAT     H161700   5.377   5.860   3.433
20486WAT     H261701   5.447   5.778   3.310
20487WAT      O61702   6.235   8.511   9.478
20487WAT     H161703   6.309   8.519   9.411
20487WAT     H261704   6.147   8.510   9.430
20488WAT      O61705   6.946   2.838   1.282
20488WAT     H161706   6.977   2.754   1.326
20488WAT     H261707   6.995   2.916   1.319
20489WAT      O61708   8.229   7.991   4.917
20489WAT     H161709   8.220   7.914   4.980
20489WAT     H261710   8.303   8.051   4.948
20490WAT      O61711   8.129   3.233   1.133
20490WAT     H161712   8.089   3.237   1.225
20490WAT     H261713   8.134   3.138   1.103
20491WAT      O61714   9.603   2.335   6.478
20491WAT     H161715   9.564   2.362   6.389
20491WAT     H261716   9.636   2.416   6.526
20492WAT      O61717   9.305   3.517   4.015
20492WAT     H161718   9.347   3.513   4.106
20492WAT     H261719   9.206   3.527   4.024
20493WAT      O61720   0.204   2.839   4.013
20493WAT     H161721   0.301   2.817   4.007
20493WAT     H261722   0.171   2.820   4.105
20494WAT      O61723   4.730   1.527   7.946
20494WAT     H161724   4.822   1.514   7.981
20494WAT     H261725   4.694   1.440   7.913
20495WAT      O61726   9.310   8.399   0.012
20495WAT     H161727   9.260   8.474  -0.033
20495WAT     H261728   9.255   8.315   0.006
20496WAT      O61729   0.348   6.444   2.182
20496WAT     H161730   0.250   6.429   2.193
20496WAT     H261731   0.364   6.514   2.113
20497WAT      O61732   6.188   2.282   1.134
20497WAT     H161733   6.287   2.295   1.132
20497WAT     H261734   6.143   2.358   1.088
20498WAT      O61735   1.542   2.277   4.787
20498WAT     H161736   1.624   2.230   4.821
20498WAT     H261737   1.569   2.364   4.745
20499WAT      O61738   4.710   8.285   0.622
20499WAT     H161739   4.805   8.302   0.649
20499WAT     H261740   4.708   8.249   0.529
20500WAT      O61741   6.824   5.063   2.047
20500WAT     H161742   6.776   4.977   2.030
20500WAT     H261743   6.853   5.067   2.143
20501WAT      O61744   7.514   8.354   9.558
20501WAT     H161745   7.509   8.276   9.496
20501WAT     H261746   7.547   8.324   9.648
20502WAT      O61747   0.181   5.276   8.016
20502WAT     H161748   0.126   5.274   8.100
20502WAT     H261749   0.224   5.366   8.006
20503WAT      O61750   2.331   5.416   2.498
20503WAT     H161751   2.394   5.464   2.438
20503WAT     H261752   2.250   5.388   2.446
20504WAT      O61753   4.629   0.259   0.011
20504WAT     H161754   4.633   0.189  -0.060
20504WAT     H261755   4.699   0.328  -0.007
20505WAT      O61756   1.651   6.391   6.921
20505WAT     H161757   1.735   6.443   6.932
20505WAT     H261758   1.577   6.434   6.974
20506WAT      O61759   2.425   9.787   0.532
20506WAT     H161760   2.346   9.764   0.476
20506WAT     H261761   2.509   9.757   0.486
20507WAT      O61762   2.234   4.015   2.811
20507WAT     H161763   2.210   4.110   2.791
20507WAT     H261764   2.267   3.971   2.727
20508WAT      O61765   0.237   5.104   8.900
20508WAT     H161766   0.176   5.025   8.888
20508WAT     H261767   0.183   5.183   8.930
20509WAT      O61768   7.910   4.550   5.040
20509WAT     H161769   7.902   4.635   4.988
20509WAT     H261770   7.885   4.473   4.981
20510WAT      O61771   3.849   8.687   4.249
20510WAT     H161772   3.871   8.593   4.278
20510WAT     H261773   3.881   8.751   4.318
20511WAT      O61774   4.104   4.256   0.143
20511WAT     H161775   4.039   4.331   0.157
20511WAT     H261776   4.191   4.280   0.185
20512WAT      O61777   5.881   6.326   2.718
20512WAT     H161778   5.817   6.355   2.646
20512WAT     H261779   5.972   6.361   2.698
20513WAT      O61780   6.932   2.219   5.954
20513WAT     H161781   6.847   2.272   5.964
20513WAT     H261782   6.986   2.256   5.878
20514WAT      O61783   3.907   6.889   1.658
20514WAT     H161784   3.997   6.861   1.693
20514WAT     H261785   3.875   6.823   1.590
20515WAT      O61786   1.403   9.385   6.733
20515WAT     H161787   1.450   9.319   6.791
20515WAT     H261788   1.466   9.418   6.662
20516WAT      O61789   3.044   8.474   3.690
20516WAT     H161790   3.072   8.510   3.601
20516WAT     H261791   3.125   8.465   3.749
20517WAT      O61792   7.367   3.538   3.804
20517WAT     H161793   7.297   3.609   3.811
20517WAT     H261794   7.454   3.581   3.779
20518WAT      O61795   1.522   8.676   4.079
20518WAT     H161796   1.551   8.735   4.003
20518WAT     H261797   1.422   8.672   4.082
20519WAT      O61798   3.504   3.478   1.252
20519WAT     H161799   3.570   3.409   1.223
20519WAT     H261800   3.545   3.569   1.244
20520WAT      O61801   3.479   8.198   4.539
20520WAT     H161802   3.489   8.227   4.444
20520WAT     H261803   3.466   8.278   4.597
20521WAT      O61804   0.527   3.825   1.583
20521WAT     H161805   0.626   3.818   1.568
20521WAT     H261806   0.507   3.816   1.680
20522WAT      O61807   4.796   6.172   0.686
20522WAT     H161808   4.703   6.148   0.660
20522WAT     H261809   4.810   6.270   0.675
20523WAT      O61810   8.110   1.697   7.301
20523WAT     H161811   8.071   1.743   7.221
20523WAT     H261812   8.199   1.659   7.277
20524WAT      O61813   6.492   9.001   7.474
20524WAT     H161814   6.424   8.978   7.543
20524WAT     H261815   6.540   8.918   7.445
20525WAT      O61816   3.148   8.098   7.427
20525WAT     H161817   3.055   8.095   7.391
20525WAT     H261818   3.157   8.033   7.502
20526WAT      O61819   7.448   7.912   1.240
20526WAT     H161820   7.409   7.835   1.291
20526WAT     H261821   7.385   7.990   1.245
20527WAT      O61822   2.347   6.139   4.503
20527WAT     H161823   2.360   6.152   4.405
20527WAT     H261824   2.270   6.076   4.518
20528WAT      O61825   8.501   5.674   0.914
20528WAT     H161826   8.423   5.724   0.951
20528WAT     H261827   8.474   5.627   0.830
20529WAT      O61828   1.351   4.042   1.416
20529WAT     H161829   1.302   3.978   1.474
20529WAT     H261830   1.299   4.128   1.409
20530WAT      O61831   4.947   2.079   5.142
20530WAT     H161832   5.007   2.087   5.222
20530WAT     H261833   4.919   2.171   5.113
20531WAT      O61834   2.454   2.155   1.297
20531WAT     H161835   2.517   2.211   1.351
20531WAT     H261836   2.403   2.094   1.357
20532WAT      O61837   5.764   5.463   3.529
20532WAT     H161838   5.777   5.556   3.496
20532WAT     H261839   5.702   5.463   3.608
20533WAT      O61840   0.691   3.338   9.200
20533WAT     H161841   0.614   3.276   9.185
20533WAT     H261842   0.720   3.377   9.113
20534WAT      O61843   4.447   8.345   1.708
20534WAT     H161844   4.427   8.390   1.621
20534WAT     H261845   4.542   8.363   1.734
20535WAT      O61846   9.407   2.266   6.017
20535WAT     H161847   9.402   2.172   5.982
20535WAT     H261848   9.495   2.280   6.061
20536WAT      O61849   0.624   8.147   9.337
20536WAT     H161850   0.684   8.100   9.401
20536WAT     H261851   0.625   8.245   9.356
20537WAT      O61852   9.201   4.459   2.011
20537WAT     H161853   9.245   4.512   2.083
20537WAT     H261854   9.154   4.520   1.948
20538WAT      O61855   6.973   4.406   6.183
20538WAT     H161856   6.922   4.457   6.113
20538WAT     H261857   7.013   4.471   6.248
20539WAT      O61858   1.358   6.667   9.225
20539WAT     H161859   1.436   6.717   9.265
20539WAT     H261860   1.273   6.703   9.264
20540WAT      O61861   6.020   0.659   7.302
20540WAT     H161862   6.094   0.673   7.235
20540WAT     H261863   5.992   0.748   7.339
20541WAT      O61864   4.797   0.525   9.603
20541WAT     H161865   4.857   0.580   9.544
20541WAT     H261866   4.754   0.453   9.549
20542WAT      O61867   8.865   4.520   6.309
20542WAT     H161868   8.947   4.477   6.273
20542WAT     H261869   8.787   4.457   6.301
20543WAT      O61870   9.871   6.677   9.052
20543WAT     H161871   9.855   6.755   8.992
20543WAT     H261872   9.841   6.700   9.145
20544WAT      O61873   2.373   8.499   5.136
20544WAT     H161874   2.406   8.456   5.052
20544WAT     H261875   2.355   8.429   5.204
20545WAT      O61876   5.045   1.073   8.106
20545WAT     H161877   4.955   1.035   8.130
20545WAT     H261878   5.075   1.034   8.019
20546WAT      O61879   2.015   6.589   4.593
20546WAT     H161880   1.980   6.531   4.520
20546WAT     H261881   2.113   6.603   4.580
20547WAT      O61882   5.280   7.432   4.023
20547WAT     H161883   5.241   7.359   3.967
20547WAT     H261884   5.245   7.426   4.116
20548WAT      O61885   4.714   8.513   6.897
20548WAT     H161886   4.663   8.544   6.977
20548WAT     H261887   4.812   8.510   6.918
20549WAT      O61888   4.457   0.157   2.754
20549WAT     H161889   4.374   0.134   2.703
20549WAT     H261890   4.527   0.189   2.690
20550WAT      O61891   2.433   8.276   1.946
20550WAT     H161892   2.447   8.319   1.857
20550WAT     H261893   2.447   8.343   2.019
20551WAT      O61894   2.373   7.803   9.176
20551WAT     H161895   2.472   7.808   9.164
20551WAT     H261896   2.348   7.714   9.213
20552WAT      O61897   9.452   9.296   3.064
20552WAT     H161898   9.391   9.338   2.997
20552WAT     H261899   9.539   9.275   3.021
20553WAT      O61900   2.363   4.087   3.298
20553WAT     H161901   2.315   4.167   3.334
20553WAT     H261902   2.440   4.118   3.242
20554WAT      O61903   9.106   1.268   7.527
20554WAT     H161904   9.149   1.287   7.615
20554WAT     H261905   9.006   1.267   7.539
20555WAT      O61906   3.906   5.967   8.592
20555WAT     H161907   4.005   5.953   8.592
20555WAT     H261908   3.869   5.938   8.503
20556WAT      O61909   7.829   8.149   9.320
20556WAT     H161910   7.735   8.154   9.352
20556WAT     H261911   7.849   8.230   9.264
20557WAT      O61912   0.465   5.811   2.755
20557WAT     H161913   0.462   5.762   2.668
20557WAT     H261914   0.495   5.905   2.740
20558WAT      O61915   4.783   2.913   2.193
20558WAT     H161916   4.784   2.869   2.283
20558WAT     H261917   4.837   2.998   2.197
20559WAT      O61918   0.887   6.543   0.259
20559WAT     H161919   0.896   6.460   0.205
20559WAT     H261920   0.962   6.548   0.325
20560WAT      O61921   5.941   3.651   9.669
20560WAT     H161922   5.944   3.555   9.642
20560WAT     H261923   6.019   3.700   9.629
20561WAT      O61924   0.068   9.508   5.728
20561WAT     H161925   0.154   9.490   5.777
20561WAT     H261926  -0.008   9.501   5.792
20562WAT      O61927   3.733   4.408   7.000
20562WAT     H161928   3.824   4.366   6.998
20562WAT     H261929   3.743   4.508   6.993
20563WAT      O61930   5.732   4.543   6.760
20563WAT     H161931   5.674   4.467   6.788
20563WAT     H261932   5.713   4.566   6.664
20564WAT      O61933   3.525   0.591   6.926
20564WAT     H161934   3.579   0.583   7.009
20564WAT     H261935   3.480   0.681   6.924
20565WAT      O61936   5.780   1.282   2.254
20565WAT     H161937   5.736   1.199   2.286
20565WAT     H261938   5.840   1.261   2.176
20566WAT      O61939   5.671  -0.006   3.462
20566WAT     H161940   5.639   0.058   3.392
20566WAT     H261941   5.741   0.039   3.518
20567WAT      O61942   5.224   1.366   7.374
20567WAT     H161943   5.168   1.407   7.302
20567WAT     H261944   5.165   1.319   7.439
20568WAT      O61945   5.772   7.772   6.239
20568WAT     H161946   5.868   7.796   6.255
20568WAT     H261947   5.741   7.817   6.155
20569WAT      O61948   6.164   0.320   5.495
20569WAT     H161949   6.221   0.386   5.445
20569WAT     H261950   6.209   0.231   5.496
20570WAT      O61951   9.860   0.686   4.976
20570WAT     H161952   9.879   0.730   5.064
20570WAT     H261953   9.915   0.602   4.969
20571WAT      O61954   3.488   8.811   5.912
20571WAT     H161955   3.538   8.725   5.911
20571WAT     H261956   3.471   8.839   6.007
20572WAT      O61957   9.349   1.544   1.371
20572WAT     H161958   9.369   1.486   1.292
20572WAT     H261959   9.271   1.602   1.351
20573WAT      O61960   8.478   3.028   4.588
20573WAT     H161961   8.387   3.028   4.630
20573WAT     H261962   8.470   3.003   4.492
20574WAT      O61963   7.358   8.918   2.474
20574WAT     H161964   7.377   8.929   2.572
20574WAT     H261965   7.277   8.860   2.462
20575WAT      O61966   1.011   3.991   1.583
20575WAT     H161967   1.031   4.056   1.509
20575WAT     H261968   1.094   3.941   1.607
20576WAT      O61969   1.642   1.685   6.356
20576WAT     H161970   1.576   1.717   6.289
20576WAT     H261971   1.653   1.586   6.348
20577WAT      O61972   8.630   7.440   1.888
20577WAT     H161973   8.652   7.479   1.978
20577WAT     H261974   8.629   7.340   1.894
20578WAT      O61975   6.759   8.612   1.252
20578WAT     H161976   6.710   8.699   1.245
20578WAT     H261977   6.709   8.550   1.312
20579WAT      O61978   2.621   5.836   9.022
20579WAT     H161979   2.574   5.863   8.938
20579WAT     H261980   2.609   5.908   9.091
20580WAT      O61981   5.096   8.922   6.550
20580WAT     H161982   5.061   8.840   6.596
20580WAT     H261983   5.042   8.939   6.467
20581WAT      O61984   3.946   0.324   2.769
20581WAT     H161985   3.939   0.225   2.773
20581WAT     H261986   3.995   0.358   2.850
20582WAT      O61987   1.339   3.528   4.131
20582WAT     H161988   1.356   3.616   4.086
20582WAT     H261989   1.424   3.496   4.174
20583WAT      O61990   3.681   9.439   7.139
20583WAT     H161991   3.776   9.422   7.113
20583WAT     H261992   3.642   9.510   7.080
20584WAT      O61993   0.802   1.881   9.684
20584WAT     H161994   0.752   1.818   9.744
20584WAT     H261995   0.767   1.874   9.591
20585WAT      O61996   1.481   1.886   8.246
20585WAT     H161997   1.520   1.822   8.180
20585WAT     H261998   1.538   1.968   8.250
20586WAT      O61999   7.846   7.540   0.729
20586WAT     H162000   7.880   7.552   0.823
20586WAT     H262001   7.912   7.488   0.676
20587WAT      O62002   8.649   8.466   9.563
20587WAT     H162003   8.692   8.435   9.648
20587WAT     H262004   8.685   8.556   9.538
20588WAT      O62005   0.710   7.750   7.307
20588WAT     H162006   0.724   7.826   7.371
20588WAT     H262007   0.615   7.719   7.312
20589WAT      O62008   1.274   3.834   6.055
20589WAT     H162009   1.183   3.826   6.015
20589WAT     H262010   1.311   3.742   6.070
20590WAT      O62011   1.585   3.798   4.377
20590WAT     H162012   1.573   3.877   4.438
20590WAT     H262013   1.508   3.735   4.389
20591WAT      O62014   8.216   2.746   2.837
20591WAT     H162015   8.305   2.702   2.843
20591WAT     H262016   8.149   2.695   2.891
20592WAT      O62017   4.193   4.940   1.521
20592WAT     H162018   4.161   4.870   1.458
20592WAT     H262019   4.227   4.897   1.605
20593WAT      O62020   9.214   4.894   0.202
20593WAT     H162021   9.202   4.984   0.244
20593WAT     H262022   9.150   4.883   0.126
20594WAT      O62023   0.832   7.888   4.718
20594WAT     H162024   0.899   7.957   4.746
20594WAT     H262025   0.747   7.933   4.691
20595WAT      O62026   7.160   4.893   2.214
20595WAT     H162027   7.159   4.852   2.305
20595WAT     H262028   7.087   4.962   2.208
20596WAT      O62029   1.286   5.357   3.353
20596WAT     H162030   1.254   5.333   3.445
20596WAT     H262031   1.350   5.287   3.322
20597WAT      O62032   0.568   1.426   4.872
20597WAT     H162033   0.521   1.514   4.885
20597WAT     H262034   0.615   1.426   4.784
20598WAT      O62035   6.075   5.431   9.798
20598WAT     H162036   6.025   5.495   9.857
20598WAT     H262037   6.170   5.460   9.789
20599WAT      O62038   0.378   6.645   7.733
20599WAT     H162039   0.380   6.716   7.805
20599WAT     H262040   0.452   6.661   7.668
20600WAT      O62041   3.491   6.885   5.855
20600WAT     H162042   3.468   6.977   5.888
20600WAT     H262043   3.583   6.861   5.885
20601WAT      O62044   2.558   3.002   8.822
20601WAT     H162045   2.572   3.092   8.782
20601WAT     H262046   2.510   3.011   8.910
20602WAT      O62047   5.160   4.378   2.458
20602WAT     H162048   5.134   4.448   2.525
20602WAT     H262049   5.155   4.417   2.366
20603WAT      O62050   0.985   4.611   9.158
20603WAT     H162051   1.043   4.677   9.205
20603WAT     H262052   0.960   4.537   9.221
20604WAT      O62053   7.650   1.208   2.440
20604WAT     H162054   7.598   1.227   2.357
20604WAT     H262055   7.617   1.122   2.481
20605WAT      O62056   9.331   3.207   4.192
20605WAT     H162057   9.300   3.178   4.102
20605WAT     H262058   9.251   3.222   4.251
20606WAT      O62059   3.986   5.268   5.707
20606WAT     H162060   4.085   5.280   5.705
20606WAT     H262061   3.949   5.309   5.790
20607WAT      O62062   1.789   9.114   0.978
20607WAT     H162063   1.878   9.069   0.973
20607WAT     H262064   1.785   9.188   0.912
20608WAT      O62065   1.596   4.334   6.299
20608WAT     H162066   1.549   4.293   6.220
20608WAT     H262067   1.668   4.395   6.266
20609WAT      O62068   5.266   6.715   6.536
20609WAT     H162069   5.172   6.715   6.571
20609WAT     H262070   5.278   6.637   6.474
20610WAT      O62071   9.516   2.991   7.740
20610WAT     H162072   9.476   2.912   7.787
20610WAT     H262073   9.475   3.075   7.775
20611WAT      O62074   7.693   5.529   7.290
20611WAT     H162075   7.774   5.576   7.254
20611WAT     H262076   7.661   5.463   7.222
20612WAT      O62077   2.421   2.500   9.472
20612WAT     H162078   2.406   2.519   9.375
20612WAT     H262079   2.514   2.465   9.485
20613WAT      O62080   2.869   3.569   3.229
20613WAT     H162081   2.843   3.549   3.323
20613WAT     H262082   2.934   3.645   3.228
20614WAT      O62083   0.321   0.834   1.102
20614WAT     H162084   0.331   0.887   1.187
20614WAT     H262085   0.361   0.744   1.114
20615WAT      O62086   3.889   4.126   6.717
20615WAT     H162087   3.820   4.196   6.698
20615WAT     H262088   3.861   4.040   6.674
20616WAT      O62089   0.074   2.637   7.189
20616WAT     H162090   0.068   2.539   7.207
20616WAT     H262091   0.128   2.652   7.106
20617WAT      O62092   5.535   3.148   6.042
20617WAT     H162093   5.603   3.219   6.026
20617WAT     H262094   5.564   3.090   6.118
20618WAT      O62095   1.542   9.521   9.118
20618WAT     H162096   1.486   9.601   9.098
20618WAT     H262097   1.527   9.452   9.047
20619WAT      O62098   5.446   4.162   9.241
20619WAT     H162099   5.503   4.148   9.322
20619WAT     H262100   5.375   4.229   9.261
20620WAT      O62101   4.990   0.718   0.551
20620WAT     H162102   4.921   0.713   0.623
20620WAT     H262103   5.028   0.627   0.535
20621WAT      O62104   8.963   4.995   3.696
20621WAT     H162105   8.887   5.049   3.733
20621WAT     H262106   9.027   4.972   3.769
20622WAT      O62107   6.609   7.104   5.136
20622WAT     H162108   6.623   7.128   5.232
20622WAT     H262109   6.696   7.112   5.087
20623WAT      O62110   9.565   8.798   7.462
20623WAT     H162111   9.600   8.740   7.535
20623WAT     H262112   9.575   8.752   7.374
20624WAT      O62113   4.350   3.844   1.935
20624WAT     H162114   4.384   3.750   1.944
20624WAT     H262115   4.260   3.851   1.979
20625WAT      O62116   7.749   5.248   8.112
20625WAT     H162117   7.731   5.345   8.094
20625WAT     H262118   7.671   5.209   8.161
20626WAT      O62119   5.081   4.121   2.010
20626WAT     H162120   5.046   4.214   1.999
20626WAT     H262121   5.007   4.059   2.036
20627WAT      O62122   2.055   0.351   4.753
20627WAT     H162123   2.053   0.362   4.654
20627WAT     H262124   2.080   0.257   4.776
20628WAT      O62125   6.268   4.115   5.539
20628WAT     H162126   6.246   4.081   5.448
20628WAT     H262127   6.257   4.214   5.542
20629WAT      O62128   0.855   5.541   1.265
20629WAT     H162129   0.770   5.501   1.300
20629WAT     H262130   0.866   5.634   1.301
20630WAT      O62131   7.671   7.972   1.463
20630WAT     H162132   7.674   7.887   1.411
20630WAT     H262133   7.620   8.041   1.411
20631WAT      O62134   7.590   9.242   5.948
20631WAT     H162135   7.545   9.329   5.966
20631WAT     H262136   7.640   9.247   5.861
20632WAT      O62137   0.372   5.208   6.979
20632WAT     H162138   0.370   5.279   7.049
20632WAT     H262139   0.362   5.118   7.023
20633WAT      O62140   5.779   1.432   6.107
20633WAT     H162141   5.695   1.459   6.061
20633WAT     H262142   5.850   1.501   6.092
20634WAT      O62143   1.230   1.763   8.809
20634WAT     H162144   1.293   1.721   8.743
20634WAT     H262145   1.140   1.776   8.765
20635WAT      O62146   7.675   3.402   2.844
20635WAT     H162147   7.717   3.311   2.851
20635WAT     H262148   7.585   3.393   2.800
20636WAT      O62149   4.973   1.652   8.376
20636WAT     H162150   4.877   1.671   8.392
20636WAT     H262151   4.992   1.555   8.396
20637WAT      O62152   6.852   0.685   0.893
20637WAT     H162153   6.836   0.609   0.831
20637WAT     H262154   6.783   0.683   0.966
20638WAT      O62155   0.044   9.009   6.241
20638WAT     H162156   0.114   9.076   6.218
20638WAT     H262157   0.010   8.965   6.157
20639WAT      O62158   5.533   0.515   1.498
20639WAT     H162159   5.587   0.432   1.509
20639WAT     H262160   5.442   0.502   1.538
20640WAT      O62161   8.566   1.582   1.514
20640WAT     H162162   8.591   1.679   1.510
20640WAT     H262163   8.619   1.532   1.445
20641WAT      O62164   6.433   7.142   5.896
20641WAT     H162165   6.429   7.054   5.942
20641WAT     H262166   6.492   7.135   5.815
20642WAT      O62167   6.914   8.759   6.328
20642WAT     H162168   6.964   8.830   6.278
20642WAT     H262169   6.851   8.802   6.392
20643WAT      O62170   0.276   2.244   5.413
20643WAT     H162171   0.224   2.312   5.362
20643WAT     H262172   0.229   2.156   5.410
20644WAT      O62173   0.058   6.668   1.296
20644WAT     H162174   0.047   6.724   1.214
20644WAT     H262175  -0.011   6.693   1.363
20645WAT      O62176   5.817   8.038   4.224
20645WAT     H162177   5.853   7.956   4.179
20645WAT     H262178   5.892   8.104   4.238
20646WAT      O62179   1.954   4.786   0.220
20646WAT     H162180   1.915   4.762   0.131
20646WAT     H262181   2.039   4.837   0.205
20647WAT      O62182   9.576   5.864   4.891
20647WAT     H162183   9.508   5.931   4.863
20647WAT     H262184   9.536   5.800   4.957
20648WAT      O62185   5.788   0.413   4.804
20648WAT     H162186   5.859   0.480   4.827
20648WAT     H262187   5.759   0.426   4.710
20649WAT      O62188   5.825   1.481   3.381
20649WAT     H162189   5.842   1.513   3.474
20649WAT     H262190   5.856   1.549   3.315
20650WAT      O62191   8.460   8.158   1.462
20650WAT     H162192   8.486   8.091   1.531
20650WAT     H262193   8.504   8.136   1.375
20651WAT      O62194   8.409   4.369   9.085
20651WAT     H162195   8.449   4.430   9.016
20651WAT     H262196   8.469   4.366   9.165
20652WAT      O62197   8.182   2.058   5.390
20652WAT     H162198   8.213   2.086   5.299
20652WAT     H262199   8.110   2.120   5.420
20653WAT      O62200   0.556   5.592   7.912
20653WAT     H162201   0.648   5.632   7.917
20653WAT     H262202   0.518   5.583   8.004
20654WAT      O62203   5.646   8.959   4.480
20654WAT     H162204   5.713   8.940   4.551
20654WAT     H262205   5.681   9.029   4.418
20655WAT      O62206   3.772   3.721   0.900
20655WAT     H162207   3.855   3.677   0.865
20655WAT     H262208   3.699   3.712   0.832
20656WAT      O62209   6.418   3.881   6.314
20656WAT     H162210   6.416   3.787   6.281
20656WAT     H262211   6.495   3.929   6.271
20657WAT      O62212   7.883   9.152   5.123
20657WAT     H162213   7.896   9.165   5.221
20657WAT     H262214   7.838   9.064   5.106
20658WAT      O62215   7.658   4.324   6.173
20658WAT     H162216   7.596   4.255   6.136
20658WAT     H262217   7.651   4.408   6.119
20659WAT      O62218   2.462   2.202   7.991
20659WAT     H162219   2.509   2.264   8.054
20659WAT     H262220   2.365   2.198   8.016
20660WAT      O62221   7.236   1.120   4.691
20660WAT     H162222   7.328   1.117   4.652
20660WAT     H262223   7.170   1.141   4.620
20661WAT      O62224   7.387   3.542   5.868
20661WAT     H162225   7.431   3.627   5.841
20661WAT     H262226   7.447   3.465   5.846
20662WAT      O62227   7.405   7.159   2.606
20662WAT     H162228   7.460   7.122   2.681
20662WAT     H262229   7.360   7.243   2.637
20663WAT      O62230   7.641   5.947   9.452
20663WAT     H162231   7.634   5.936   9.551
20663WAT     H262232   7.719   6.005   9.429
20664WAT      O62233   6.106   9.137   0.270
20664WAT     H162234   6.199   9.102   0.277
20664WAT     H262235   6.092   9.208   0.339
20665WAT      O62236   5.698   3.114   3.732
20665WAT     H162237   5.622   3.050   3.735
20665WAT     H262238   5.739   3.113   3.641
20666WAT      O62239   5.812   3.682   7.428
20666WAT     H162240   5.732   3.626   7.451
20666WAT     H262241   5.798   3.724   7.338
20667WAT      O62242   9.879   1.858   6.012
20667WAT     H162243   9.967   1.892   6.046
20667WAT     H262244   9.819   1.936   5.992
20668WAT      O62245   4.774   7.798   1.163
20668WAT     H162246   4.687   7.750   1.176
20668WAT     H262247   4.849   7.732   1.165
20669WAT      O62248   2.735   0.655   5.190
20669WAT     H162249   2.783   0.570   5.167
20669WAT     H262250   2.653   0.663   5.132
20670WAT      O62251   6.465   3.266   0.993
20670WAT     H162252   6.518   3.350   1.006
20670WAT     H262253   6.374   3.278   1.033
20671WAT      O62254   3.445   4.758   8.614
20671WAT     H162255   3.504   4.678   8.603
20671WAT     H262256   3.368   4.752   8.551
20672WAT      O62257   5.108   8.335   2.655
20672WAT     H162258   5.046   8.400   2.699
20672WAT     H262259   5.106   8.350   2.556
20673WAT      O62260   1.585   3.457   4.223
20673WAT     H162261   1.579   3.368   4.178
20673WAT     H262262   1.614   3.526   4.157
20674WAT      O62263   9.587   8.697   9.280
20674WAT     H162264   9.518   8.636   9.241
20674WAT     H262265   9.599   8.776   9.220
20675WAT      O62266   4.196   8.007   8.588
20675WAT     H162267   4.215   8.075   8.518
20675WAT     H262268   4.275   7.999   8.649
20676WAT      O62269   6.811   6.853   4.570
20676WAT     H162270   6.910   6.864   4.578
20676WAT     H262271   6.783   6.868   4.476
20677WAT      O62272   2.720   5.120   8.789
20677WAT     H162273   2.806   5.078   8.760
20677WAT     H262274   2.735   5.216   8.809
20678WAT      O62275   2.229   9.701   8.773
20678WAT     H162276   2.210   9.789   8.731
20678WAT     H262277   2.322   9.700   8.810
20679WAT      O62278   3.530   6.979   4.041
20679WAT     H162279   3.600   6.971   4.112
20679WAT     H262280   3.513   7.076   4.021
20680WAT      O62281   1.879   9.131   9.468
20680WAT     H162282   1.971   9.116   9.505
20680WAT     H262283   1.819   9.057   9.498
20681WAT      O62284   6.892   3.424   6.496
20681WAT     H162285   6.792   3.432   6.489
20681WAT     H262286   6.931   3.418   6.404
20682WAT      O62287   3.166   1.151   2.781
20682WAT     H162288   3.098   1.079   2.764
20682WAT     H262289   3.179   1.204   2.697
20683WAT      O62290   1.948   9.713   3.056
20683WAT     H162291   1.853   9.744   3.060
20683WAT     H262292   1.984   9.705   3.149
20684WAT      O62293   3.728   1.236   1.480
20684WAT     H162294   3.783   1.154   1.498
20684WAT     H262295   3.634   1.219   1.509
20685WAT      O62296   0.520   3.691   1.325
20685WAT     H162297   0.431   3.647   1.311
20685WAT     H262298   0.515   3.752   1.404
20686WAT      O62299   2.380   4.908   2.817
20686WAT     H162300   2.461   4.859   2.847
20686WAT     H262301   2.390   4.934   2.720
20687WAT      O62302   5.835   0.012   4.744
20687WAT     H162303   5.792  -0.074   4.770
20687WAT     H262304   5.898  -0.004   4.668
20688WAT      O62305   8.192   1.690   7.820
20688WAT     H162306   8.273   1.631   7.816
20688WAT     H262307   8.116   1.644   7.774
20689WAT      O62308   3.538   0.397   9.017
20689WAT     H162309   3.525   0.446   8.931
20689WAT     H262310   3.574   0.305   8.999
20690WAT      O62311   5.360   3.825   4.284
20690WAT     H162312   5.295   3.877   4.340
20690WAT     H262313   5.317   3.740   4.253
20691WAT      O62314   8.058   8.334   0.487
20691WAT     H162315   8.088   8.300   0.577
20691WAT     H262316   8.124   8.305   0.417
20692WAT      O62317   5.696   4.889   3.072
20692WAT     H162318   5.701   4.951   3.151
20692WAT     H262319   5.629   4.923   3.007
20693WAT      O62320   9.590   3.507   9.424
20693WAT     H162321   9.491   3.512   9.434
20693WAT     H262322   9.629   3.461   9.504
20694WAT      O62323   9.773   6.254   3.023
20694WAT     H162324   9.786   6.209   3.111
20694WAT     H262325   9.850   6.315   3.004
20695WAT      O62326   0.241   3.666   6.979
20695WAT     H162327   0.201   3.753   7.011
20695WAT     H262328   0.185   3.590   7.013
20696WAT      O62329   9.037   6.971   9.031
20696WAT     H162330   9.067   6.893   9.086
20696WAT     H262331   9.032   6.944   8.935
20697WAT      O62332   4.835   3.577   9.850
20697WAT     H162333   4.926   3.544   9.827
20697WAT     H262334   4.842   3.652   9.916
20698WAT      O62335   1.701   2.292   5.783
20698WAT     H162336   1.628   2.226   5.798
20698WAT     H262337   1.664   2.385   5.793
20699WAT      O62338   0.112   0.937   8.192
20699WAT     H162339   0.203   0.905   8.163
20699WAT     H262340   0.042   0.885   8.144
20700WAT      O62341   0.122   1.450   3.818
20700WAT     H162342   0.155   1.426   3.726
20700WAT     H262343   0.195   1.496   3.869
20701WAT      O62344   7.521   3.059   5.585
20701WAT     H162345   7.470   2.974   5.577
20701WAT     H262346   7.533   3.082   5.681
20702WAT      O62347   7.449   4.766   1.584
20702WAT     H162348   7.515   4.841   1.584
20702WAT     H262349   7.357   4.803   1.597
20703WAT      O62350   8.710   7.969   1.250
20703WAT     H162351   8.638   8.018   1.200
20703WAT     H262352   8.786   8.032   1.267
20704WAT      O62353   8.439   5.710   7.281
20704WAT     H162354   8.422   5.792   7.335
20704WAT     H262355   8.479   5.735   7.193
20705WAT      O62356   5.411   8.175   2.866
20705WAT     H162357   5.322   8.154   2.906
20705WAT     H262358   5.454   8.249   2.918
20706WAT      O62359   2.961   0.924   0.560
20706WAT     H162360   3.054   0.957   0.578
20706WAT     H262361   2.912   0.912   0.647
20707WAT      O62362   0.130   9.686   8.761
20707WAT     H162363   0.069   9.713   8.687
20707WAT     H262364   0.169   9.768   8.804
20708WAT      O62365   6.279   1.607   4.732
20708WAT     H162366   6.309   1.648   4.645
20708WAT     H262367   6.181   1.625   4.745
20709WAT      O62368   9.125   4.232   3.816
20709WAT     H162369   9.032   4.265   3.827
20709WAT     H262370   9.183   4.269   3.890
20710WAT      O62371   7.291   4.915   1.260
20710WAT     H162372   7.309   4.817   1.271
20710WAT     H262373   7.193   4.931   1.261
20711WAT      O62374   2.058   2.423   0.749
20711WAT     H162375   2.077   2.328   0.723
20711WAT     H262376   1.961   2.433   0.771
20712WAT      O62377   2.624   5.853   0.243
20712WAT     H162378   2.580   5.775   0.198
20712WAT     H262379   2.639   5.832   0.339
20713WAT      O62380   5.815   4.617   3.349
20713WAT     H162381   5.851   4.566   3.427
20713WAT     H262382   5.833   4.715   3.362
20714WAT      O62383   9.429   9.139   1.281
20714WAT     H162384   9.385   9.218   1.323
20714WAT     H262385   9.465   9.165   1.191
20715WAT      O62386   9.250   1.868   2.529
20715WAT     H162387   9.303   1.938   2.481
20715WAT     H262388   9.190   1.913   2.596
20716WAT      O62389   6.138   7.276   1.704
20716WAT     H162390   6.069   7.286   1.632
20716WAT     H262391   6.210   7.214   1.674
20717WAT      O62392   5.857   6.254   2.394
20717WAT     H162393   5.767   6.217   2.370
20717WAT     H262394   5.856   6.353   2.386
20718WAT      O62395   1.486   1.693   2.210
20718WAT     H162396   1.413   1.657   2.267
20718WAT     H262397   1.513   1.784   2.245
20719WAT      O62398   9.437   0.863   5.219
20719WAT     H162399   9.367   0.792   5.226
20719WAT     H262400   9.486   0.853   5.132
20720WAT      O62401   1.242   8.401   7.923
20720WAT     H162402   1.310   8.450   7.869
20720WAT     H262403   1.173   8.465   7.956
20721WAT      O62404   0.849   7.449   8.108
20721WAT     H162405   0.949   7.460   8.110
20721WAT     H262406   0.817   7.464   8.014
20722WAT      O62407   2.823   2.082   0.349
20722WAT     H162408   2.915   2.120   0.352
20722WAT     H262409   2.825   1.993   0.303
20723WAT      O62410   5.315   2.467   1.766
20723WAT     H162411   5.285   2.492   1.674
20723WAT     H262412   5.248   2.406   1.807
20724WAT      O62413   1.982   5.720   9.369
20724WAT     H162414   2.066   5.668   9.357
20724WAT     H262415   2.004   5.817   9.377
20725WAT      O62416   6.991   8.024   6.912
20725WAT     H162417   6.953   7.980   6.993
20725WAT     H262418   6.938   8.107   6.891
20726WAT      O62419   2.923   2.736   5.758
20726WAT     H162420   2.833   2.716   5.798
20726WAT     H262421   2.964   2.813   5.806
20727WAT      O62422   2.649   7.808   9.140
20727WAT     H162423   2.694   7.889   9.175
20727WAT     H262424   2.639   7.815   9.041
20728WAT      O62425   0.489   4.229   8.307
20728WAT     H162426   0.481   4.318   8.351
20728WAT     H262427   0.467   4.237   8.210
20729WAT      O62428   3.551   4.155   3.781
20729WAT     H162429   3.475   4.106   3.822
20729WAT     H262430   3.523   4.192   3.692
20730WAT      O62431   4.951   7.586   6.575
20730WAT     H162432   4.906   7.537   6.500
20730WAT     H262433   4.881   7.616   6.640
20731WAT      O62434   9.550   2.720   8.919
20731WAT     H162435   9.517   2.778   8.844
20731WAT     H262436   9.625   2.766   8.966
20732WAT      O62437   2.083   5.717   5.498
20732WAT     H162438   2.033   5.722   5.585
20732WAT     H262439   2.039   5.775   5.430
20733WAT      O62440   7.702   3.174   5.437
20733WAT     H162441   7.627   3.117   5.470
20733WAT     H262442   7.721   3.247   5.503
20734WAT      O62443   2.288   5.434   3.433
20734WAT     H162444   2.245   5.481   3.355
20734WAT     H262445   2.293   5.497   3.511
20735WAT      O62446   2.543   0.905   7.333
20735WAT     H162447   2.449   0.933   7.314
20735WAT     H262448   2.606   0.957   7.275
20736WAT      O62449   1.049   4.342   9.170
20736WAT     H162450   0.959   4.350   9.128
20736WAT     H262451   1.118   4.377   9.106
20737WAT      O62452   2.621   0.921   8.286
20737WAT     H162453   2.667   0.835   8.307
20737WAT     H262454   2.522   0.912   8.302
20738WAT      O62455   2.107   5.019   8.033
20738WAT     H162456   2.060   4.937   8.001
20738WAT     H262457   2.076   5.098   7.980
20739WAT      O62458   1.101   7.880   0.394
20739WAT     H162459   1.168   7.947   0.427
20739WAT     H262460   1.040   7.854   0.469
20740WAT      O62461   2.834   7.407   1.660
20740WAT     H162462   2.892   7.430   1.582
20740WAT     H262463   2.844   7.476   1.731
20741WAT      O62464   1.243   5.286   6.818
20741WAT     H162465   1.318   5.345   6.788
20741WAT     H262466   1.222   5.219   6.746
20742WAT      O62467   9.582   5.300   0.597
20742WAT     H162468   9.596   5.283   0.500
20742WAT     H262469   9.542   5.390   0.611
20743WAT      O62470   0.934   4.551   3.098
20743WAT     H162471   0.885   4.523   3.180
20743WAT     H262472   0.956   4.471   3.043
20744WAT      O62473   1.547   0.716   2.545
20744WAT     H162474   1.594   0.763   2.470
20744WAT     H262475   1.530   0.780   2.619
20745WAT      O62476   0.607   5.878   5.895
20745WAT     H162477   0.529   5.820   5.873
20745WAT     H262478   0.580   5.974   5.889
20746WAT      O62479   9.415   3.066   6.287
20746WAT     H162480   9.477   3.123   6.341
20746WAT     H262481   9.399   2.980   6.335
20747WAT      O62482   1.401   8.287   6.179
20747WAT     H162483   1.461   8.334   6.116
20747WAT     H262484   1.312   8.334   6.182
20748WAT      O62485   8.142   4.558   1.012
20748WAT     H162486   8.166   4.466   1.042
20748WAT     H262487   8.198   4.582   0.932
20749WAT      O62488   5.454   4.366   6.069
20749WAT     H162489   5.356   4.389   6.076
20749WAT     H262490   5.494   4.362   6.160
20750WAT      O62491   8.139   5.741   0.484
20750WAT     H162492   8.047   5.780   0.486
20750WAT     H262493   8.182   5.762   0.396
20751WAT      O62494   9.355   3.758   4.541
20751WAT     H162495   9.307   3.671   4.542
20751WAT     H262496   9.454   3.741   4.547
20752WAT      O62497   2.220   7.532   7.704
20752WAT     H162498   2.239   7.482   7.619
20752WAT     H262499   2.158   7.478   7.761
20753WAT      O62500   1.118   9.415   7.605
20753WAT     H162501   1.212   9.392   7.579
20753WAT     H262502   1.064   9.432   7.522
20754WAT      O62503   2.812   1.209   7.570
20754WAT     H162504   2.887   1.207   7.503
20754WAT     H262505   2.846   1.248   7.656
20755WAT      O62506   7.688   9.322   2.170
20755WAT     H162507   7.724   9.325   2.263
20755WAT     H262508   7.635   9.238   2.158
20756WAT      O62509   3.961   4.659   4.137
20756WAT     H162510   4.051   4.660   4.095
20756WAT     H262511   3.970   4.661   4.237
20757WAT      O62512   1.520   3.521   1.678
20757WAT     H162513   1.425   3.493   1.690
20757WAT     H262514   1.523   3.606   1.625
20758WAT      O62515   6.475   7.820   4.461
20758WAT     H162516   6.430   7.815   4.372
20758WAT     H262517   6.503   7.728   4.489
20759WAT      O62518   8.544   9.101   4.757
20759WAT     H162519   8.577   9.097   4.851
20759WAT     H262520   8.444   9.091   4.756
20760WAT      O62521   7.261   7.336   7.871
20760WAT     H162522   7.263   7.244   7.910
20760WAT     H262523   7.192   7.339   7.798
20761WAT      O62524   4.606   3.200   9.593
20761WAT     H162525   4.512   3.218   9.620
20761WAT     H262526   4.620   3.228   9.498
20762WAT      O62527   5.531   1.150   0.617
20762WAT     H162528   5.518   1.068   0.672
20762WAT     H262529   5.629   1.162   0.598
20763WAT      O62530   7.638   1.957   6.916
20763WAT     H162531   7.658   1.863   6.945
20763WAT     H262532   7.618   2.013   6.996
20764WAT      O62533   7.590   3.681   3.718
20764WAT     H162534   7.627   3.644   3.633
20764WAT     H262535   7.654   3.747   3.757
20765WAT      O62536   0.403   4.174   8.741
20765WAT     H162537   0.500   4.169   8.718
20765WAT     H262538   0.388   4.247   8.807
20766WAT      O62539   3.675   9.600   6.783
20766WAT     H162540   3.615   9.536   6.832
20766WAT     H262541   3.710   9.668   6.847
20767WAT      O62542   0.057   2.183   2.583
20767WAT     H162543   0.040   2.266   2.530
20767WAT     H262544  -0.002   2.182   2.664
20768WAT      O62545   4.561   4.865   7.512
20768WAT     H162546   4.473   4.877   7.559
20768WAT     H262547   4.561   4.920   7.428
20769WAT      O62548   7.538   3.859   0.522
20769WAT     H162549   7.542   3.761   0.543
20769WAT     H262550   7.588   3.910   0.592
20770WAT      O62551   2.121   4.303   9.062
20770WAT     H162552   2.214   4.266   9.070
20770WAT     H262553   2.116   4.390   9.112
20771WAT      O62554   9.546   0.146   7.935
20771WAT     H162555   9.452   0.167   7.962
20771WAT     H262556   9.545   0.079   7.860
20772WAT      O62557   3.518   0.022   9.453
20772WAT     H162558   3.435  -0.021   9.418
20772WAT     H262559   3.556   0.084   9.385
20773WAT      O62560   8.725   9.739   2.395
20773WAT     H162561   8.766   9.695   2.475
20773WAT     H262562   8.773   9.825   2.377
20774WAT      O62563   7.838   7.363   5.791
20774WAT     H162564   7.835   7.296   5.717
20774WAT     H262565   7.862   7.453   5.753
20775WAT      O62566   8.142   7.416   7.290
20775WAT     H162567   8.238   7.443   7.278
20775WAT     H262568   8.127   7.390   7.386
20776WAT      O62569   0.516   6.769   4.069
20776WAT     H162570   0.532   6.867   4.054
20776WAT     H262571   0.426   6.756   4.110
20777WAT      O62572   3.679   8.048   7.338
20777WAT     H162573   3.683   8.120   7.407
20777WAT     H262574   3.686   8.090   7.247
20778WAT      O62575   2.736   7.203   2.425
20778WAT     H162576   2.707   7.263   2.350
20778WAT     H262577   2.693   7.113   2.413
20779WAT      O62578   5.882   4.362   5.443
20779WAT     H162579   5.955   4.404   5.390
20779WAT     H262580   5.900   4.372   5.540
20780WAT      O62581   7.117   7.660   0.338
20780WAT     H162582   7.207   7.626   0.312
20780WAT     H262583   7.063   7.680   0.257
20781WAT      O62584   1.927   0.515   4.928
20781WAT     H162585   1.977   0.449   4.872
20781WAT     H262586   1.830   0.491   4.929
20782WAT      O62587   5.997   2.941   6.530
20782WAT     H162588   5.943   3.025   6.526
20782WAT     H262589   5.944   2.870   6.578
20783WAT      O62590   4.790   9.808   7.972
20783WAT     H162591   4.887   9.795   7.991
20783WAT     H262592   4.739   9.806   8.058
20784WAT      O62593   7.518   3.571   6.358
20784WAT     H162594   7.516   3.490   6.300
20784WAT     H262595   7.447   3.635   6.329
20785WAT      O62596   7.153   7.311   4.206
20785WAT     H162597   7.156   7.408   4.230
20785WAT     H262598   7.115   7.301   4.114
20786WAT      O62599   4.406   1.273   5.322
20786WAT     H162600   4.333   1.237   5.263
20786WAT     H262601   4.475   1.318   5.265
20787WAT      O62602   0.101   8.896   3.880
20787WAT     H162603   0.052   8.861   3.800
20787WAT     H262604   0.186   8.940   3.850
20788WAT      O62605   6.674   0.336   7.232
20788WAT     H162606   6.634   0.351   7.141
20788WAT     H262607   6.629   0.395   7.299
20789WAT      O62608   1.295   8.597   6.376
20789WAT     H162609   1.274   8.684   6.422
20789WAT     H262610   1.372   8.553   6.422
20790WAT      O62611   7.664   9.717   0.060
20790WAT     H162612   7.695   9.635   0.011
20790WAT     H262613   7.727   9.792   0.041
20791WAT      O62614   0.824   6.382   1.209
20791WAT     H162615   0.782   6.408   1.122
20791WAT     H262616   0.872   6.460   1.248
20792WAT      O62617   4.794   3.421   1.964
20792WAT     H162618   4.773   3.514   1.934
20792WAT     H262619   4.821   3.366   1.886
20793WAT      O62620   7.795   1.274   9.760
20793WAT     H162621   7.840   1.345   9.705
20793WAT     H262622   7.767   1.198   9.701
20794WAT      O62623   8.314   5.387   5.663
20794WAT     H162624   8.372   5.440   5.600
20794WAT     H262625   8.319   5.427   5.754
20795WAT      O62626   9.840   5.474   7.360
20795WAT     H162627   9.825   5.386   7.315
20795WAT     H262628   9.763   5.535   7.339
20796WAT      O62629   1.340   3.516   2.693
20796WAT     H162630   1.398   3.596   2.708
20796WAT     H262631   1.245   3.545   2.678
20797WAT      O62632   9.489   2.665   8.636
20797WAT     H162633   9.411   2.637   8.692
20797WAT     H262634   9.526   2.751   8.672
20798WAT      O62635   7.598   2.436   6.109
20798WAT     H162636   7.550   2.364   6.059
20798WAT     H262637   7.586   2.423   6.207
20799WAT      O62638   8.920   2.996   9.198
20799WAT     H162639   8.864   3.034   9.271
20799WAT     H262640   8.862   2.947   9.133
20800WAT      O62641   9.277   3.982   9.704
20800WAT     H162642   9.295   4.071   9.663
20800WAT     H262643   9.190   3.985   9.754
20801WAT      O62644   5.786   7.774   7.685
20801WAT     H162645   5.752   7.833   7.612
20801WAT     H262646   5.710   7.745   7.742
20802WAT      O62647   9.104   2.035   7.053
20802WAT     H162648   9.035   2.097   7.014
20802WAT     H262649   9.124   1.963   6.987
20803WAT      O62650   8.541   8.096   3.087
20803WAT     H162651   8.558   8.194   3.088
20803WAT     H262652   8.628   8.047   3.078
20804WAT      O62653   9.373   7.368   9.049
20804WAT     H162654   9.399   7.314   8.969
20804WAT     H262655   9.277   7.396   9.041
20805WAT      O62656   6.630   2.805   8.406
20805WAT     H162657   6.675   2.772   8.490
20805WAT     H262658   6.552   2.862   8.431
20806WAT      O62659   9.771   1.669   5.863
20806WAT     H162660   9.800   1.748   5.918
20806WAT     H262661   9.851   1.625   5.823
20807WAT      O62662   8.420   6.395   2.403
20807WAT     H162663   8.355   6.471   2.405
20807WAT     H262664   8.385   6.320   2.458
20808WAT      O62665   3.585   5.312   5.821
20808WAT     H162666   3.671   5.303   5.872
20808WAT     H262667   3.509   5.316   5.885
20809WAT      O62668   0.786   2.121   9.027
20809WAT     H162669   0.815   2.063   9.103
20809WAT     H262670   0.725   2.193   9.061
20810WAT      O62671   1.413   3.753   5.398
20810WAT     H162672   1.491   3.813   5.377
20810WAT     H262673   1.445   3.673   5.449
20811WAT      O62674   8.766   6.314   6.719
20811WAT     H162675   8.809   6.401   6.743
20811WAT     H262676   8.673   6.312   6.754
20812WAT      O62677   2.054   2.603   5.883
20812WAT     H162678   2.078   2.508   5.863
20812WAT     H262679   2.137   2.657   5.897
20813WAT      O62680   2.447   4.665   0.283
20813WAT     H162681   2.492   4.593   0.231
20813WAT     H262682   2.370   4.627   0.334
20814WAT      O62683   3.488   8.593   6.161
20814WAT     H162684   3.566   8.615   6.219
20814WAT     H262685   3.423   8.537   6.213
20815WAT      O62686   6.471   9.181   2.482
20815WAT     H162687   6.531   9.105   2.506
20815WAT     H262688   6.412   9.203   2.560
20816WAT      O62689   5.216   1.610   3.438
20816WAT     H162690   5.162   1.680   3.392
20816WAT     H262691   5.197   1.612   3.536
20817WAT      O62692   2.068   6.073   6.717
20817WAT     H162693   2.161   6.108   6.732
20817WAT     H262694   2.073   5.989   6.662
20818WAT      O62695   4.811   1.502   5.442
20818WAT     H162696   4.871   1.567   5.490
20818WAT     H262697   4.809   1.525   5.345
20819WAT      O62698   9.072   7.964   1.366
20819WAT     H162699   9.166   7.995   1.382
20819WAT     H262700   9.008   8.039   1.382
20820WAT      O62701   3.350   8.029   5.606
20820WAT     H162702   3.341   7.929   5.612
20820WAT     H262703   3.329   8.069   5.695
20821WAT      O62704   6.478   1.044   4.474
20821WAT     H162705   6.452   1.135   4.441
20821WAT     H262706   6.420   0.975   4.431
20822WAT      O62707   3.433   6.619   5.888
20822WAT     H162708   3.380   6.601   5.971
20822WAT     H262709   3.443   6.717   5.876
20823WAT      O62710   4.433   8.098   5.875
20823WAT     H162711   4.384   8.030   5.929
20823WAT     H262712   4.406   8.089   5.779
20824WAT      O62713   2.915   4.748   7.747
20824WAT     H162714   2.972   4.809   7.801
20824WAT     H262715   2.819   4.777   7.753
20825WAT      O62716   5.021   5.985   2.467
20825WAT     H162717   4.962   5.988   2.386
20825WAT     H262718   5.110   5.947   2.441
20826WAT      O62719   3.568   5.263   2.253
20826WAT     H162720   3.569   5.306   2.163
20826WAT     H262721   3.575   5.164   2.242
20827WAT      O62722   6.808   4.217   2.386
20827WAT     H162723   6.877   4.146   2.373
20827WAT     H262724   6.846   4.291   2.443
20828WAT      O62725   2.224   0.601   9.425
20828WAT     H162726   2.174   0.674   9.378
20828WAT     H262727   2.166   0.520   9.432
20829WAT      O62728   4.539   5.277   2.347
20829WAT     H162729   4.499   5.368   2.335
20829WAT     H262730   4.480   5.209   2.303
20830WAT      O62731   3.627   0.218   1.960
20830WAT     H162732   3.691   0.282   1.919
20830WAT     H262733   3.666   0.126   1.958
20831WAT      O62734   8.312   5.097  -0.001
20831WAT     H162735   8.353   5.009   0.021
20831WAT     H262736   8.304   5.153   0.082
20832WAT      O62737   8.249   9.150   0.298
20832WAT     H162738   8.300   9.085   0.242
20832WAT     H262739   8.183   9.101   0.354
20833WAT      O62740   5.792   4.301   7.158
20833WAT     H162741   5.765   4.263   7.070
20833WAT     H262742   5.767   4.397   7.162
20834WAT      O62743   6.307   8.169   6.526
20834WAT     H162744   6.349   8.123   6.448
20834WAT     H262745   6.232   8.227   6.494
20835WAT      O62746   8.879   8.846   0.964
20835WAT     H162747   8.858   8.934   0.921
20835WAT     H262748   8.807   8.823   1.029
20836WAT      O62749   8.923   5.851   1.149
20836WAT     H162750   8.876   5.876   1.065
20836WAT     H262751   9.019   5.879   1.143
20837WAT      O62752   1.767   3.122   9.180
20837WAT     H162753   1.701   3.049   9.158
20837WAT     H262754   1.722   3.190   9.239
20838WAT      O62755   3.735   1.686   6.660
20838WAT     H162756   3.815   1.743   6.676
20838WAT     H262757   3.760   1.590   6.667
20839WAT      O62758   1.647   8.124   7.066
20839WAT     H162759   1.628   8.156   7.159
20839WAT     H262760   1.746   8.111   7.055
20840WAT      O62761   1.419   0.765   5.292
20840WAT     H162762   1.381   0.679   5.328
20840WAT     H262763   1.518   0.763   5.299
20841WAT      O62764   3.953   1.945   5.365
20841WAT     H162765   3.858   1.967   5.390
20841WAT     H262766   3.961   1.847   5.347
20842WAT      O62767   6.058   4.036   3.885
20842WAT     H162768   6.136   3.987   3.847
20842WAT     H262769   5.978   4.021   3.827
20843WAT      O62770   9.127   7.945   9.423
20843WAT     H162771   9.204   7.999   9.456
20843WAT     H262772   9.152   7.848   9.421
20844WAT      O62773   6.163   6.924   3.365
20844WAT     H162774   6.154   6.877   3.454
20844WAT     H262775   6.244   6.982   3.367
20845WAT      O62776   2.214   3.423   3.113
20845WAT     H162777   2.217   3.323   3.108
20845WAT     H262778   2.119   3.454   3.117
20846WAT      O62779   8.312   5.762   8.267
20846WAT     H162780   8.233   5.722   8.222
20846WAT     H262781   8.395   5.712   8.242
20847WAT      O62782   5.166   1.266   4.945
20847WAT     H162783   5.111   1.186   4.918
20847WAT     H262784   5.144   1.291   5.039
20848WAT      O62785   7.306   8.517   2.893
20848WAT     H162786   7.379   8.515   2.962
20848WAT     H262787   7.319   8.441   2.829
20849WAT      O62788   4.170   1.725   1.850
20849WAT     H162789   4.098   1.792   1.871
20849WAT     H262790   4.155   1.642   1.904
20850WAT      O62791   6.956   1.731   5.321
20850WAT     H162792   6.936   1.796   5.394
20850WAT     H262793   6.871   1.698   5.281
20851WAT      O62794   2.164   2.540   8.202
20851WAT     H162795   2.182   2.441   8.202
20851WAT     H262796   2.076   2.558   8.158
20852WAT      O62797   8.695   1.548   4.006
20852WAT     H162798   8.655   1.564   4.097
20852WAT     H262799   8.795   1.549   4.013
20853WAT      O62800   8.736   8.071   8.437
20853WAT     H162801   8.721   8.012   8.357
20853WAT     H262802   8.787   8.152   8.409
20854WAT      O62803   7.019   5.843   1.971
20854WAT     H162804   6.994   5.746   1.972
20854WAT     H262805   7.057   5.868   2.060
20855WAT      O62806   8.622   8.371   5.699
20855WAT     H162807   8.719   8.371   5.673
20855WAT     H262808   8.569   8.421   5.630
20856WAT      O62809   9.758   9.743   6.899
20856WAT     H162810   9.668   9.744   6.855
20856WAT     H262811   9.822   9.798   6.845
20857WAT      O62812   8.679   9.797   7.267
20857WAT     H162813   8.657   9.703   7.239
20857WAT     H262814   8.770   9.799   7.308
20858WAT      O62815   7.525   1.531   9.846
20858WAT     H162816   7.526   1.575   9.936
20858WAT     H262817   7.610   1.552   9.798
20859WAT      O62818   9.203   9.476   9.576
20859WAT     H162819   9.133   9.546   9.585
20859WAT     H262820   9.230   9.444   9.667
20860WAT      O62821   0.027   0.016   6.681
20860WAT     H162822   0.108   0.061   6.719
20860WAT     H262823  -0.012   0.074   6.609
20861WAT      O62824   2.905   8.692   4.662
20861WAT     H162825   2.892   8.790   4.674
20861WAT     H262826   2.915   8.648   4.751
20862WAT      O62827   9.719   6.880   7.262
20862WAT     H162828   9.736   6.841   7.171
20862WAT     H262829   9.803   6.922   7.297
20863WAT      O62830   8.071   9.733   5.813
20863WAT     H162831   8.095   9.671   5.739
20863WAT     H262832   8.138   9.807   5.818
20864WAT      O62833   7.868   5.551   1.867
20864WAT     H162834   7.814   5.479   1.911
20864WAT     H262835   7.948   5.571   1.924
20865WAT      O62836   4.376   6.927   8.605
20865WAT     H162837   4.370   7.004   8.669
20865WAT     H262838   4.291   6.920   8.553
20866WAT      O62839   8.126   2.287   1.363
20866WAT     H162840   8.151   2.237   1.280
20866WAT     H262841   8.158   2.236   1.443
20867WAT      O62842   1.033   1.495   0.805
20867WAT     H162843   1.105   1.563   0.815
20867WAT     H262844   1.070   1.413   0.761
20868WAT      O62845   8.904   4.927   8.129
20868WAT     H162846   8.963   4.989   8.182
20868WAT     H262847   8.907   4.953   8.033
20869WAT      O62848   2.197   3.159   2.755
20869WAT     H162849   2.283   3.157   2.805
20869WAT     H262850   2.214   3.146   2.658
20870WAT      O62851   8.735   7.506   9.404
20870WAT     H162852   8.747   7.598   9.366
20870WAT     H262853   8.740   7.439   9.330
20871WAT      O62854   8.584   6.495   6.571
20871WAT     H162855   8.625   6.584   6.593
20871WAT     H262856   8.643   6.422   6.605
20872WAT      O62857   4.191   2.925   3.312
20872WAT     H162858   4.278   2.960   3.278
20872WAT     H262859   4.130   3.002   3.332
20873WAT      O62860   4.850   7.987   1.722
20873WAT     H162861   4.750   7.988   1.725
20873WAT     H262862   4.887   7.996   1.814
20874WAT      O62863   5.774   8.436   8.997
20874WAT     H162864   5.775   8.492   8.914
20874WAT     H262865   5.684   8.442   9.040
20875WAT      O62866   9.121   1.545   7.379
20875WAT     H162867   9.039   1.603   7.373
20875WAT     H262868   9.093   1.450   7.394
20876WAT      O62869   8.100   7.938   9.603
20876WAT     H162870   8.045   7.992   9.668
20876WAT     H262871   8.074   7.962   9.510
20877WAT      O62872   6.526   9.013   2.709
20877WAT     H162873   6.465   9.023   2.788
20877WAT     H262874   6.483   8.953   2.641
20878WAT      O62875   4.919   5.451   5.383
20878WAT     H162876   4.994   5.486   5.327
20878WAT     H262877   4.850   5.409   5.324
20879WAT      O62878   4.486   5.008   4.622
20879WAT     H162879   4.473   4.936   4.554
20879WAT     H262880   4.398   5.032   4.663
20880WAT      O62881   9.822   9.357   7.157
20880WAT     H162882   9.793   9.449   7.133
20880WAT     H262883   9.750   9.312   7.210
20881WAT      O62884   3.457   4.640   3.875
20881WAT     H162885   3.541   4.695   3.873
20881WAT     H262886   3.480   4.545   3.897
20882WAT      O62887   8.564   3.647   3.718
20882WAT     H162888   8.622   3.722   3.749
20882WAT     H262889   8.588   3.564   3.768
20883WAT      O62890   8.893   8.557   8.243
20883WAT     H162891   8.812   8.614   8.227
20883WAT     H262892   8.966   8.614   8.280
20884WAT      O62893   8.226   7.815   0.783
20884WAT     H162894   8.229   7.797   0.685
20884WAT     H262895   8.133   7.843   0.808
20885WAT      O62896   6.299   9.279   1.859
20885WAT     H162897   6.286   9.338   1.779
20885WAT     H262898   6.291   9.183   1.831
20886WAT      O62899   7.933   1.443   4.530
20886WAT     H162900   7.904   1.395   4.613
20886WAT     H262901   7.921   1.383   4.451
20887WAT      O62902   9.316   4.327   1.616
20887WAT     H162903   9.325   4.320   1.517
20887WAT     H262904   9.280   4.417   1.641
20888WAT      O62905   0.370   5.458   9.630
20888WAT     H162906   0.421   5.386   9.583
20888WAT     H262907   0.333   5.422   9.716
20889WAT      O62908   8.555   4.245   8.523
20889WAT     H162909   8.493   4.256   8.600
20889WAT     H262910   8.594   4.334   8.498
20890WAT      O62911   9.082   4.092   9.252
20890WAT     H162912   9.007   4.106   9.317
20890WAT     H262913   9.050   4.038   9.174
20891WAT      O62914   0.390   3.397   7.212
20891WAT     H162915   0.339   3.481   7.231
20891WAT     H262916   0.331   3.318   7.224
20892WAT      O62917   2.170   4.396   2.368
20892WAT     H162918   2.109   4.319   2.350
20892WAT     H262919   2.263   4.371   2.342
20893WAT      O62920   7.076   9.238   5.081
20893WAT     H162921   7.099   9.193   5.167
20893WAT     H262922   7.146   9.217   5.012
20894WAT      O62923   5.894   7.751   3.670
20894WAT     H162924   5.857   7.819   3.733
20894WAT     H262925   5.822   7.685   3.647
20895WAT      O62926   0.407   7.851   3.071
20895WAT     H162927   0.325   7.855   3.127
20895WAT     H262928   0.384   7.815   2.981
20896WAT      O62929   1.032   8.753   9.867
20896WAT     H162930   1.044   8.708   9.778
20896WAT     H262931   1.106   8.726   9.929
20897WAT      O62932   1.055   0.667   0.108
20897WAT     H162933   1.154   0.654   0.100
20897WAT     H262934   1.036   0.762   0.132
20898WAT      O62935   2.846   6.053   6.042
20898WAT     H162936   2.943   6.052   6.019
20898WAT     H262937   2.792   6.069   5.959
20899WAT      O62938   2.096   2.674   5.398
20899WAT     H162939   2.035   2.749   5.372
20899WAT     H262940   2.143   2.639   5.317
20900WAT      O62941   3.658   5.976   7.532
20900WAT     H162942   3.581   5.913   7.525
20900WAT     H262943   3.676   6.016   7.442
20901WAT      O62944   3.027   7.875   9.128
20901WAT     H162945   2.947   7.922   9.164
20901WAT     H262946   3.065   7.927   9.051
20902WAT      O62947   1.501   2.964   5.202
20902WAT     H162948   1.433   2.939   5.272
20902WAT     H262949   1.551   3.045   5.231
20903WAT      O62950   0.466   5.335   4.197
20903WAT     H162951   0.548   5.299   4.153
20903WAT     H262952   0.435   5.416   4.148
20904WAT      O62953   9.366   5.089   2.533
20904WAT     H162954   9.413   5.027   2.596
20904WAT     H262955   9.413   5.177   2.532
20905WAT      O62956   2.277   2.519   6.438
20905WAT     H162957   2.357   2.540   6.382
20905WAT     H262958   2.231   2.604   6.464
20906WAT      O62959   1.269   7.941   4.206
20906WAT     H162960   1.290   7.934   4.108
20906WAT     H262961   1.313   8.022   4.244
20907WAT      O62962   2.075   2.934   5.948
20907WAT     H162963   2.083   2.899   5.855
20907WAT     H262964   1.978   2.945   5.971
20908WAT      O62965   5.783   2.559   7.309
20908WAT     H162966   5.794   2.477   7.365
20908WAT     H262967   5.703   2.611   7.341
20909WAT      O62968   6.979   6.227   4.616
20909WAT     H162969   6.979   6.236   4.716
20909WAT     H262970   7.039   6.296   4.576
20910WAT      O62971   9.629   5.212   2.122
20910WAT     H162972   9.563   5.217   2.048
20910WAT     H262973   9.721   5.226   2.085
20911WAT      O62974   3.942   2.459   3.188
20911WAT     H162975   3.990   2.533   3.140
20911WAT     H262976   3.847   2.486   3.203
20912WAT      O62977   2.054   8.112   0.073
20912WAT     H162978   2.082   8.173  -0.001
20912WAT     H262979   1.954   8.116   0.084
20913WAT      O62980   1.832   1.718   6.138
20913WAT     H162981   1.873   1.740   6.226
20913WAT     H262982   1.732   1.722   6.145
20914WAT      O62983   6.236   0.724   0.034
20914WAT     H162984   6.283   0.649  -0.013
20914WAT     H262985   6.190   0.782  -0.034
20915WAT      O62986   8.893   5.694   6.221
20915WAT     H162987   8.934   5.623   6.164
20915WAT     H262988   8.965   5.757   6.251
20916WAT      O62989   6.387   3.545   8.677
20916WAT     H162990   6.348   3.619   8.622
20916WAT     H262991   6.348   3.548   8.769
20917WAT      O62992   1.072   1.088   2.599
20917WAT     H162993   1.086   1.175   2.551
20917WAT     H262994   1.153   1.031   2.589
20918WAT      O62995   9.819   1.920   8.742
20918WAT     H162996   9.823   2.017   8.717
20918WAT     H262997   9.776   1.868   8.669
20919WAT      O62998   9.885   1.235   1.038
20919WAT     H162999   9.795   1.225   0.995
20919WAT     H263000   9.956   1.225   0.969
20920WAT      O63001   9.626   9.803   3.580
20920WAT     H163002   9.530   9.802   3.611
20920WAT     H263003   9.638   9.735   3.508
20921WAT      O63004   2.112   1.455   0.899
20921WAT     H163005   2.148   1.406   0.819
20921WAT     H263006   2.027   1.412   0.928
20922WAT      O63007   2.669   8.971   6.033
20922WAT     H163008   2.636   8.996   5.942
20922WAT     H263009   2.646   9.043   6.098
20923WAT      O63010   2.587   0.615   7.252
20923WAT     H163011   2.626   0.577   7.335
20923WAT     H263012   2.569   0.713   7.265
20924WAT      O63013   1.997   3.190   1.543
20924WAT     H163014   1.935   3.111   1.535
20924WAT     H263015   2.089   3.162   1.517
20925WAT      O63016   6.024   4.101   2.404
20925WAT     H163017   6.031   4.099   2.504
20925WAT     H263018   5.946   4.045   2.375
20926WAT      O63019   1.426   9.407   7.134
20926WAT     H163020   1.328   9.419   7.146
20926WAT     H263021   1.469   9.389   7.222
20927WAT      O63022   8.387   4.957   2.943
20927WAT     H163023   8.440   4.889   2.995
20927WAT     H263024   8.380   5.041   2.996
20928WAT      O63025   1.793   0.007   9.574
20928WAT     H163026   1.789  -0.091   9.595
20928WAT     H263027   1.727   0.027   9.502
20929WAT      O63028   7.349   6.183   4.525
20929WAT     H163029   7.406   6.176   4.606
20929WAT     H263030   7.407   6.185   4.443
20930WAT      O63031   9.201   8.458   5.853
20930WAT     H163032   9.237   8.473   5.945
20930WAT     H263033   9.114   8.506   5.842
20931WAT      O63034   5.035   0.979   9.800
20931WAT     H163035   5.042   1.074   9.770
20931WAT     H263036   4.993   0.924   9.728
20932WAT      O63037   5.887   8.545   7.052
20932WAT     H163038   5.981   8.509   7.058
20932WAT     H263039   5.887   8.628   6.996
20933WAT      O63040   1.147   3.376   7.702
20933WAT     H163041   1.235   3.329   7.698
20933WAT     H263042   1.073   3.309   7.708
20934WAT      O63043   1.506   6.924   9.328
20934WAT     H163044   1.453   6.983   9.267
20934WAT     H263045   1.601   6.924   9.300
20935WAT      O63046   3.314   9.602   3.873
20935WAT     H163047   3.249   9.657   3.820
20935WAT     H263048   3.263   9.541   3.934
20936WAT      O63049   3.302   2.330   6.614
20936WAT     H163050   3.242   2.260   6.576
20936WAT     H263051   3.309   2.407   6.550
20937WAT      O63052   6.277   7.489   9.089
20937WAT     H163053   6.359   7.539   9.119
20937WAT     H263054   6.198   7.524   9.138
20938WAT      O63055   0.518   6.003   0.155
20938WAT     H163056   0.572   5.919   0.144
20938WAT     H263057   0.435   5.981   0.207
20939WAT      O63058   1.221   3.709   5.682
20939WAT     H163059   1.168   3.628   5.706
20939WAT     H263060   1.159   3.781   5.652
20940WAT      O63061   1.075   3.629   7.102
20940WAT     H163062   1.150   3.572   7.135
20940WAT     H263063   1.112   3.713   7.061
20941WAT      O63064   5.219   0.558   8.091
20941WAT     H163065   5.177   0.532   8.004
20941WAT     H263066   5.318   0.556   8.082
20942WAT      O63067   3.684   8.397   6.450
20942WAT     H163068   3.608   8.343   6.486
20942WAT     H263069   3.685   8.487   6.493
20943WAT      O63070   8.787   1.835   4.320
20943WAT     H163071   8.769   1.918   4.372
20943WAT     H263072   8.709   1.773   4.329
20944WAT      O63073   5.173   5.110   9.086
20944WAT     H163074   5.081   5.140   9.060
20944WAT     H263075   5.181   5.011   9.072
20945WAT      O63076   8.908   5.048   7.871
20945WAT     H163077   9.006   5.063   7.853
20945WAT     H263078   8.858   5.133   7.858
20946WAT      O63079   1.640   8.791   3.446
20946WAT     H163080   1.601   8.817   3.358
20946WAT     H263081   1.710   8.858   3.472
20947WAT      O63082   4.083   6.321   5.621
20947WAT     H163083   3.996   6.361   5.591
20947WAT     H263084   4.065   6.249   5.688
20948WAT      O63085   9.618   6.669   3.497
20948WAT     H163086   9.524   6.689   3.524
20948WAT     H263087   9.645   6.580   3.533
20949WAT      O63088   4.855   6.165   7.419
20949WAT     H163089   4.838   6.143   7.323
20949WAT     H263090   4.834   6.261   7.436
20950WAT      O63091   6.894   7.601   3.982
20950WAT     H163092   6.971   7.656   4.014
20950WAT     H263093   6.919   7.504   3.988
20951WAT      O63094   6.167   8.744   0.963
20951WAT     H163095   6.069   8.727   0.950
20951WAT     H263096   6.216   8.657   0.960
20952WAT      O63097   4.017   3.596   7.473
20952WAT     H163098   3.983   3.624   7.383
20952WAT     H263099   3.954   3.530   7.513
20953WAT      O63100   3.288   6.426   9.418
20953WAT     H163101   3.224   6.374   9.475
20953WAT     H263102   3.372   6.443   9.470
20954WAT      O63103   6.730   2.588   5.850
20954WAT     H163104   6.804   2.620   5.791
20954WAT     H263105   6.678   2.666   5.884
20955WAT      O63106   8.771   8.334   6.563
20955WAT     H163107   8.685   8.374   6.530
20955WAT     H263108   8.831   8.406   6.596
20956WAT      O63109   0.539   8.571   9.793
20956WAT     H163110   0.459   8.627   9.773
20956WAT     H263111   0.577   8.598   9.882
20957WAT      O63112   4.807   4.168   9.702
20957WAT     H163113   4.715   4.209   9.700
20957WAT     H263114   4.871   4.227   9.653
20958WAT      O63115   1.609   3.961   8.231
20958WAT     H163116   1.681   3.984   8.165
20958WAT     H263117   1.651   3.941   8.320
20959WAT      O63118   1.454   2.754   9.711
20959WAT     H163119   1.532   2.813   9.731
20959WAT     H263120   1.482   2.658   9.724
20960WAT      O63121   7.482   2.002   8.711
20960WAT     H163122   7.394   2.026   8.751
20960WAT     H263123   7.488   2.037   8.618
20961WAT      O63124   9.090   1.951   4.736
20961WAT     H163125   9.083   1.893   4.817
20961WAT     H263126   9.023   1.922   4.668
20962WAT      O63127   5.436   9.182   8.979
20962WAT     H163128   5.493   9.257   9.013
20962WAT     H263129   5.418   9.117   9.053
20963WAT      O63130   4.122   8.470   1.773
20963WAT     H163131   4.217   8.449   1.750
20963WAT     H263132   4.100   8.431   1.862
20964WAT      O63133   2.155   5.697   8.465
20964WAT     H163134   2.235   5.654   8.423
20964WAT     H263135   2.135   5.654   8.552
20965WAT      O63136   7.227   2.752   6.441
20965WAT     H163137   7.192   2.695   6.516
20965WAT     H263138   7.193   2.716   6.354
20966WAT      O63139   9.741   6.326   2.471
20966WAT     H163140   9.740   6.426   2.474
20966WAT     H263141   9.755   6.290   2.563
20967WAT      O63142   9.436   3.779   5.555
20967WAT     H163143   9.432   3.802   5.458
20967WAT     H263144   9.397   3.854   5.609
20968WAT      O63145   1.978   7.632   0.082
20968WAT     H163146   1.915   7.592   0.149
20968WAT     H263147   2.022   7.712   0.123
20969WAT      O63148   9.797   8.765   8.771
20969WAT     H163149   9.816   8.670   8.794
20969WAT     H263150   9.755   8.811   8.849
20970WAT      O63151   2.191   4.007   7.424
20970WAT     H163152   2.218   3.989   7.329
20970WAT     H263153   2.273   4.008   7.482
20971WAT      O63154   9.796   3.467   7.333
20971WAT     H163155   9.811   3.540   7.399
20971WAT     H263156   9.868   3.470   7.263
20972WAT      O63157   1.892   8.997   8.947
20972WAT     H163158   1.821   8.927   8.958
20972WAT     H263159   1.852   9.088   8.956
20973WAT      O63160   4.838   6.510   3.188
20973WAT     H163161   4.763   6.544   3.244
20973WAT     H263162   4.925   6.532   3.232
20974WAT      O63163   3.604   4.017   6.450
20974WAT     H163164   3.680   3.982   6.504
20974WAT     H263165   3.634   4.029   6.355
20975WAT      O63166   9.129   4.942   3.940
20975WAT     H163167   9.135   5.041   3.928
20975WAT     H263168   9.075   4.921   4.022
20976WAT      O63169   9.769   4.358   4.352
20976WAT     H163170   9.677   4.322   4.367
20976WAT     H263171   9.832   4.283   4.336
20977WAT      O63172   7.150   9.157   9.066
20977WAT     H163173   7.154   9.153   9.166
20977WAT     H263174   7.165   9.251   9.036
20978WAT      O63175   7.011   3.871   1.439
20978WAT     H163176   7.024   3.857   1.537
20978WAT     H263177   7.100   3.879   1.394
20979WAT      O63178   4.384   5.729   1.942
20979WAT     H163179   4.338   5.792   2.005
20979WAT     H263180   4.361   5.635   1.966
20980WAT      O63181   4.349   3.546   9.673
20980WAT     H163182   4.441   3.548   9.713
20980WAT     H263183   4.344   3.611   9.597
20981WAT      O63184   9.182   8.990   1.348
20981WAT     H163185   9.242   9.001   1.269
20981WAT     H263186   9.198   9.065   1.412
20982WAT      O63187   0.877   7.118   8.351
20982WAT     H163188   0.883   7.026   8.311
20982WAT     H263189   0.829   7.178   8.288
20983WAT      O63190   1.253   5.348   0.755
20983WAT     H163191   1.208   5.336   0.843
20983WAT     H263192   1.233   5.269   0.697
20984WAT      O63193   9.722   4.787   9.030
20984WAT     H163194   9.750   4.694   9.003
20984WAT     H263195   9.642   4.813   8.976
20985WAT      O63196   3.548   3.095   2.368
20985WAT     H163197   3.574   3.161   2.439
20985WAT     H263198   3.531   3.006   2.409
20986WAT      O63199   6.199   9.352   2.846
20986WAT     H163200   6.228   9.276   2.788
20986WAT     H263201   6.102   9.342   2.868
20987WAT      O63202   8.376   8.775   6.169
20987WAT     H163203   8.380   8.869   6.137
20987WAT     H263204   8.283   8.740   6.157
20988WAT      O63205   5.565   6.708   1.813
20988WAT     H163206   5.594   6.759   1.732
20988WAT     H263207   5.565   6.769   1.893
20989WAT      O63208   2.651   7.203   5.535
20989WAT     H163209   2.724   7.135   5.540
20989WAT     H263210   2.636   7.241   5.626
20990WAT      O63211   0.354   8.797   9.789
20990WAT     H163212   0.355   8.895   9.770
20990WAT     H263213   0.281   8.777   9.854
20991WAT      O63214   8.194   0.736   4.062
20991WAT     H163215   8.181   0.732   4.161
20991WAT     H263216   8.113   0.775   4.019
20992WAT      O63217   7.954   2.766   6.565
20992WAT     H163218   8.023   2.695   6.577
20992WAT     H263219   7.990   2.837   6.504
20993WAT      O63220   3.680   4.703   7.825
20993WAT     H163221   3.779   4.698   7.816
20993WAT     H263222   3.656   4.720   7.921
20994WAT      O63223   5.186   6.494   1.076
20994WAT     H163224   5.215   6.490   1.172
20994WAT     H263225   5.249   6.439   1.020
20995WAT      O63226   8.559   5.470   7.254
20995WAT     H163227   8.502   5.547   7.281
20995WAT     H263228   8.655   5.495   7.265
20996WAT      O63229   3.372   2.574   8.340
20996WAT     H163230   3.357   2.607   8.246
20996WAT     H263231   3.366   2.651   8.403
20997WAT      O63232   1.661   1.525   1.581
20997WAT     H163233   1.733   1.540   1.649
20997WAT     H263234   1.695   1.549   1.491
20998WAT      O63235   4.329   5.302   0.234
20998WAT     H163236   4.300   5.207   0.223
20998WAT     H263237   4.261   5.363   0.193
20999WAT      O63238   3.667   8.767   7.700
20999WAT     H163239   3.744   8.756   7.638
20999WAT     H263240   3.611   8.684   7.699
21000WAT      O63241   7.473   5.319   1.327
21000WAT     H163242   7.419   5.306   1.244
21000WAT     H263243   7.482   5.232   1.375
21001WAT      O63244   1.833   3.587   6.028
21001WAT     H163245   1.811   3.632   6.114
21001WAT     H263246   1.764   3.610   5.959
21002WAT      O63247   4.777   3.490   8.857
21002WAT     H163248   4.766   3.435   8.940
21002WAT     H263249   4.804   3.583   8.882
21003WAT      O63250   4.977   4.456   0.361
21003WAT     H163251   4.942   4.405   0.282
21003WAT     H263252   5.073   4.430   0.377
21004WAT      O63253   6.670   1.621   7.661
21004WAT     H163254   6.607   1.543   7.657
21004WAT     H263255   6.634   1.689   7.724
21005WAT      O63256   2.740   7.298   3.045
21005WAT     H163257   2.649   7.300   3.005
21005WAT     H263258   2.804   7.254   2.981
21006WAT      O63259   9.038   9.721   9.228
21006WAT     H163260   9.028   9.751   9.133
21006WAT     H263261   9.067   9.625   9.231
21007WAT      O63262   3.035   9.043   5.449
21007WAT     H163263   3.060   8.973   5.516
21007WAT     H263264   2.943   9.077   5.468
21008WAT      O63265   9.346   0.545   8.761
21008WAT     H163266   9.411   0.538   8.685
21008WAT     H263267   9.273   0.609   8.738
21009WAT      O63268   2.996   8.545   0.799
21009WAT     H163269   2.925   8.616   0.804
21009WAT     H263270   2.989   8.497   0.712
21010WAT      O63271   2.105   5.969   4.524
21010WAT     H163272   2.091   6.010   4.614
21010WAT     H263273   2.017   5.943   4.485
21011WAT      O63274   4.179   4.436   8.940
21011WAT     H163275   4.225   4.482   9.016
21011WAT     H263276   4.088   4.475   8.928
21012WAT      O63277   8.026   5.257   3.877
21012WAT     H163278   8.070   5.261   3.967
21012WAT     H263279   8.072   5.319   3.814
21013WAT      O63280   7.986   1.777   2.471
21013WAT     H163281   7.904   1.749   2.420
21013WAT     H263282   7.970   1.865   2.514
21014WAT      O63283   1.049   8.381   6.540
21014WAT     H163284   1.051   8.381   6.440
21014WAT     H263285   0.954   8.389   6.571
21015WAT      O63286   3.656   4.197   8.142
21015WAT     H163287   3.664   4.112   8.090
21015WAT     H263288   3.679   4.180   8.238
21016WAT      O63289   4.681   0.628   9.001
21016WAT     H163290   4.596   0.662   9.042
21016WAT     H263291   4.734   0.579   9.069
21017WAT      O63292   2.407   7.807   4.024
21017WAT     H163293   2.470   7.796   3.947
21017WAT     H263294   2.380   7.716   4.058
21018WAT      O63295   4.812   5.282   7.932
21018WAT     H163296   4.757   5.364   7.950
21018WAT     H263297   4.883   5.303   7.865
21019WAT      O63298   5.016   9.237   7.635
21019WAT     H163299   4.969   9.161   7.681
21019WAT     H263300   5.090   9.200   7.578
21020WAT      O63301   1.505   5.803   1.771
21020WAT     H163302   1.569   5.836   1.840
21020WAT     H263303   1.440   5.740   1.815
21021WAT      O63304   6.116   7.013   6.465
21021WAT     H163305   6.144   7.081   6.397
21021WAT     H263306   6.091   6.928   6.418
21022WAT      O63307   7.097   8.044   4.152
21022WAT     H163308   7.011   7.997   4.176
21022WAT     H263309   7.150   8.059   4.236
21023WAT      O63310   5.679   5.599   7.875
21023WAT     H163311   5.714   5.600   7.969
21023WAT     H263312   5.587   5.639   7.873
21024WAT      O63313   1.345   5.839   4.203
21024WAT     H163314   1.366   5.935   4.183
21024WAT     H263315   1.372   5.817   4.296
21025WAT      O63316   0.014   1.811   2.667
21025WAT     H163317   0.092   1.758   2.698
21025WAT     H263318   0.036   1.857   2.581
21026WAT      O63319   8.558   6.741   0.402
21026WAT     H163320   8.577   6.782   0.491
21026WAT     H263321   8.523   6.648   0.414
21027WAT      O63322   2.401   6.888   6.486
21027WAT     H163323   2.347   6.877   6.569
21027WAT     H263324   2.393   6.805   6.430
21028WAT      O63325   4.533   3.818   0.340
21028WAT     H163326   4.536   3.754   0.263
21028WAT     H263327   4.452   3.800   0.396
21029WAT      O63328   2.050   7.387   9.867
21029WAT     H163329   1.978   7.318   9.867
21029WAT     H263330   2.014   7.473   9.904
21030WAT      O63331   8.178   8.499   3.772
21030WAT     H163332   8.198   8.596   3.780
21030WAT     H263333   8.259   8.445   3.796
21031WAT      O63334   3.062   6.263   7.747
21031WAT     H163335   3.022   6.337   7.692
21031WAT     H263336   3.159   6.282   7.763
21032WAT      O63337   0.408   6.872   6.001
21032WAT     H163338   0.417   6.960   5.954
21032WAT     H263339   0.317   6.866   6.042
21033WAT      O63340   0.541   4.427   3.224
21033WAT     H163341   0.518   4.386   3.136
21033WAT     H263342   0.484   4.508   3.240
21034WAT      O63343   4.329   4.093   2.841
21034WAT     H163344   4.426   4.093   2.817
21034WAT     H263345   4.311   4.166   2.907
21035WAT      O63346   6.108   0.243   9.806
21035WAT     H163347   6.087   0.341   9.801
21035WAT     H263348   6.203   0.232   9.838
21036WAT      O63349   2.700   6.578   9.092
21036WAT     H163350   2.698   6.676   9.114
21036WAT     H263351   2.729   6.527   9.172
21037WAT      O63352   4.405   0.654   0.110
21037WAT     H163353   4.363   0.724   0.052
21037WAT     H263354   4.464   0.698   0.178
21038WAT      O63355   7.918   7.552   2.132
21038WAT     H163356   7.838   7.491   2.131
21038WAT     H263357   7.948   7.565   2.227
21039WAT      O63358   3.228   4.303   6.536
21039WAT     H163359   3.137   4.344   6.542
21039WAT     H263360   3.247   4.279   6.441
21040WAT      O63361   1.907   9.274   4.294
21040WAT     H163362   1.883   9.190   4.343
21040WAT     H263363   1.849   9.349   4.326
21041WAT      O63364   0.311   4.806   6.794
21041WAT     H163365   0.308   4.905   6.786
21041WAT     H263366   0.396   4.772   6.755
21042WAT      O63367   7.063   0.608   5.765
21042WAT     H163368   7.063   0.508   5.761
21042WAT     H263369   7.020   0.638   5.850
21043WAT      O63370   5.873   3.833   2.646
21043WAT     H163371   5.817   3.856   2.566
21043WAT     H263372   5.955   3.785   2.616
21044WAT      O63373   6.196   8.485   8.376
21044WAT     H163374   6.119   8.424   8.394
21044WAT     H263375   6.162   8.574   8.343
21045WAT      O63376   6.521   2.195   0.218
21045WAT     H163377   6.427   2.169   0.196
21045WAT     H263378   6.584   2.148   0.156
21046WAT      O63379   1.401   5.325   7.083
21046WAT     H163380   1.395   5.231   7.049
21046WAT     H263381   1.321   5.344   7.140
21047WAT      O63382   1.009   1.051   0.022
21047WAT     H163383   0.992   0.996   0.104
21047WAT     H263384   1.083   1.010  -0.031
21048WAT      O63385   1.578   0.343   5.782
21048WAT     H163386   1.543   0.252   5.763
21048WAT     H263387   1.602   0.389   5.696
21049WAT      O63388   4.701   4.760   1.959
21049WAT     H163389   4.752   4.842   1.934
21049WAT     H263390   4.752   4.679   1.933
21050WAT      O63391   8.329   1.989   3.700
21050WAT     H163392   8.416   1.996   3.748
21050WAT     H263393   8.336   1.923   3.626
21051WAT      O63394   2.816   3.270   2.032
21051WAT     H163395   2.754   3.348   2.034
21051WAT     H263396   2.849   3.251   2.124
21052WAT      O63397   9.472   0.281   6.761
21052WAT     H163398   9.560   0.291   6.715
21052WAT     H263399   9.454   0.361   6.818
21053WAT      O63400   5.389   9.724   1.148
21053WAT     H163401   5.454   9.778   1.202
21053WAT     H263402   5.328   9.674   1.210
21054WAT      O63403   9.196   6.679   5.898
21054WAT     H163404   9.287   6.657   5.864
21054WAT     H263405   9.148   6.595   5.922
21055WAT      O63406   8.941   0.052   5.048
21055WAT     H163407   9.000   0.096   4.980
21055WAT     H263408   8.933   0.112   5.128
21056WAT      O63409   9.684   7.182   7.863
21056WAT     H163410   9.600   7.128   7.877
21056WAT     H263411   9.758   7.142   7.917
21057WAT      O63412   2.413   1.618   2.928
21057WAT     H163413   2.447   1.533   2.888
21057WAT     H263414   2.439   1.623   3.024
21058WAT      O63415   4.331   9.136   6.336
21058WAT     H163416   4.264   9.190   6.388
21058WAT     H263417   4.376   9.196   6.269
21059WAT      O63418   4.093   4.199   1.497
21059WAT     H163419   4.167   4.255   1.534
21059WAT     H263420   4.046   4.250   1.424
21060WAT      O63421   5.150   8.005   4.724
21060WAT     H163422   5.244   7.987   4.695
21060WAT     H263423   5.144   7.995   4.823
21061WAT      O63424   5.542   3.703   4.750
21061WAT     H163425   5.616   3.695   4.684
21061WAT     H263426   5.573   3.671   4.840
21062WAT      O63427   7.659   1.703   7.016
21062WAT     H163428   7.698   1.613   6.994
21062WAT     H263429   7.610   1.698   7.103
21063WAT      O63430   4.458   0.944   3.385
21063WAT     H163431   4.436   0.987   3.473
21063WAT     H263432   4.558   0.940   3.374
21064WAT      O63433   8.771   5.236   1.220
21064WAT     H163434   8.708   5.220   1.296
21064WAT     H263435   8.855   5.279   1.255
21065WAT      O63436   9.380   0.129   0.002
21065WAT     H163437   9.416   0.220   0.021
21065WAT     H263438   9.284   0.124   0.029
21066WAT      O63439   2.090   3.401   1.438
21066WAT     H163440   2.026   3.453   1.381
21066WAT     H263441   2.039   3.331   1.489
21067WAT      O63442   5.317   1.989   1.255
21067WAT     H163443   5.254   2.067   1.253
21067WAT     H263444   5.267   1.905   1.274
21068WAT      O63445   2.056   4.599   1.583
21068WAT     H163446   2.127   4.529   1.590
21068WAT     H263447   1.975   4.570   1.634
21069WAT      O63448   5.833   8.530   4.369
21069WAT     H163449   5.812   8.441   4.327
21069WAT     H263450   5.775   8.600   4.327
21070WAT      O63451   1.889   0.987   9.595
21070WAT     H163452   1.976   0.938   9.601
21070WAT     H263453   1.882   1.052   9.670
21071WAT      O63454   3.754   3.395   6.948
21071WAT     H163455   3.739   3.386   6.849
21071WAT     H263456   3.722   3.484   6.979
21072WAT      O63457   0.438   8.289   8.019
21072WAT     H163458   0.391   8.228   7.956
21072WAT     H263459   0.522   8.245   8.051
21073WAT      O63460   4.355   7.485   6.595
21073WAT     H163461   4.358   7.433   6.509
21073WAT     H263462   4.261   7.492   6.627
21074WAT      O63463   9.164   0.958   1.020
21074WAT     H163464   9.197   1.050   0.998
21074WAT     H263465   9.240   0.893   1.016
21075WAT      O63466   0.125   8.323   2.693
21075WAT     H163467   0.193   8.296   2.625
21075WAT     H263468   0.035   8.290   2.665
21076WAT      O63469   6.477   7.375   0.120
21076WAT     H163470   6.554   7.416   0.168
21076WAT     H263471   6.434   7.443   0.060
21077WAT      O63472   4.233   7.027   4.745
21077WAT     H163473   4.247   6.987   4.655
21077WAT     H263474   4.258   6.961   4.815
21078WAT      O63475   3.491   0.594   6.017
21078WAT     H163476   3.421   0.657   5.985
21078WAT     H263477   3.557   0.643   6.075
21079WAT      O63478   7.648   4.597   3.488
21079WAT     H163479   7.673   4.579   3.584
21079WAT     H263480   7.726   4.640   3.442
21080WAT      O63481   5.371   7.489   9.764
21080WAT     H163482   5.373   7.433   9.682
21080WAT     H263483   5.404   7.581   9.743
21081WAT      O63484   6.302   3.244   9.226
21081WAT     H163485   6.286   3.180   9.150
21081WAT     H263486   6.321   3.192   9.310
21082WAT      O63487   8.021   7.833   5.773
21082WAT     H163488   8.063   7.789   5.854
21082WAT     H263489   8.063   7.922   5.759
21083WAT      O63490   0.077   7.098   9.579
21083WAT     H163491   0.165   7.051   9.569
21083WAT     H263492   0.007   7.052   9.524
21084WAT      O63493   9.355   3.088   9.615
21084WAT     H163494   9.440   3.110   9.566
21084WAT     H263495   9.363   2.997   9.656
21085WAT      O63496   2.209   8.454   1.623
21085WAT     H163497   2.237   8.549   1.639
21085WAT     H263498   2.128   8.434   1.677
21086WAT      O63499   5.949   0.408   0.878
21086WAT     H163500   6.043   0.406   0.845
21086WAT     H263501   5.934   0.490   0.932
21087WAT      O63502   0.021   6.431   6.354
21087WAT     H163503   0.002   6.480   6.269
21087WAT     H263504  -0.065   6.403   6.397
21088WAT      O63505   2.806   4.152   4.334
21088WAT     H163506   2.892   4.158   4.283
21088WAT     H263507   2.824   4.112   4.423
21089WAT      O63508   1.235   2.393   6.447
21089WAT     H163509   1.312   2.336   6.475
21089WAT     H263510   1.260   2.490   6.455
21090WAT      O63511   2.384   2.700   6.809
21090WAT     H163512   2.287   2.712   6.786
21090WAT     H263513   2.412   2.607   6.786
21091WAT      O63514   0.444   2.937   4.254
21091WAT     H163515   0.407   3.002   4.320
21091WAT     H263516   0.433   2.844   4.288
21092WAT      O63517   6.038   6.412   3.424
21092WAT     H163518   6.137   6.399   3.422
21092WAT     H263519   6.006   6.418   3.518
21093WAT      O63520   9.190   7.504   1.018
21093WAT     H163521   9.145   7.528   0.932
21093WAT     H263522   9.266   7.567   1.034
21094WAT      O63523   9.292   2.266   3.835
21094WAT     H163524   9.267   2.234   3.743
21094WAT     H263525   9.336   2.191   3.884
21095WAT      O63526   7.680   7.640   8.305
21095WAT     H163527   7.734   7.588   8.238
21095WAT     H263528   7.720   7.731   8.315
21096WAT      O63529   4.720   1.762   5.716
21096WAT     H163530   4.644   1.775   5.652
21096WAT     H263531   4.708   1.823   5.795
21097WAT      O63532   9.127   6.248   7.002
21097WAT     H163533   9.225   6.240   6.985
21097WAT     H263534   9.083   6.160   6.983
21098WAT      O63535   7.827   9.113   9.687
21098WAT     H163536   7.729   9.120   9.705
21098WAT     H263537   7.850   9.166   9.605
21099WAT      O63538   1.871   1.365   5.825
21099WAT     H163539   1.851   1.328   5.734
21099WAT     H263540   1.841   1.460   5.829
21100WAT      O63541   3.034   0.494   0.965
21100WAT     H163542   3.065   0.422   0.903
21100WAT     H263543   3.065   0.583   0.932
21101WAT      O63544   7.001   7.133   3.617
21101WAT     H163545   7.071   7.087   3.671
21101WAT     H263546   6.912   7.092   3.635
21102WAT      O63547   2.187   6.226   7.904
21102WAT     H163548   2.175   6.217   7.805
21102WAT     H263549   2.256   6.296   7.923
21103WAT      O63550   2.866   5.896   0.109
21103WAT     H163551   2.788   5.862   0.162
21103WAT     H263552   2.859   5.864   0.015
21104WAT      O63553   6.663   9.350   4.278
21104WAT     H163554   6.718   9.299   4.213
21104WAT     H263555   6.712   9.433   4.306
21105WAT      O63556   0.763   0.241   1.547
21105WAT     H163557   0.740   0.153   1.507
21105WAT     H263558   0.808   0.227   1.635
21106WAT      O63559   3.249   8.181   5.387
21106WAT     H163560   3.320   8.164   5.455
21106WAT     H263561   3.217   8.276   5.394
21107WAT      O63562   3.920   6.538   4.815
21107WAT     H163563   3.892   6.449   4.780
21107WAT     H263564   3.911   6.606   4.743
21108WAT      O63565   3.600   0.303   0.232
21108WAT     H163566   3.642   0.250   0.159
21108WAT     H263567   3.663   0.310   0.309
21109WAT      O63568   5.462   9.397   1.938
21109WAT     H163569   5.556   9.365   1.944
21109WAT     H263570   5.433   9.400   1.843
21110WAT      O63571   9.153   1.527   9.360
21110WAT     H163572   9.215   1.464   9.313
21110WAT     H263573   9.077   1.475   9.400
21111WAT      O63574   0.623   5.478   2.558
21111WAT     H163575   0.543   5.421   2.537
21111WAT     H263576   0.703   5.443   2.509
21112WAT      O63577   4.998   9.668   8.111
21112WAT     H163578   4.977   9.715   8.197
21112WAT     H263579   5.097   9.666   8.098
21113WAT      O63580   6.304   2.565   8.733
21113WAT     H163581   6.227   2.528   8.785
21113WAT     H263582   6.381   2.582   8.795
21114WAT      O63583   1.096   6.140   0.981
21114WAT     H163584   1.032   6.124   1.057
21114WAT     H263585   1.050   6.195   0.911
21115WAT      O63586   5.431   7.485   0.170
21115WAT     H163587   5.382   7.503   0.084
21115WAT     H263588   5.381   7.419   0.224
21116WAT      O63589   8.015   4.835   7.307
21116WAT     H163590   8.038   4.900   7.379
21116WAT     H263591   8.013   4.881   7.218
21117WAT      O63592   8.624   9.005   3.867
21117WAT     H163593   8.534   9.046   3.877
21117WAT     H263594   8.617   8.919   3.816
21118WAT      O63595   0.204   4.833   0.650
21118WAT     H163596   0.257   4.916   0.632
21118WAT     H263597   0.130   4.826   0.584
21119WAT      O63598   0.096   1.973   1.600
21119WAT     H163599   0.156   2.048   1.573
21119WAT     H263600   0.071   1.983   1.697
21120WAT      O63601   9.568   9.254   5.603
21120WAT     H163602   9.596   9.340   5.560
21120WAT     H263603   9.547   9.270   5.699
21121WAT      O63604   2.606   9.755   0.128
21121WAT     H163605   2.637   9.836   0.080
21121WAT     H263606   2.648   9.674   0.088
21122WAT      O63607   2.106   2.584   3.243
21122WAT     H163608   2.041   2.659   3.236
21122WAT     H263609   2.143   2.580   3.336
21123WAT      O63610   3.650   2.700   0.727
21123WAT     H163611   3.713   2.778   0.719
21123WAT     H263612   3.580   2.721   0.795
21124WAT      O63613   9.232   7.751   8.034
21124WAT     H163614   9.192   7.715   8.119
21124WAT     H263615   9.317   7.799   8.055
21125WAT      O63616   7.397   7.744   8.304
21125WAT     H163617   7.332   7.689   8.355
21125WAT     H263618   7.469   7.684   8.267
21126WAT      O63619   1.279   3.400   6.466
21126WAT     H163620   1.300   3.457   6.386
21126WAT     H263621   1.345   3.325   6.471
21127WAT      O63622   2.333   1.103   1.895
21127WAT     H163623   2.253   1.083   1.952
21127WAT     H263624   2.417   1.089   1.949
21128WAT      O63625   2.203   2.792   6.467
21128WAT     H163626   2.248   2.880   6.482
21128WAT     H263627   2.159   2.792   6.377
21129WAT      O63628   5.593   5.076   9.073
21129WAT     H163629   5.535   4.995   9.066
21129WAT     H263630   5.642   5.089   8.987
21130WAT      O63631   8.292   6.030   4.757
21130WAT     H163632   8.295   5.932   4.777
21130WAT     H263633   8.319   6.046   4.662
21131WAT      O63634   0.223   5.272   2.076
21131WAT     H163635   0.270   5.194   2.117
21131WAT     H263636   0.241   5.354   2.131
21132WAT      O63637   4.823   6.415   7.522
21132WAT     H163638   4.883   6.380   7.593
21132WAT     H263639   4.848   6.510   7.501
21133WAT      O63640   9.046   3.026   4.854
21133WAT     H163641   9.122   3.019   4.919
21133WAT     H263642   8.962   3.044   4.905
21134WAT      O63643   3.820   6.770   6.680
21134WAT     H163644   3.795   6.865   6.663
21134WAT     H263645   3.883   6.765   6.757
21135WAT      O63646   2.067   6.472   9.301
21135WAT     H163647   2.036   6.486   9.206
21135WAT     H263648   2.143   6.408   9.302
21136WAT      O63649   3.117   9.831   0.493
21136WAT     H163650   3.198   9.889   0.504
21136WAT     H263651   3.072   9.852   0.406
21137WAT      O63652   1.081   9.289   3.956
21137WAT     H163653   0.987   9.259   3.974
21137WAT     H263654   1.144   9.234   4.011
21138WAT      O63655   6.794   0.790   8.126
21138WAT     H163656   6.836   0.834   8.206
21138WAT     H263657   6.746   0.708   8.155
21139WAT      O63658   5.490   8.524   7.398
21139WAT     H163659   5.477   8.545   7.495
21139WAT     H263660   5.585   8.541   7.372
21140WAT      O63661   4.336   5.467   1.981
21140WAT     H163662   4.279   5.384   1.988
21140WAT     H263663   4.432   5.442   1.994
21141WAT      O63664   3.672   1.143   7.225
21141WAT     H163665   3.703   1.073   7.162
21141WAT     H263666   3.736   1.220   7.225
21142WAT      O63667   7.101   0.576   1.512
21142WAT     H163668   7.035   0.612   1.578
21142WAT     H263669   7.171   0.524   1.561
21143WAT      O63670   9.738   5.951   6.477
21143WAT     H163671   9.654   6.004   6.489
21143WAT     H263672   9.816   6.013   6.468
21144WAT      O63673   0.771   0.740   5.208
21144WAT     H163674   0.742   0.814   5.148
21144WAT     H263675   0.870   0.728   5.201
21145WAT      O63676   9.417   4.474   8.598
21145WAT     H163677   9.459   4.531   8.527
21145WAT     H263678   9.322   4.502   8.611
21146WAT      O63679   1.049   7.123   1.292
21146WAT     H163680   0.983   7.192   1.322
21146WAT     H263681   1.129   7.169   1.252
21147WAT      O63682   9.389   2.756   2.842
21147WAT     H163683   9.320   2.814   2.799
21147WAT     H263684   9.428   2.693   2.775
21148WAT      O63685   4.834   8.508   7.372
21148WAT     H163686   4.933   8.489   7.370
21148WAT     H263687   4.807   8.532   7.465
21149WAT      O63688   9.246   6.516   1.255
21149WAT     H163689   9.251   6.549   1.350
21149WAT     H263690   9.221   6.592   1.195
21150WAT      O63691   2.912   4.093   2.315
21150WAT     H163692   2.947   4.017   2.370
21150WAT     H263693   2.987   4.136   2.265
21151WAT      O63694   4.306   6.546   8.003
21151WAT     H163695   4.240   6.492   7.951
21151WAT     H263696   4.257   6.605   8.068
21152WAT      O63697   5.098   6.136   3.274
21152WAT     H163698   5.183   6.149   3.324
21152WAT     H263699   5.095   6.043   3.237
21153WAT      O63700   2.294   4.244   2.565
21153WAT     H163701   2.392   4.244   2.545
21153WAT     H263702   2.250   4.318   2.514
21154WAT      O63703   1.382   5.462   3.005
21154WAT     H163704   1.473   5.503   3.015
21154WAT     H263705   1.362   5.450   2.908
21155WAT      O63706   9.715   8.214   8.683
21155WAT     H163707   9.621   8.246   8.688
21155WAT     H263708   9.771   8.283   8.635
21156WAT      O63709   4.669   1.255   7.880
21156WAT     H163710   4.570   1.261   7.889
21156WAT     H263711   4.701   1.165   7.910
21157WAT      O63712   8.807   4.953   6.215
21157WAT     H163713   8.791   4.863   6.175
21157WAT     H263714   8.733   4.974   6.279
21158WAT      O63715   8.929   0.529   4.636
21158WAT     H163716   8.866   0.591   4.683
21158WAT     H263717   9.023   0.557   4.655
21159WAT      O63718   0.667   7.800   2.832
21159WAT     H163719   0.567   7.806   2.832
21159WAT     H263720   0.697   7.735   2.763
21160WAT      O63721   5.586   4.717   8.226
21160WAT     H163722   5.673   4.674   8.250
21160WAT     H263723   5.573   4.800   8.280
21161WAT      O63724   1.537   2.093   5.307
21161WAT     H163725   1.518   2.170   5.368
21161WAT     H263726   1.599   2.029   5.352
21162WAT      O63727   4.682   0.615   7.044
21162WAT     H163728   4.751   0.654   7.105
21162WAT     H263729   4.665   0.520   7.070
21163WAT      O63730   5.250   7.645   3.854
21163WAT     H163731   5.276   7.589   3.932
21163WAT     H263732   5.151   7.659   3.855
21164WAT      O63733   6.021   3.335   6.116
21164WAT     H163734   5.962   3.410   6.147
21164WAT     H263735   6.092   3.318   6.184
21165WAT      O63736   0.676   0.382   9.037
21165WAT     H163737   0.653   0.412   9.129
21165WAT     H263738   0.742   0.307   9.042
21166WAT      O63739   1.573   7.135   1.356
21166WAT     H163740   1.555   7.176   1.266
21166WAT     H263741   1.571   7.036   1.348
21167WAT      O63742   8.181   4.847   1.731
21167WAT     H163743   8.241   4.833   1.809
21167WAT     H263744   8.210   4.788   1.656
21168WAT      O63745   0.061   6.702   3.892
21168WAT     H163746  -0.005   6.771   3.922
21168WAT     H263747   0.056   6.692   3.792
21169WAT      O63748   8.019   5.197   9.057
21169WAT     H163749   8.034   5.150   8.970
21169WAT     H263750   8.107   5.225   9.095
21170WAT      O63751   6.321   9.021   1.811
21170WAT     H163752   6.260   8.954   1.852
21170WAT     H263753   6.414   9.006   1.845
21171WAT      O63754   8.012   0.794   5.850
21171WAT     H163755   7.966   0.833   5.770
21171WAT     H263756   8.084   0.857   5.881
21172WAT      O63757   5.191   7.008   2.502
21172WAT     H163758   5.095   6.997   2.477
21172WAT     H263759   5.198   7.060   2.587
21173WAT      O63760   3.859   2.048   1.374
21173WAT     H163761   3.896   2.081   1.461
21173WAT     H263762   3.928   2.057   1.303
21174WAT      O63763   9.212   1.284   8.109
21174WAT     H163764   9.265   1.367   8.090
21174WAT     H263765   9.229   1.254   8.203
21175WAT      O63766   3.626   2.086   2.575
21175WAT     H163767   3.607   2.001   2.525
21175WAT     H263768   3.558   2.155   2.550
21176WAT      O63769   3.209   1.915   0.423
21176WAT     H163770   3.288   1.854   0.433
21176WAT     H263771   3.191   1.930   0.326
21177WAT      O63772   9.458   6.700   8.020
21177WAT     H163773   9.436   6.614   8.066
21177WAT     H263774   9.525   6.751   8.074
21178WAT      O63775   2.723   1.096   1.617
21178WAT     H163776   2.708   1.191   1.644
21178WAT     H263777   2.814   1.085   1.578
21179WAT      O63778   0.383   2.675   5.994
21179WAT     H163779   0.342   2.664   5.903
21179WAT     H263780   0.403   2.772   6.010
21180WAT      O63781   7.297   9.745   2.100
21180WAT     H163782   7.284   9.660   2.049
21180WAT     H263783   7.376   9.735   2.161
21181WAT      O63784   0.128   1.120   9.634
21181WAT     H163785   0.195   1.067   9.686
21181WAT     H263786   0.040   1.073   9.635
21182WAT      O63787   2.751   4.681   1.515
21182WAT     H163788   2.669   4.685   1.457
21182WAT     H263789   2.755   4.592   1.559
21183WAT      O63790   8.593   8.886   5.433
21183WAT     H163791   8.640   8.800   5.451
21183WAT     H263792   8.507   8.867   5.385
21184WAT      O63793   1.554   6.994   8.689
21184WAT     H163794   1.467   7.043   8.691
21184WAT     H263795   1.620   7.042   8.747
21185WAT      O63796   6.570   2.760   3.219
21185WAT     H163797   6.501   2.725   3.283
21185WAT     H263798   6.591   2.855   3.242
21186WAT      O63799   9.700   2.728   0.410
21186WAT     H163800   9.666   2.716   0.316
21186WAT     H263801   9.627   2.706   0.474
21187WAT      O63802   8.643   3.291   7.492
21187WAT     H163803   8.593   3.343   7.423
21187WAT     H263804   8.632   3.193   7.475
21188WAT      O63805   1.502   5.184   7.502
21188WAT     H163806   1.428   5.161   7.566
21188WAT     H263807   1.522   5.105   7.444
21189WAT      O63808   7.688   9.108   6.749
21189WAT     H163809   7.708   9.020   6.792
21189WAT     H263810   7.590   9.129   6.760
21190WAT      O63811   4.307   3.776   0.810
21190WAT     H163812   4.357   3.852   0.768
21190WAT     H263813   4.242   3.811   0.877
21191WAT      O63814   4.897   1.147   4.581
21191WAT     H163815   4.821   1.117   4.523
21191WAT     H263816   4.867   1.223   4.639
21192WAT      O63817   9.450   4.493   9.869
21192WAT     H163818   9.546   4.512   9.888
21192WAT     H263819   9.442   4.415   9.807
21193WAT      O63820   3.039   4.046   9.003
21193WAT     H163821   3.055   3.957   9.046
21193WAT     H263822   2.940   4.063   8.998
21194WAT      O63823   5.271   3.230   0.147
21194WAT     H163824   5.269   3.135   0.176
21194WAT     H263825   5.321   3.285   0.214
21195WAT      O63826   8.366   4.010   0.926
21195WAT     H163827   8.402   4.067   1.000
21195WAT     H263828   8.441   3.956   0.886
21196WAT      O63829   7.302   8.131   0.945
21196WAT     H163830   7.251   8.217   0.955
21196WAT     H263831   7.306   8.106   0.848
21197WAT      O63832   6.828   9.129   4.126
21197WAT     H163833   6.915   9.156   4.167
21197WAT     H263834   6.844   9.058   4.057
21198WAT      O63835   2.021   8.438   9.774
21198WAT     H163836   2.022   8.536   9.757
21198WAT     H263837   2.101   8.396   9.731
21199WAT      O63838   0.493   5.918   9.328
21199WAT     H163839   0.528   5.933   9.235
21199WAT     H263840   0.538   5.838   9.368
21200WAT      O63841   9.531   7.692   6.409
21200WAT     H163842   9.464   7.716   6.479
21200WAT     H263843   9.594   7.769   6.396
21201WAT      O63844   5.678   7.725   4.024
21201WAT     H163845   5.774   7.754   4.027
21201WAT     H263846   5.629   7.780   3.956
21202WAT      O63847   7.060   2.788   5.761
21202WAT     H163848   7.117   2.722   5.809
21202WAT     H263849   7.113   2.872   5.745
21203WAT      O63850   5.317   1.298   8.273
21203WAT     H163851   5.361   1.220   8.317
21203WAT     H263852   5.217   1.287   8.277
21204WAT      O63853   7.308   1.982   6.443
21204WAT     H163854   7.365   1.907   6.410
21204WAT     H263855   7.307   1.982   6.543
21205WAT      O63856   2.308   3.468   8.808
21205WAT     H163857   2.250   3.411   8.867
21205WAT     H263858   2.280   3.455   8.713
21206WAT      O63859   2.219   9.136   2.258
21206WAT     H163860   2.211   9.186   2.172
21206WAT     H263861   2.305   9.160   2.302
21207WAT      O63862   3.326   0.286   1.500
21207WAT     H163863   3.338   0.187   1.498
21207WAT     H263864   3.228   0.307   1.497
21208WAT      O63865   8.919   8.629   7.041
21208WAT     H163866   8.982   8.553   7.056
21208WAT     H263867   8.826   8.593   7.029
21209WAT      O63868   9.054   4.289   8.344
21209WAT     H163869   9.151   4.270   8.361
21209WAT     H263870   9.039   4.388   8.347
21210WAT      O63871   7.860   6.046   6.311
21210WAT     H163872   7.914   6.052   6.227
21210WAT     H263873   7.912   5.995   6.380
21211WAT      O63874   7.590   2.112   7.146
21211WAT     H163875   7.496   2.119   7.177
21211WAT     H263876   7.631   2.203   7.141
21212WAT      O63877   1.367   9.458   5.069
21212WAT     H163878   1.355   9.387   5.000
21212WAT     H263879   1.279   9.503   5.087
21213WAT      O63880   8.846   0.217   9.884
21213WAT     H163881   8.852   0.271   9.968
21213WAT     H263882   8.850   0.278   9.805
21214WAT      O63883   2.107   5.362   1.548
21214WAT     H163884   2.149   5.394   1.633
21214WAT     H263885   2.179   5.339   1.483
21215WAT      O63886   4.085   4.643   5.086
21215WAT     H163887   4.129   4.663   4.998
21215WAT     H263888   3.988   4.625   5.071
21216WAT      O63889   6.821   2.153   9.124
21216WAT     H163890   6.856   2.203   9.203
21216WAT     H263891   6.726   2.127   9.140
21217WAT      O63892   0.276   6.442   6.851
21217WAT     H163893   0.204   6.402   6.908
21217WAT     H263894   0.309   6.374   6.786
21218WAT      O63895   9.862   4.913   6.048
21218WAT     H163896   9.888   4.851   5.974
21218WAT     H263897   9.943   4.938   6.101
21219WAT      O63898   3.314   5.627   5.880
21219WAT     H163899   3.283   5.568   5.806
21219WAT     H263900   3.406   5.659   5.861
21220WAT      O63901   1.194   6.007   3.302
21220WAT     H163902   1.266   5.938   3.294
21220WAT     H263903   1.112   5.976   3.256
21221WAT      O63904   1.528   6.136   8.959
21221WAT     H163905   1.470   6.214   8.935
21221WAT     H263906   1.487   6.052   8.922
21222WAT      O63907   6.954   4.502   8.641
21222WAT     H163908   6.919   4.585   8.685
21222WAT     H263909   6.877   4.447   8.609
21223WAT      O63910   1.081   9.280   7.833
21223WAT     H163911   1.099   9.328   7.747
21223WAT     H263912   0.987   9.298   7.862
21224WAT      O63913   9.435   0.626   7.617
21224WAT     H163914   9.389   0.582   7.540
21224WAT     H263915   9.460   0.556   7.684
21225WAT      O63916   1.695   4.512   1.180
21225WAT     H163917   1.671   4.600   1.221
21225WAT     H263918   1.632   4.493   1.104
21226WAT      O63919   9.817   7.403   5.073
21226WAT     H163920   9.901   7.455   5.088
21226WAT     H263921   9.810   7.330   5.141
21227WAT      O63922   3.243   6.155   6.722
21227WAT     H163923   3.170   6.092   6.697
21227WAT     H263924   3.258   6.221   6.648
21228WAT      O63925   0.527   6.208   6.308
21228WAT     H163926   0.518   6.152   6.390
21228WAT     H263927   0.466   6.174   6.237
21229WAT      O63928   9.168   2.332   4.427
21229WAT     H163929   9.229   2.281   4.366
21229WAT     H263930   9.222   2.383   4.494
21230WAT      O63931   8.184   9.810   4.954
21230WAT     H163932   8.135   9.782   4.871
21230WAT     H263933   8.118   9.821   5.029
21231WAT      O63934   1.493   3.541   1.099
21231WAT     H163935   1.406   3.541   1.050
21231WAT     H263936   1.568   3.556   1.035
21232WAT      O63937   6.094   6.469   7.718
21232WAT     H163938   6.078   6.377   7.756
21232WAT     H263939   6.152   6.462   7.637
21233WAT      O63940   7.573   3.363   0.963
21233WAT     H163941   7.646   3.306   0.999
21233WAT     H263942   7.582   3.456   1.001
21234WAT      O63943   0.128   0.724   2.814
21234WAT     H163944   0.162   0.630   2.810
21234WAT     H263945   0.077   0.737   2.899
21235WAT      O63946   2.222   7.656   1.784
21235WAT     H163947   2.175   7.669   1.697
21235WAT     H263948   2.289   7.582   1.775
21236WAT      O63949   5.004   8.771   7.399
21236WAT     H163950   5.086   8.713   7.401
21236WAT     H263951   4.948   8.751   7.479
21237WAT      O63952   8.951   2.129   6.656
21237WAT     H163953   8.985   2.035   6.666
21237WAT     H263954   8.910   2.159   6.742
21238WAT      O63955   5.045   2.902   7.236
21238WAT     H163956   4.947   2.922   7.238
21238WAT     H263957   5.062   2.813   7.278
21239WAT      O63958   1.000   5.040   7.004
21239WAT     H163959   0.943   5.011   6.927
21239WAT     H263960   1.019   5.138   6.997
21240WAT      O63961   8.119   6.928   0.350
21240WAT     H163962   8.176   6.976   0.417
21240WAT     H263963   8.107   6.833   0.379
21241WAT      O63964   4.983   8.931   9.414
21241WAT     H163965   4.893   8.962   9.382
21241WAT     H263966   4.987   8.939   9.514
21242WAT      O63967   5.634   6.673   3.125
21242WAT     H163968   5.548   6.629   3.097
21242WAT     H263969   5.708   6.641   3.065
21243WAT      O63970   4.527   2.495   0.684
21243WAT     H163971   4.441   2.476   0.733
21243WAT     H263972   4.507   2.512   0.588
21244WAT      O63973   2.996   1.780   1.841
21244WAT     H163974   3.023   1.796   1.746
21244WAT     H263975   2.988   1.867   1.889
21245WAT      O63976   7.748   2.534   1.691
21245WAT     H163977   7.669   2.529   1.753
21245WAT     H263978   7.740   2.614   1.632
21246WAT      O63979   4.032   4.264   2.930
21246WAT     H163980   4.039   4.250   2.831
21246WAT     H263981   4.123   4.272   2.970
21247WAT      O63982   8.040   1.946   1.765
21247WAT     H163983   8.086   2.012   1.707
21247WAT     H263984   7.948   1.929   1.731
21248WAT      O63985   2.756   3.645   1.775
21248WAT     H163986   2.665   3.611   1.800
21248WAT     H263987   2.775   3.729   1.825
21249WAT      O63988   6.607   3.387   2.462
21249WAT     H163989   6.665   3.425   2.390
21249WAT     H263990   6.548   3.316   2.424
21250WAT      O63991   5.994   7.929   4.695
21250WAT     H163992   5.914   7.893   4.744
21250WAT     H263993   5.966   7.961   4.604
21251WAT      O63994   4.916   2.153   2.018
21251WAT     H163995   4.927   2.237   2.071
21251WAT     H263996   5.007   2.118   1.993
21252WAT      O63997   5.187   8.454   8.849
21252WAT     H163998   5.273   8.467   8.800
21252WAT     H263999   5.130   8.387   8.800
21253WAT      O64000   1.733   0.923   5.229
21253WAT     H164001   1.728   1.023   5.217
21253WAT     H264002   1.732   0.901   5.326
21254WAT      O64003   4.534   0.626   3.711
21254WAT     H164004   4.617   0.654   3.760
21254WAT     H264005   4.545   0.531   3.680
21255WAT      O64006   2.585   5.364   2.185
21255WAT     H164007   2.681   5.372   2.211
21255WAT     H264008   2.543   5.289   2.235
21256WAT      O64009   7.215   4.950   7.816
21256WAT     H164010   7.169   5.039   7.824
21256WAT     H264011   7.251   4.924   7.905
21257WAT      O64012   6.440   9.797   1.402
21257WAT     H164013   6.350   9.806   1.358
21257WAT     H264014   6.494   9.728   1.354
21258WAT      O64015   7.548   6.005   6.104
21258WAT     H164016   7.610   6.046   6.037
21258WAT     H264017   7.533   5.909   6.081
21259WAT      O64018   2.702   3.462   7.663
21259WAT     H164019   2.735   3.542   7.614
21259WAT     H264020   2.778   3.416   7.708
21260WAT      O64021   9.430   1.472   8.942
21260WAT     H164022   9.441   1.559   8.990
21260WAT     H264023   9.461   1.482   8.847
21261WAT      O64024   3.193   3.499   9.756
21261WAT     H164025   3.198   3.456   9.666
21261WAT     H264026   3.180   3.428   9.825
21262WAT      O64027   5.720   4.881   0.073
21262WAT     H164028   5.809   4.843   0.098
21262WAT     H264029   5.662   4.887   0.154
21263WAT      O64030   8.912   4.604   5.641
21263WAT     H164031   8.897   4.702   5.641
21263WAT     H264032   8.869   4.564   5.560
21264WAT      O64033   9.193   6.862   1.470
21264WAT     H164034   9.190   6.931   1.543
21264WAT     H264035   9.128   6.886   1.398
21265WAT      O64036   9.838   5.965   4.807
21265WAT     H164037   9.903   5.971   4.883
21265WAT     H264038   9.760   5.910   4.833
21266WAT      O64039   5.045   3.865   9.008
21266WAT     H164040   4.984   3.876   9.087
21266WAT     H264041   5.087   3.952   8.986
21267WAT      O64042   0.460   1.030   6.476
21267WAT     H164043   0.432   1.088   6.399
21267WAT     H264044   0.438   1.076   6.562
21268WAT      O64045   1.905   2.874   9.025
21268WAT     H164046   1.935   2.779   9.016
21268WAT     H264047   1.908   2.900   9.122
21269WAT      O64048   2.513   4.090   5.269
21269WAT     H164049   2.560   4.173   5.240
21269WAT     H264050   2.576   4.012   5.265
21270WAT      O64051   7.225   4.502   7.789
21270WAT     H164052   7.243   4.405   7.771
21270WAT     H264053   7.279   4.558   7.725
21271WAT      O64054   1.946   1.838   6.337
21271WAT     H164055   1.950   1.835   6.437
21271WAT     H264056   1.944   1.934   6.307
21272WAT      O64057   6.497   9.378   0.757
21272WAT     H164058   6.495   9.322   0.839
21272WAT     H264059   6.566   9.450   0.767
21273WAT      O64060   9.607   9.149   4.869
21273WAT     H164061   9.669   9.071   4.862
21273WAT     H264062   9.619   9.208   4.789
21274WAT      O64063   0.820   9.777   6.937
21274WAT     H164064   0.796   9.693   6.889
21274WAT     H264065   0.851   9.846   6.871
21275WAT      O64066   8.151   0.202   3.902
21275WAT     H164067   8.191   0.187   3.992
21275WAT     H264068   8.125   0.298   3.892
21276WAT      O64069   8.578   0.901   6.034
21276WAT     H164070   8.501   0.837   6.046
21276WAT     H264071   8.604   0.939   6.122
21277WAT      O64072   5.459   1.001   6.969
21277WAT     H164073   5.537   0.960   6.921
21277WAT     H264074   5.476   1.099   6.981
21278WAT      O64075   6.302   7.690   0.240
21278WAT     H164076   6.361   7.767   0.217
21278WAT     H264077   6.209   7.723   0.257
21279WAT      O64078   7.615   4.491   0.170
21279WAT     H164079   7.663   4.552   0.232
21279WAT     H264080   7.535   4.537   0.133
21280WAT      O64081   4.251   5.391   5.702
21280WAT     H164082   4.210   5.395   5.611
21280WAT     H264083   4.319   5.464   5.712
21281WAT      O64084   3.387   3.908   3.814
21281WAT     H164085   3.468   3.857   3.785
21281WAT     H264086   3.379   3.904   3.914
21282WAT      O64087   3.189   5.096   2.398
21282WAT     H164088   3.218   5.061   2.487
21282WAT     H264089   3.192   5.023   2.330
21283WAT      O64090   9.000   1.999   9.799
21283WAT     H164091   8.930   2.010   9.869
21283WAT     H264092   9.072   1.938   9.833
21284WAT      O64093   3.136   5.475   5.718
21284WAT     H164094   3.054   5.478   5.776
21284WAT     H264095   3.174   5.382   5.720
21285WAT      O64096   9.508   5.384   1.362
21285WAT     H164097   9.423   5.338   1.389
21285WAT     H264098   9.546   5.339   1.281
21286WAT      O64099   3.778   0.071   6.430
21286WAT     H164100   3.685   0.083   6.397
21286WAT     H264101   3.804  -0.025   6.420
21287WAT      O64102   3.819   1.030   5.681
21287WAT     H164103   3.749   0.972   5.722
21287WAT     H264104   3.800   1.126   5.702
21288WAT      O64105   8.657   4.438   0.005
21288WAT     H164106   8.618   4.372  -0.059
21288WAT     H264107   8.754   4.417   0.020
21289WAT      O64108   1.609   5.007   1.046
21289WAT     H164109   1.545   5.007   1.123
21289WAT     H264110   1.698   5.041   1.077
21290WAT      O64111   9.081   0.488   2.507
21290WAT     H164112   9.158   0.426   2.489
21290WAT     H264113   8.999   0.434   2.525
21291WAT      O64114   4.023   9.129   0.432
21291WAT     H164115   4.011   9.220   0.392
21291WAT     H264116   4.101   9.130   0.495
21292WAT      O64117   2.365   8.725   9.559
21292WAT     H164118   2.432   8.777   9.610
21292WAT     H264119   2.404   8.637   9.532
21293WAT      O64120   1.026   6.601   9.096
21293WAT     H164121   0.948   6.625   9.037
21293WAT     H264122   1.096   6.554   9.042
21294WAT      O64123   3.286   1.459   4.516
21294WAT     H164124   3.209   1.408   4.479
21294WAT     H264125   3.284   1.553   4.482
21295WAT      O64126   4.622   4.892   8.650
21295WAT     H164127   4.570   4.844   8.721
21295WAT     H264128   4.558   4.939   8.589
21296WAT      O64129   6.760   5.592   8.776
21296WAT     H164130   6.849   5.593   8.731
21296WAT     H264131   6.698   5.532   8.726
21297WAT      O64132   4.770   6.014   5.609
21297WAT     H164133   4.758   5.949   5.534
21297WAT     H264134   4.858   6.060   5.600
21298WAT      O64135   4.329   1.638   7.190
21298WAT     H164136   4.405   1.577   7.215
21298WAT     H264137   4.257   1.630   7.258
21299WAT      O64138   5.925   1.287   5.905
21299WAT     H164139   6.016   1.247   5.893
21299WAT     H264140   5.917   1.323   5.998
21300WAT      O64141   6.581   2.437   8.644
21300WAT     H164142   6.558   2.379   8.566
21300WAT     H264143   6.598   2.530   8.612
21301WAT      O64144   0.772   2.397   7.071
21301WAT     H164145   0.843   2.332   7.044
21301WAT     H264146   0.743   2.379   7.165
21302WAT      O64147   6.734   4.589   1.379
21302WAT     H164148   6.760   4.542   1.464
21302WAT     H264149   6.640   4.621   1.387
21303WAT      O64150   2.138   3.275   0.776
21303WAT     H164151   2.232   3.241   0.778
21303WAT     H264152   2.121   3.319   0.688
21304WAT      O64153   4.380   3.249   4.683
21304WAT     H164154   4.359   3.167   4.737
21304WAT     H264155   4.376   3.226   4.586
21305WAT      O64156   8.919   1.319   8.680
21305WAT     H164157   8.895   1.388   8.612
21305WAT     H264158   9.016   1.295   8.670
21306WAT      O64159   2.080   5.238   3.366
21306WAT     H164160   2.139   5.311   3.399
21306WAT     H264161   2.003   5.226   3.429
21307WAT      O64162   6.296   7.738   8.615
21307WAT     H164163   6.283   7.832   8.584
21307WAT     H264164   6.337   7.738   8.707
21308WAT      O64165   6.847   3.153   9.744
21308WAT     H164166   6.937   3.168   9.784
21308WAT     H264167   6.855   3.143   9.645
21309WAT      O64168   8.981   5.249   9.731
21309WAT     H164169   8.889   5.250   9.770
21309WAT     H264170   8.982   5.301   9.646
21310WAT      O64171   8.075   0.017   1.615
21310WAT     H164172   8.120  -0.051   1.673
21310WAT     H264173   8.105   0.109   1.644
21311WAT      O64174   4.244   2.722   4.488
21311WAT     H164175   4.259   2.781   4.568
21311WAT     H264176   4.332   2.696   4.449
21312WAT      O64177   5.446   4.432   1.308
21312WAT     H164178   5.363   4.458   1.259
21312WAT     H264179   5.422   4.381   1.390
21313WAT      O64180   3.681   4.777   9.756
21313WAT     H164181   3.766   4.817   9.792
21313WAT     H264182   3.639   4.841   9.692
21314WAT      O64183   5.866   4.776   7.395
21314WAT     H164184   5.870   4.685   7.354
21314WAT     H264185   5.957   4.801   7.429
21315WAT      O64186   9.684   6.408   1.192
21315WAT     H164187   9.647   6.500   1.181
21315WAT     H264188   9.631   6.343   1.137
21316WAT      O64189   5.366   7.961   0.736
21316WAT     H164190   5.432   8.018   0.786
21316WAT     H264191   5.284   7.950   0.792
21317WAT      O64192   0.710   7.035   5.396
21317WAT     H164193   0.699   7.065   5.491
21317WAT     H264194   0.773   6.957   5.393
21318WAT      O64195   5.416   5.850   9.534
21318WAT     H164196   5.482   5.858   9.459
21318WAT     H264197   5.389   5.941   9.565
21319WAT      O64198   3.026   5.579   7.485
21319WAT     H164199   3.079   5.533   7.414
21319WAT     H264200   3.042   5.535   7.573
21320WAT      O64201   5.511   9.641   5.531
21320WAT     H164202   5.504   9.741   5.527
21320WAT     H264203   5.545   9.606   5.444
21321WAT      O64204   2.264   3.349   5.164
21321WAT     H164205   2.199   3.379   5.234
21321WAT     H264206   2.351   3.397   5.176
21322WAT      O64207   3.675   3.298   8.191
21322WAT     H164208   3.639   3.267   8.103
21322WAT     H264209   3.604   3.348   8.240
21323WAT      O64210   2.474   1.187   6.196
21323WAT     H164211   2.524   1.176   6.110
21323WAT     H264212   2.378   1.163   6.182
21324WAT      O64213   7.003   6.646   3.118
21324WAT     H164214   6.914   6.633   3.074
21324WAT     H264215   7.020   6.744   3.130
21325WAT      O64216   8.599   2.594   4.608
21325WAT     H164217   8.523   2.611   4.545
21325WAT     H264218   8.616   2.677   4.662
21326WAT      O64219   7.507   7.328   3.905
21326WAT     H164220   7.541   7.419   3.931
21326WAT     H264221   7.460   7.287   3.983
21327WAT      O64222   3.146   0.059   4.065
21327WAT     H164223   3.124   0.010   3.981
21327WAT     H264224   3.153  -0.006   4.141
21328WAT      O64225   4.388   5.104   1.852
21328WAT     H164226   4.482   5.127   1.875
21328WAT     H264227   4.385   5.058   1.763
21329WAT      O64228   3.747   3.201   3.218
21329WAT     H164229   3.808   3.179   3.142
21329WAT     H264230   3.653   3.176   3.194
21330WAT      O64231   5.352   7.913   3.428
21330WAT     H164232   5.385   8.004   3.402
21330WAT     H264233   5.424   7.865   3.479
21331WAT      O64234   3.348   3.701   6.714
21331WAT     H164235   3.356   3.607   6.747
21331WAT     H264236   3.335   3.762   6.792
21332WAT      O64237   3.190   1.294   2.556
21332WAT     H164238   3.236   1.379   2.582
21332WAT     H264239   3.091   1.306   2.565
21333WAT      O64240   5.034   8.562   4.191
21333WAT     H164241   4.950   8.518   4.225
21333WAT     H264242   5.011   8.652   4.154
21334WAT      O64243   2.723   4.032   3.518
21334WAT     H164244   2.667   3.980   3.454
21334WAT     H264245   2.787   3.970   3.564
21335WAT      O64246   1.458   4.398   5.729
21335WAT     H164247   1.359   4.389   5.729
21335WAT     H264248   1.485   4.483   5.772
21336WAT      O64249   0.435   1.622   8.537
21336WAT     H164250   0.374   1.683   8.587
21336WAT     H264251   0.433   1.644   8.440
21337WAT      O64252   1.001   7.523   0.596
21337WAT     H164253   0.931   7.581   0.554
21337WAT     H264254   1.024   7.558   0.686
21338WAT      O64255   8.260   5.410   8.181
21338WAT     H164256   8.258   5.343   8.107
21338WAT     H264257   8.189   5.479   8.167
21339WAT      O64258   7.970   5.777   7.502
21339WAT     H164259   8.058   5.740   7.531
21339WAT     H264260   7.985   5.857   7.444
21340WAT      O64261   1.100   6.185   2.947
21340WAT     H164262   1.116   6.114   2.878
21340WAT     H264263   1.184   6.200   2.999
21341WAT      O64264   4.004   8.914   8.843
21341WAT     H164265   3.926   8.855   8.821
21341WAT     H264266   4.038   8.956   8.759
21342WAT      O64267   0.721   2.191   6.473
21342WAT     H164268   0.635   2.142   6.490
21342WAT     H264269   0.747   2.181   6.378
21343WAT      O64270   3.941   7.379   1.631
21343WAT     H164271   3.943   7.460   1.689
21343WAT     H264272   3.869   7.316   1.662
21344WAT      O64273   0.295   5.490   4.497
21344WAT     H164274   0.391   5.462   4.498
21344WAT     H264275   0.258   5.488   4.590
21345WAT      O64276   7.234   4.253   1.755
21345WAT     H164277   7.209   4.350   1.752
21345WAT     H264278   7.179   4.203   1.689
21346WAT      O64279   4.060   4.464   2.599
21346WAT     H164280   4.127   4.390   2.592
21346WAT     H264281   4.087   4.526   2.672
21347WAT      O64282   8.713   3.958   5.556
21347WAT     H164283   8.788   3.906   5.515
21347WAT     H264284   8.635   3.956   5.494
21348WAT      O64285   1.336   2.568   0.342
21348WAT     H164286   1.339   2.578   0.243
21348WAT     H264287   1.279   2.639   0.382
21349WAT      O64288   4.252   1.506   5.277
21349WAT     H164289   4.347   1.531   5.299
21349WAT     H264290   4.233   1.415   5.313
21350WAT      O64291   2.187   5.458   6.852
21350WAT     H164292   2.279   5.498   6.860
21350WAT     H264293   2.118   5.527   6.875
21351WAT      O64294   9.125   8.242   1.120
21351WAT     H164295   9.104   8.207   1.028
21351WAT     H264296   9.198   8.187   1.161
21352WAT      O64297   8.841   2.070   1.484
21352WAT     H164298   8.852   1.972   1.499
21352WAT     H264299   8.930   2.110   1.462
21353WAT      O64300   3.008   2.960   5.887
21353WAT     H164301   2.924   2.987   5.935
21353WAT     H264302   3.080   2.943   5.954
21354WAT      O64303   4.992   4.280   9.471
21354WAT     H164304   5.058   4.206   9.460
21354WAT     H264305   4.957   4.308   9.381
21355WAT      O64306   2.914   2.249   0.003
21355WAT     H164307   2.931   2.151  -0.003
21355WAT     H264308   2.852   2.267   0.080
21356WAT      O64309   4.508   7.484   0.554
21356WAT     H164310   4.522   7.400   0.606
21356WAT     H264311   4.418   7.523   0.577
21357WAT      O64312   0.087   6.538   9.391
21357WAT     H164313   0.144   6.466   9.431
21357WAT     H264314   0.145   6.604   9.344
21358WAT      O64315   7.418   8.015   7.687
21358WAT     H164316   7.352   8.089   7.704
21358WAT     H264317   7.370   7.929   7.674
21359WAT      O64318   4.180   1.910   7.534
21359WAT     H164319   4.231   1.932   7.617
21359WAT     H264320   4.082   1.913   7.554
21360WAT      O64321   3.210   7.248   4.674
21360WAT     H164322   3.113   7.271   4.666
21360WAT     H264323   3.258   7.323   4.719
21361WAT      O64324   6.938   5.115   4.529
21361WAT     H164325   6.955   5.103   4.431
21361WAT     H264326   6.892   5.202   4.544
21362WAT      O64327   6.484   1.392   7.396
21362WAT     H164328   6.452   1.486   7.383
21362WAT     H264329   6.538   1.364   7.316
21363WAT      O64330   6.705   9.715   9.108
21363WAT     H164331   6.666   9.701   9.198
21363WAT     H264332   6.636   9.755   9.047
21364WAT      O64333   3.089   8.347   2.900
21364WAT     H164334   3.038   8.407   2.961
21364WAT     H264335   3.155   8.401   2.848
21365WAT      O64336   6.418   3.361   4.754
21365WAT     H164337   6.423   3.300   4.676
21365WAT     H264338   6.341   3.424   4.742
21366WAT      O64339   2.503   8.409   2.188
21366WAT     H164340   2.450   8.466   2.252
21366WAT     H264341   2.510   8.317   2.225
21367WAT      O64342   6.797   7.312   6.988
21367WAT     H164343   6.815   7.259   7.071
21367WAT     H264344   6.750   7.254   6.921
21368WAT      O64345   9.442   1.662   3.534
21368WAT     H164346   9.499   1.622   3.463
21368WAT     H264347   9.397   1.744   3.498
21369WAT      O64348   4.884   6.238   2.810
21369WAT     H164349   4.887   6.307   2.738
21369WAT     H264350   4.839   6.276   2.891
21370WAT      O64351   6.703   2.370   1.225
21370WAT     H164352   6.776   2.414   1.173
21370WAT     H264353   6.642   2.441   1.263
21371WAT      O64354   6.490   6.544   0.383
21371WAT     H164355   6.538   6.631   0.378
21371WAT     H264356   6.433   6.532   0.301
21372WAT      O64357   6.260   1.021   6.123
21372WAT     H164358   6.167   0.992   6.103
21372WAT     H264359   6.325   0.961   6.075
21373WAT      O64360   6.316   1.313   1.023
21373WAT     H164361   6.352   1.224   1.050
21373WAT     H264362   6.236   1.335   1.079
21374WAT      O64363   9.414   9.604   7.077
21374WAT     H164364   9.426   9.689   7.025
21374WAT     H264365   9.457   9.529   7.028
21375WAT      O64366   6.756   2.406   6.066
21375WAT     H164367   6.729   2.466   5.991
21375WAT     H264368   6.679   2.392   6.128
21376WAT      O64369   1.921   3.054   4.756
21376WAT     H164370   1.986   3.100   4.817
21376WAT     H264371   1.964   2.971   4.719
21377WAT      O64372   5.209   1.908   9.280
21377WAT     H164373   5.129   1.966   9.262
21377WAT     H264374   5.182   1.812   9.277
21378WAT      O64375   9.609   1.134   4.438
21378WAT     H164376   9.702   1.164   4.417
21378WAT     H264377   9.613   1.042   4.478
21379WAT      O64378   0.962   2.897   8.955
21379WAT     H164379   0.896   2.942   9.014
21379WAT     H264380   1.038   2.861   9.010
21380WAT      O64381   4.662   6.034   4.063
21380WAT     H164382   4.606   6.023   4.145
21380WAT     H264383   4.736   6.097   4.081
21381WAT      O64384   7.938   1.256   5.077
21381WAT     H164385   7.989   1.340   5.056
21381WAT     H264386   7.845   1.278   5.105
21382WAT      O64387   5.622   5.294   3.377
21382WAT     H164388   5.687   5.218   3.377
21382WAT     H264389   5.667   5.376   3.413
21383WAT      O64390   4.994   6.760   8.085
21383WAT     H164391   5.076   6.809   8.115
21383WAT     H264392   4.914   6.798   8.131
21384WAT      O64393   1.521   8.008   7.466
21384WAT     H164394   1.424   7.993   7.483
21384WAT     H264395   1.569   8.019   7.553
21385WAT      O64396   5.167   7.473   5.687
21385WAT     H164397   5.226   7.403   5.726
21385WAT     H264398   5.139   7.446   5.595
21386WAT      O64399   1.791   9.566   6.017
21386WAT     H164400   1.814   9.503   6.092
21386WAT     H264401   1.820   9.659   6.042
21387WAT      O64402   4.911   0.208   2.330
21387WAT     H164403   4.885   0.226   2.425
21387WAT     H264404   4.835   0.163   2.282
21388WAT      O64405   6.568   9.816   7.255
21388WAT     H164406   6.530   9.853   7.169
21388WAT     H264407   6.492   9.790   7.315
21389WAT      O64408   8.542   0.126   1.979
21389WAT     H164409   8.518   0.216   2.014
21389WAT     H264410   8.641   0.120   1.967
21390WAT      O64411   0.621   3.474   1.958
21390WAT     H164412   0.598   3.412   2.033
21390WAT     H264413   0.690   3.540   1.988
21391WAT      O64414   5.693   1.786   3.377
21391WAT     H164415   5.608   1.833   3.399
21391WAT     H264416   5.736   1.754   3.461
21392WAT      O64417   7.205   8.084   3.908
21392WAT     H164418   7.145   8.059   3.984
21392WAT     H264419   7.152   8.090   3.823
21393WAT      O64420   9.373   4.774   2.488
21393WAT     H164421   9.388   4.820   2.576
21393WAT     H264422   9.343   4.680   2.504
21394WAT      O64423   6.985   8.797   5.624
21394WAT     H164424   6.926   8.846   5.559
21394WAT     H264425   7.074   8.842   5.628
21395WAT      O64426   8.926   7.190   9.838
21395WAT     H164427   8.953   7.095   9.821
21395WAT     H264428   8.865   7.221   9.766
21396WAT      O64429   0.057   2.489   8.822
21396WAT     H164430   0.096   2.461   8.734
21396WAT     H264431  -0.043   2.486   8.817
21397WAT      O64432   6.925   3.679   9.506
21397WAT     H164433   6.991   3.649   9.437
21397WAT     H264434   6.953   3.645   9.596
21398WAT      O64435   9.091   5.301   4.267
21398WAT     H164436   9.032   5.304   4.186
21398WAT     H264437   9.042   5.339   4.345
21399WAT      O64438   6.551   7.178   9.100
21399WAT     H164439   6.576   7.098   9.046
21399WAT     H264440   6.596   7.174   9.189
21400WAT      O64441   9.789   3.066   7.657
21400WAT     H164442   9.698   3.046   7.692
21400WAT     H264443   9.784   3.142   7.592
21401WAT      O64444   6.883   8.168   1.455
21401WAT     H164445   6.894   8.069   1.464
21401WAT     H264446   6.959   8.205   1.401
21402WAT      O64447   2.113   9.189   6.462
21402WAT     H164448   2.212   9.178   6.462
21402WAT     H264449   2.085   9.235   6.547
21403WAT      O64450   6.502   6.666   7.351
21403WAT     H164451   6.479   6.764   7.348
21403WAT     H264452   6.443   6.616   7.288
21404WAT      O64453   0.226   9.194   1.517
21404WAT     H164454   0.244   9.236   1.427
21404WAT     H264455   0.286   9.114   1.528
21405WAT      O64456   7.823   3.082   4.798
21405WAT     H164457   7.827   3.180   4.816
21405WAT     H264458   7.847   3.064   4.702
21406WAT      O64459   2.652   9.825   6.350
21406WAT     H164460   2.711   9.883   6.405
21406WAT     H264461   2.600   9.882   6.286
21407WAT      O64462   0.904   1.993   4.024
21407WAT     H164463   0.969   2.069   4.020
21407WAT     H264464   0.934   1.927   4.093
21408WAT      O64465   3.067   0.661   7.703
21408WAT     H164466   3.164   0.657   7.680
21408WAT     H264467   3.044   0.753   7.735
21409WAT      O64468   2.350   5.789   8.102
21409WAT     H164469   2.384   5.755   8.015
21409WAT     H264470   2.290   5.868   8.086
21410WAT      O64471   5.565   3.818   6.230
21410WAT     H164472   5.604   3.799   6.140
21410WAT     H264473   5.547   3.916   6.239
21411WAT      O64474   8.129   8.883   1.622
21411WAT     H164475   8.165   8.825   1.696
21411WAT     H264476   8.077   8.958   1.662
21412WAT      O64477   7.360   4.390   3.029
21412WAT     H164478   7.333   4.296   3.008
21412WAT     H264479   7.383   4.437   2.944
21413WAT      O64480   3.401   2.794   8.081
21413WAT     H164481   3.321   2.849   8.107
21413WAT     H264482   3.378   2.738   8.002
21414WAT      O64483   5.785   1.974   9.016
21414WAT     H164484   5.724   2.016   9.084
21414WAT     H264485   5.730   1.923   8.950
21415WAT      O64486   2.146   2.613   2.285
21415WAT     H164487   2.227   2.578   2.332
21415WAT     H264488   2.102   2.683   2.343
21416WAT      O64489   7.119   4.338   6.968
21416WAT     H164490   7.090   4.245   6.993
21416WAT     H264491   7.186   4.333   6.893
21417WAT      O64492   2.116   4.126   1.587
21417WAT     H164493   2.104   4.027   1.597
21417WAT     H264494   2.086   4.172   1.670
21418WAT      O64495   7.097   2.630   6.641
21418WAT     H164496   7.075   2.722   6.671
21418WAT     H264497   7.103   2.569   6.721
21419WAT      O64498   0.583   3.713   4.799
21419WAT     H164499   0.544   3.805   4.797
21419WAT     H264500   0.536   3.655   4.732
21420WAT      O64501   9.355   4.689   9.702
21420WAT     H164502   9.390   4.680   9.609
21420WAT     H264503   9.381   4.609   9.756
21421WAT      O64504   1.992   3.015   5.420
21421WAT     H164505   1.963   3.031   5.515
21421WAT     H264506   1.941   2.938   5.382
21422WAT      O64507   7.752   3.488   1.546
21422WAT     H164508   7.695   3.569   1.531
21422WAT     H264509   7.705   3.408   1.508
21423WAT      O64510   9.621   0.547   4.577
21423WAT     H164511   9.535   0.572   4.621
21423WAT     H264512   9.698   0.588   4.627
21424WAT      O64513   2.002   5.474   3.104
21424WAT     H164514   2.069   5.518   3.164
21424WAT     H264515   1.970   5.541   3.037
21425WAT      O64516   3.650   9.420   0.936
21425WAT     H164517   3.656   9.352   0.863
21425WAT     H264518   3.638   9.373   1.024
21426WAT      O64519   0.701   3.297   1.677
21426WAT     H164520   0.734   3.391   1.661
21426WAT     H264521   0.680   3.286   1.774
21427WAT      O64522   7.925   8.473   3.727
21427WAT     H164523   7.897   8.557   3.773
21427WAT     H264524   8.023   8.458   3.743
21428WAT      O64525   4.550   3.349   1.158
21428WAT     H164526   4.558   3.328   1.061
21428WAT     H264527   4.455   3.336   1.188
21429WAT      O64528   7.393   2.150   3.225
21429WAT     H164529   7.386   2.082   3.298
21429WAT     H264530   7.369   2.240   3.260
21430WAT      O64531   6.556   2.127   9.219
21430WAT     H164532   6.505   2.211   9.233
21430WAT     H264533   6.524   2.082   9.135
21431WAT      O64534   1.432   0.008   7.329
21431WAT     H164535   1.406  -0.077   7.374
21431WAT     H264536   1.438   0.082   7.397
21432WAT      O64537   7.221   7.857   7.011
21432WAT     H164538   7.210   7.758   7.011
21432WAT     H264539   7.138   7.900   6.976
21433WAT      O64540   4.274   9.456   7.195
21433WAT     H164541   4.367   9.435   7.226
21433WAT     H264542   4.211   9.386   7.229
21434WAT      O64543   1.836   8.589   2.979
21434WAT     H164544   1.902   8.592   2.904
21434WAT     H264545   1.757   8.646   2.956
21435WAT      O64546   7.632   6.565   8.120
21435WAT     H164547   7.677   6.603   8.201
21435WAT     H264548   7.663   6.471   8.106
21436WAT      O64549   0.532   5.367   1.665
21436WAT     H164550   0.451   5.390   1.719
21436WAT     H264551   0.537   5.267   1.655
21437WAT      O64552   8.908   7.629   2.644
21437WAT     H164553   8.950   7.720   2.646
21437WAT     H264554   8.933   7.583   2.559
21438WAT      O64555   5.444   1.573   1.465
21438WAT     H164556   5.460   1.533   1.556
21438WAT     H264557   5.352   1.548   1.434
21439WAT      O64558   6.153   0.625   9.385
21439WAT     H164559   6.236   0.652   9.432
21439WAT     H264560   6.166   0.534   9.344
21440WAT      O64561   2.764   8.870   0.039
21440WAT     H164562   2.787   8.792   0.097
21440WAT     H264563   2.785   8.955   0.087
21441WAT      O64564   1.476   7.506   0.021
21441WAT     H164565   1.436   7.472   0.106
21441WAT     H264566   1.486   7.431  -0.044
21442WAT      O64567   5.263   2.875   1.715
21442WAT     H164568   5.293   2.948   1.653
21442WAT     H264569   5.171   2.897   1.749
21443WAT      O64570  -0.002   2.128   6.211
21443WAT     H164571   0.028   2.184   6.288
21443WAT     H264572   0.077   2.079   6.173
21444WAT      O64573   0.247   9.065   8.835
21444WAT     H164574   0.184   8.998   8.794
21444WAT     H264575   0.338   9.053   8.797
21445WAT      O64576   9.218   2.331   7.341
21445WAT     H164577   9.223   2.263   7.415
21445WAT     H264578   9.236   2.286   7.254
21446WAT      O64579   2.966   3.994   7.285
21446WAT     H164580   2.897   3.987   7.357
21446WAT     H264581   2.971   4.089   7.252
21447WAT      O64582   3.830   8.387   8.316
21447WAT     H164583   3.898   8.451   8.281
21447WAT     H264584   3.849   8.368   8.413
21448WAT      O64585   0.563   7.165   2.929
21448WAT     H164586   0.643   7.174   2.988
21448WAT     H264587   0.514   7.252   2.926
21449WAT      O64588   9.480   5.236   8.437
21449WAT     H164589   9.538   5.159   8.414
21449WAT     H264590   9.489   5.259   8.534
21450WAT      O64591   8.038   1.760   7.036
21450WAT     H164592   8.065   1.771   6.940
21450WAT     H264593   7.991   1.672   7.048
21451WAT      O64594   9.815   0.774   3.792
21451WAT     H164595   9.754   0.712   3.842
21451WAT     H264596   9.788   0.777   3.696
21452WAT      O64597   1.532   9.142   4.955
21452WAT     H164598   1.478   9.208   4.903
21452WAT     H264599   1.598   9.191   5.013
21453WAT      O64600   4.341   0.393   1.777
21453WAT     H164601   4.365   0.303   1.740
21453WAT     H264602   4.369   0.464   1.713
21454WAT      O64603   8.368   0.475   4.043
21454WAT     H164604   8.273   0.463   4.012
21454WAT     H264605   8.377   0.562   4.091
21455WAT      O64606   9.434   3.308   5.557
21455WAT     H164607   9.483   3.395   5.569
21455WAT     H264608   9.471   3.241   5.622
21456WAT      O64609   4.318   6.856   6.125
21456WAT     H164610   4.278   6.859   6.217
21456WAT     H264611   4.392   6.923   6.119
21457WAT      O64612   5.765   1.285   7.302
21457WAT     H164613   5.688   1.347   7.314
21457WAT     H264614   5.784   1.272   7.205
21458WAT      O64615   6.827   9.480   1.349
21458WAT     H164616   6.844   9.412   1.420
21458WAT     H264617   6.894   9.554   1.357
21459WAT      O64618   3.189   9.711   0.715
21459WAT     H164619   3.164   9.746   0.624
21459WAT     H264620   3.255   9.773   0.758
21460WAT      O64621   6.259   1.736   7.602
21460WAT     H164622   6.289   1.809   7.664
21460WAT     H264623   6.194   1.677   7.650
21461WAT      O64624   4.894   8.885   2.552
21461WAT     H164625   4.928   8.806   2.603
21461WAT     H264626   4.806   8.861   2.510
21462WAT      O64627   9.598   7.989   3.335
21462WAT     H164628   9.513   7.991   3.282
21462WAT     H264629   9.630   8.082   3.351
21463WAT      O64630   9.472   9.051   1.545
21463WAT     H164631   9.387   9.049   1.598
21463WAT     H264632   9.451   9.069   1.449
21464WAT      O64633   9.505   6.109   2.684
21464WAT     H164634   9.551   6.068   2.605
21464WAT     H264635   9.420   6.154   2.653
21465WAT      O64636   7.636   9.088   4.705
21465WAT     H164637   7.729   9.122   4.716
21465WAT     H264638   7.596   9.126   4.621
21466WAT      O64639   9.169   1.879   7.492
21466WAT     H164640   9.112   1.922   7.422
21466WAT     H264641   9.231   1.813   7.449
21467WAT      O64642   8.394   5.279   8.607
21467WAT     H164643   8.459   5.348   8.640
21467WAT     H264644   8.434   5.188   8.615
21468WAT      O64645   4.194   0.434   2.656
21468WAT     H164646   4.226   0.346   2.621
21468WAT     H264647   4.109   0.421   2.707
21469WAT      O64648   2.532   8.342   8.524
21469WAT     H164649   2.494   8.432   8.545
21469WAT     H264650   2.612   8.326   8.582
21470WAT      O64651   7.105   3.546   8.310
21470WAT     H164652   7.137   3.565   8.217
21470WAT     H264653   7.144   3.460   8.342
21471WAT      O64654   0.986   4.638   8.395
21471WAT     H164655   0.933   4.596   8.468
21471WAT     H264656   1.031   4.566   8.342
21472WAT      O64657   2.429   2.658   4.433
21472WAT     H164658   2.400   2.744   4.474
21472WAT     H264659   2.399   2.656   4.337
21473WAT      O64660   9.047   3.015   6.162
21473WAT     H164661   9.145   3.032   6.156
21473WAT     H264662   9.030   2.916   6.164
21474WAT      O64663   6.514   0.419   6.995
21474WAT     H164664   6.475   0.509   7.014
21474WAT     H264665   6.443   0.358   6.959
21475WAT      O64666   8.406   8.973   1.116
21475WAT     H164667   8.421   9.065   1.080
21475WAT     H264668   8.474   8.911   1.077
21476WAT      O64669   3.120   7.662   2.783
21476WAT     H164670   3.085   7.576   2.747
21476WAT     H264671   3.056   7.736   2.762
21477WAT      O64672   1.454   4.564   9.101
21477WAT     H164673   1.531   4.508   9.130
21477WAT     H264674   1.415   4.610   9.181
21478WAT      O64675   6.172   1.102   5.844
21478WAT     H164676   6.101   1.058   5.898
21478WAT     H264677   6.237   1.033   5.812
21479WAT      O64678   5.797   0.183   8.460
21479WAT     H164679   5.816   0.267   8.409
21479WAT     H264680   5.769   0.207   8.553
21480WAT      O64681   5.887   7.978   8.142
21480WAT     H164682   5.880   7.879   8.134
21480WAT     H264683   5.908   8.017   8.053
21481WAT      O64684   8.405   4.763   6.344
21481WAT     H164685   8.352   4.788   6.425
21481WAT     H264686   8.403   4.664   6.332
21482WAT      O64687   5.287   7.720   0.617
21482WAT     H164688   5.298   7.774   0.701
21482WAT     H264689   5.201   7.671   0.620
21483WAT      O64690   3.843   6.214   2.751
21483WAT     H164691   3.929   6.182   2.791
21483WAT     H264692   3.771   6.210   2.821
21484WAT      O64693   3.099   0.698   5.547
21484WAT     H164694   3.124   0.687   5.643
21484WAT     H264695   3.010   0.656   5.531
21485WAT      O64696   6.907   8.033   6.643
21485WAT     H164697   6.966   8.019   6.722
21485WAT     H264698   6.859   7.948   6.621
21486WAT      O64699   4.180   2.906   7.233
21486WAT     H164700   4.218   2.871   7.147
21486WAT     H264701   4.138   2.831   7.284
21487WAT      O64702   1.513   8.899   1.212
21487WAT     H164703   1.512   8.987   1.259
21487WAT     H264704   1.420   8.875   1.184
21488WAT      O64705   1.213   1.313   0.696
21488WAT     H164706   1.233   1.220   0.665
21488WAT     H264707   1.227   1.378   0.622
21489WAT      O64708   3.094   0.454   2.151
21489WAT     H164709   3.183   0.489   2.179
21489WAT     H264710   3.028   0.529   2.149
21490WAT      O64711   2.277   4.829   4.468
21490WAT     H164712   2.241   4.736   4.463
21490WAT     H264713   2.200   4.893   4.481
21491WAT      O64714   2.062   4.298   0.127
21491WAT     H164715   2.094   4.203   0.124
21491WAT     H264716   1.962   4.300   0.121
21492WAT      O64717   9.487   9.722   1.525
21492WAT     H164718   9.551   9.742   1.451
21492WAT     H264719   9.488   9.624   1.544
21493WAT      O64720   0.653   1.404   3.422
21493WAT     H164721   0.606   1.383   3.508
21493WAT     H264722   0.681   1.501   3.422
21494WAT      O64723   0.080   6.881   1.594
21494WAT     H164724   0.151   6.870   1.524
21494WAT     H264725   0.005   6.817   1.575
21495WAT      O64726   4.197   8.036   5.284
21495WAT     H164727   4.268   8.104   5.305
21495WAT     H264728   4.181   8.034   5.186
21496WAT      O64729   1.037   0.754   5.205
21496WAT     H164730   1.126   0.744   5.161
21496WAT     H264731   1.043   0.824   5.276
21497WAT      O64732   2.815   3.117   1.513
21497WAT     H164733   2.850   3.210   1.505
21497WAT     H264734   2.882   3.052   1.477
21498WAT      O64735   6.082   8.523   9.891
21498WAT     H164736   5.985   8.527   9.869
21498WAT     H264737   6.119   8.616   9.896
21499WAT      O64738   5.253   7.844   5.797
21499WAT     H164739   5.240   7.809   5.705
21499WAT     H264740   5.285   7.771   5.857
21500WAT      O64741   5.117   2.718   5.988
21500WAT     H164742   5.101   2.621   5.969
21500WAT     H264743   5.215   2.737   5.983
21501WAT      O64744   1.794   5.321   7.066
21501WAT     H164745   1.832   5.272   7.145
21501WAT     H264746   1.848   5.299   6.985
21502WAT      O64747   7.542   7.793   5.196
21502WAT     H164748   7.512   7.833   5.109
21502WAT     H264749   7.482   7.823   5.269
21503WAT      O64750   3.627   3.780   0.671
21503WAT     H164751   3.552   3.845   0.684
21503WAT     H264752   3.712   3.830   0.654
21504WAT      O64753   2.949   8.466   8.091
21504WAT     H164754   3.036   8.486   8.046
21504WAT     H264755   2.877   8.524   8.052
21505WAT      O64756   5.694   4.591   1.938
21505WAT     H164757   5.600   4.606   1.907
21505WAT     H264758   5.725   4.671   1.989
21506WAT      O64759   2.864   7.958   3.050
21506WAT     H164760   2.910   8.008   3.123
21506WAT     H264761   2.777   7.922   3.085
21507WAT      O64762   3.006   7.045   4.970
21507WAT     H164763   3.028   6.955   5.007
21507WAT     H264764   2.909   7.048   4.945
21508WAT      O64765   1.863   8.647   1.916
21508WAT     H164766   1.764   8.632   1.913
21508WAT     H264767   1.896   8.631   2.009
21509WAT      O64768   8.785   1.777   3.518
21509WAT     H164769   8.733   1.729   3.589
21509WAT     H264770   8.729   1.783   3.436
21510WAT      O64771   5.863   7.812   6.862
21510WAT     H164772   5.814   7.843   6.781
21510WAT     H264773   5.846   7.714   6.876
21511WAT      O64774   3.615   9.041   8.468
21511WAT     H164775   3.648   8.981   8.395
21511WAT     H264776   3.545   8.994   8.521
21512WAT      O64777   8.648   2.456   1.930
21512WAT     H164778   8.634   2.388   1.858
21512WAT     H264779   8.721   2.519   1.904
21513WAT      O64780   4.308   3.287   2.785
21513WAT     H164781   4.388   3.300   2.726
21513WAT     H264782   4.236   3.241   2.734
21514WAT      O64783   3.868   2.873   1.235
21514WAT     H164784   3.903   2.936   1.166
21514WAT     H264785   3.769   2.863   1.224
21515WAT      O64786   7.469   5.608   0.600
21515WAT     H164787   7.483   5.519   0.643
21515WAT     H264788   7.372   5.630   0.598
21516WAT      O64789   5.059   3.600   2.959
21516WAT     H164790   5.021   3.515   2.922
21516WAT     H264791   5.002   3.633   3.034
21517WAT      O64792   3.164   0.365   9.495
21517WAT     H164793   3.073   0.381   9.532
21517WAT     H264794   3.228   0.348   9.570
21518WAT      O64795   3.601   1.896   7.044
21518WAT     H164796   3.559   1.940   7.124
21518WAT     H264797   3.601   1.797   7.057
21519WAT      O64798   0.332   5.531   8.694
21519WAT     H164799   0.402   5.497   8.631
21519WAT     H264800   0.289   5.455   8.741
21520WAT      O64801   2.758   8.785   2.195
21520WAT     H164802   2.701   8.722   2.143
21520WAT     H264803   2.845   8.799   2.148
21521WAT      O64804   0.597   2.334   3.705
21521WAT     H164805   0.570   2.284   3.623
21521WAT     H264806   0.697   2.339   3.709
21522WAT      O64807   7.452   9.535   6.151
21522WAT     H164808   7.424   9.630   6.137
21522WAT     H264809   7.535   9.517   6.098
21523WAT      O64810   3.819   6.446   7.178
21523WAT     H164811   3.860   6.531   7.211
21523WAT     H264812   3.851   6.427   7.086
21524WAT      O64813   4.992   8.666   7.013
21524WAT     H164814   4.920   8.700   7.073
21524WAT     H264815   5.068   8.731   7.011
21525WAT      O64816   3.067   2.367   7.200
21525WAT     H164817   2.996   2.312   7.243
21525WAT     H264818   3.073   2.345   7.103
21526WAT      O64819   4.136   9.504   7.997
21526WAT     H164820   4.120   9.405   7.989
21526WAT     H264821   4.234   9.522   7.994
21527WAT      O64822   2.981   5.239   0.840
21527WAT     H164823   2.904   5.239   0.903
21527WAT     H264824   3.023   5.149   0.837
21528WAT      O64825   6.774   8.913   1.704
21528WAT     H164826   6.842   8.979   1.736
21528WAT     H264827   6.770   8.915   1.604
21529WAT      O64828   7.652   1.975   0.504
21529WAT     H164829   7.736   1.972   0.450
21529WAT     H264830   7.672   2.008   0.596
21530WAT      O64831   8.313   9.426   3.696
21530WAT     H164832   8.402   9.399   3.733
21530WAT     H264833   8.325   9.497   3.627
21531WAT      O64834   2.463   3.323   4.705
21531WAT     H164835   2.501   3.244   4.753
21531WAT     H264836   2.419   3.384   4.771
21532WAT      O64837   6.424   5.295   7.546
21532WAT     H164838   6.387   5.207   7.517
21532WAT     H264839   6.516   5.307   7.509
21533WAT      O64840   0.612   3.502   6.482
21533WAT     H164841   0.577   3.413   6.512
21533WAT     H264842   0.563   3.530   6.399
21534WAT      O64843   5.604   1.427   6.689
21534WAT     H164844   5.660   1.458   6.766
21534WAT     H264845   5.623   1.330   6.671
21535WAT      O64846   4.749   2.803   8.110
21535WAT     H164847   4.798   2.730   8.063
21535WAT     H264848   4.703   2.766   8.191
21536WAT      O64849   0.776   0.002   0.391
21536WAT     H164850   0.770  -0.012   0.292
21536WAT     H264851   0.872   0.002   0.419
21537WAT      O64852   1.041   4.671   5.308
21537WAT     H164853   1.022   4.735   5.383
21537WAT     H264854   0.963   4.611   5.295
21538WAT      O64855   0.058   3.383   4.578
21538WAT     H164856   0.146   3.361   4.620
21538WAT     H264857   0.066   3.376   4.479
21539WAT      O64858   4.064   9.318   2.341
21539WAT     H164859   4.031   9.410   2.320
21539WAT     H264860   3.992   9.251   2.322
21540WAT      O64861   5.414   5.876   4.003
21540WAT     H164862   5.341   5.845   3.941
21540WAT     H264863   5.378   5.880   4.097
21541WAT      O64864   2.962   4.639   5.205
21541WAT     H164865   2.927   4.617   5.114
21541WAT     H264866   3.051   4.684   5.196
21542WAT      O64867   3.505   2.290   2.945
21542WAT     H164868   3.462   2.336   3.022
21542WAT     H264869   3.583   2.236   2.978
21543WAT      O64870   5.794   3.989   9.518
21543WAT     H164871   5.802   3.968   9.421
21543WAT     H264872   5.745   3.915   9.565
21544WAT      O64873   5.254   1.685   0.742
21544WAT     H164874   5.188   1.614   0.722
21544WAT     H264875   5.208   1.774   0.746
21545WAT      O64876   9.577   0.381   1.693
21545WAT     H164877   9.584   0.282   1.689
21545WAT     H264878   9.667   0.421   1.711
21546WAT      O64879   5.471   2.309   4.201
21546WAT     H164880   5.413   2.251   4.257
21546WAT     H264881   5.545   2.347   4.258
21547WAT      O64882   8.867   7.281   0.601
21547WAT     H164883   8.954   7.276   0.552
21547WAT     H264884   8.885   7.298   0.698
21548WAT      O64885   2.618   5.949   6.190
21548WAT     H164886   2.706   5.987   6.163
21548WAT     H264887   2.615   5.852   6.165
21549WAT      O64888   9.608   9.521   1.236
21549WAT     H164889   9.637   9.613   1.264
21549WAT     H264890   9.571   9.525   1.143
21550WAT      O64891   9.660   7.050   0.146
21550WAT     H164892   9.606   7.124   0.185
21550WAT     H264893   9.673   7.066   0.049
21551WAT      O64894   0.068   8.576   4.790
21551WAT     H164895   0.073   8.519   4.708
21551WAT     H264896  -0.028   8.593   4.813
21552WAT      O64897   0.721   8.463   9.030
21552WAT     H164898   0.756   8.554   9.011
21552WAT     H264899   0.761   8.428   9.115
21553WAT      O64900   0.971   6.134   8.643
21553WAT     H164901   0.920   6.079   8.708
21553WAT     H264902   1.051   6.174   8.688
21554WAT      O64903   4.086   6.895   8.552
21554WAT     H164904   4.120   6.989   8.557
21554WAT     H264905   4.134   6.846   8.479
21555WAT      O64906   6.260   9.366   2.111
21555WAT     H164907   6.291   9.319   2.028
21555WAT     H264908   6.334   9.370   2.178
21556WAT      O64909   3.574   2.926   7.916
21556WAT     H164910   3.560   2.883   7.827
21556WAT     H264911   3.518   2.880   7.985
21557WAT      O64912   6.788   1.397   2.623
21557WAT     H164913   6.808   1.311   2.577
21557WAT     H264914   6.701   1.433   2.589
21558WAT      O64915   5.384   1.731   9.482
21558WAT     H164916   5.329   1.650   9.459
21558WAT     H264917   5.362   1.805   9.419
21559WAT      O64918   2.445   0.787   0.733
21559WAT     H164919   2.379   0.761   0.662
21559WAT     H264920   2.531   0.737   0.718
21560WAT      O64921   4.650   5.068   9.695
21560WAT     H164922   4.742   5.055   9.732
21560WAT     H264923   4.656   5.094   9.599
21561WAT      O64924   8.710   8.894   5.822
21561WAT     H164925   8.653   8.933   5.750
21561WAT     H264926   8.677   8.801   5.843
21562WAT      O64927   4.389   9.259   0.698
21562WAT     H164928   4.335   9.321   0.641
21562WAT     H264929   4.485   9.288   0.696
21563WAT      O64930   6.745   4.984   1.118
21563WAT     H164931   6.825   5.018   1.168
21563WAT     H264932   6.776   4.932   1.038
21564WAT      O64933   7.655   8.623   7.472
21564WAT     H164934   7.603   8.676   7.405
21564WAT     H264935   7.640   8.525   7.456
21565WAT      O64936   4.858   0.271   0.940
21565WAT     H164937   4.764   0.283   0.974
21565WAT     H264938   4.903   0.198   0.991
21566WAT      O64939   2.444   4.468   4.478
21566WAT     H164940   2.476   4.392   4.421
21566WAT     H264941   2.414   4.543   4.419
21567WAT      O64942   9.813   1.722   7.718
21567WAT     H164943   9.752   1.793   7.683
21567WAT     H264944   9.842   1.663   7.643
21568WAT      O64945   7.169   2.286   0.562
21568WAT     H164946   7.126   2.274   0.473
21568WAT     H264947   7.246   2.349   0.554
21569WAT      O64948   8.414   4.302   8.747
21569WAT     H164949   8.393   4.386   8.798
21569WAT     H264950   8.390   4.223   8.803
21570WAT      O64951   7.002   6.628   2.172
21570WAT     H164952   7.008   6.614   2.270
21570WAT     H264953   7.079   6.582   2.127
21571WAT      O64954   3.574   8.998   3.553
21571WAT     H164955   3.596   8.942   3.633
21571WAT     H264956   3.508   9.068   3.579
21572WAT      O64957   3.232   9.810   9.772
21572WAT     H164958   3.243   9.900   9.814
21572WAT     H264959   3.142   9.803   9.729
21573WAT      O64960   0.503   8.811   2.104
21573WAT     H164961   0.533   8.853   2.190
21573WAT     H264962   0.442   8.874   2.056
21574WAT      O64963  -0.002   1.442   5.472
21574WAT     H164964   0.067   1.372   5.490
21574WAT     H264965  -0.029   1.438   5.376
21575WAT      O64966   0.889   0.409   9.300
21575WAT     H164967   0.934   0.469   9.366
21575WAT     H264968   0.795   0.440   9.285
21576WAT      O64969   4.216   7.809   5.648
21576WAT     H164970   4.294   7.755   5.678
21576WAT     H264971   4.248   7.892   5.602
21577WAT      O64972   0.170   2.893   5.425
21577WAT     H164973   0.196   2.798   5.403
21577WAT     H264974   0.081   2.893   5.470
21578WAT      O64975   8.386   1.989   8.052
21578WAT     H164976   8.387   2.020   7.957
21578WAT     H264977   8.314   2.038   8.102
21579WAT      O64978   3.922   9.809   9.319
21579WAT     H164979   3.845   9.751   9.346
21579WAT     H264980   4.007   9.756   9.329
21580WAT      O64981   5.643   0.293   3.049
21580WAT     H164982   5.674   0.255   2.962
21580WAT     H264983   5.715   0.350   3.088
21581WAT      O64984   8.920   0.800   6.531
21581WAT     H164985   8.942   0.879   6.587
21581WAT     H264986   8.928   0.824   6.434
21582WAT      O64987   6.763   0.064   0.201
21582WAT     H164988   6.851   0.096   0.238
21582WAT     H264989   6.688   0.109   0.248
21583WAT      O64990   3.394   4.765   4.312
21583WAT     H164991   3.469   4.758   4.377
21583WAT     H264992   3.388   4.859   4.278
21584WAT      O64993   3.399   1.772   5.635
21584WAT     H164994   3.410   1.789   5.537
21584WAT     H264995   3.436   1.682   5.658
21585WAT      O64996   5.054   1.727   7.706
21585WAT     H164997   5.065   1.723   7.805
21585WAT     H264998   4.959   1.709   7.682
21586WAT      O64999   6.283   1.506   1.865
21586WAT     H165000   6.320   1.579   1.808
21586WAT     H265001   6.183   1.510   1.864
21587WAT      O65002   1.246   6.061   6.971
21587WAT     H165003   1.337   6.030   6.942
21587WAT     H265004   1.245   6.161   6.974
21588WAT      O65005   1.867   4.343   4.388
21588WAT     H165006   1.966   4.336   4.400
21588WAT     H265007   1.821   4.326   4.475
21589WAT      O65008   1.599   9.012   5.380
21589WAT     H165009   1.579   8.921   5.415
21589WAT     H265010   1.695   9.034   5.396
21590WAT      O65011   3.116   1.867   9.196
21590WAT     H165012   3.153   1.835   9.109
21590WAT     H265013   3.118   1.792   9.263
21591WAT      O65014   0.788   5.204   8.451
21591WAT     H165015   0.815   5.167   8.539
21591WAT     H265016   0.735   5.136   8.400
21592WAT      O65017   7.858   4.702   1.668
21592WAT     H165018   7.787   4.773   1.670
21592WAT     H265019   7.820   4.619   1.627
21593WAT      O65020   7.389   9.661   0.337
21593WAT     H165021   7.366   9.628   0.428
21593WAT     H265022   7.423   9.586   0.281
21594WAT      O65023   7.164   7.059   4.848
21594WAT     H165024   7.097   7.116   4.897
21594WAT     H265025   7.116   6.994   4.790
21595WAT      O65026   0.300   0.118   4.888
21595WAT     H165027   0.319   0.032   4.841
21595WAT     H265028   0.269   0.098   4.981
21596WAT      O65029   0.655   8.795   8.905
21596WAT     H165030   0.646   8.884   8.951
21596WAT     H265031   0.733   8.746   8.945
21597WAT      O65032   3.854   3.050   7.921
21597WAT     H165033   3.778   2.993   7.953
21597WAT     H265034   3.818   3.136   7.884
21598WAT      O65035   0.894   7.352   0.894
21598WAT     H165036   0.934   7.266   0.925
21598WAT     H265037   0.887   7.352   0.794
21599WAT      O65038   9.312   9.820   1.340
21599WAT     H165039   9.360   9.762   1.406
21599WAT     H265040   9.346   9.914   1.346
21600WAT      O65041   4.679   5.596   1.806
21600WAT     H165042   4.655   5.516   1.860
21600WAT     H265043   4.738   5.656   1.860
21601WAT      O65044   3.641   2.816   6.881
21601WAT     H165045   3.632   2.896   6.940
21601WAT     H265046   3.677   2.739   6.934
21602WAT      O65047   9.610   8.529   8.706
21602WAT     H165048   9.702   8.518   8.667
21602WAT     H265049   9.553   8.452   8.679
21603WAT      O65050   2.410   3.914   9.796
21603WAT     H165051   2.495   3.869   9.823
21603WAT     H265052   2.375   3.968   9.872
21604WAT      O65053   1.381   3.347   5.911
21604WAT     H165054   1.319   3.309   5.842
21604WAT     H265055   1.356   3.313   6.001
21605WAT      O65056   8.105   6.681   4.801
21605WAT     H165057   8.179   6.614   4.797
21605WAT     H265058   8.079   6.697   4.897
21606WAT      O65059   2.156   2.737   6.183
21606WAT     H165060   2.167   2.814   6.120
21606WAT     H265061   2.209   2.659   6.149
21607WAT      O65062   8.525   9.255   9.812
21607WAT     H165063   8.594   9.203   9.762
21607WAT     H265064   8.502   9.338   9.761
21608WAT      O65065   5.444   1.095   8.378
21608WAT     H165066   5.450   0.995   8.372
21608WAT     H265067   5.535   1.134   8.389
21609WAT      O65068   2.919   1.744   4.220
21609WAT     H165069   2.946   1.662   4.171
21609WAT     H265070   2.969   1.823   4.185
21610WAT      O65071   1.452   2.842   8.578
21610WAT     H165072   1.502   2.929   8.583
21610WAT     H265073   1.356   2.857   8.597
21611WAT      O65074   4.410   4.148   6.534
21611WAT     H165075   4.343   4.109   6.471
21611WAT     H265076   4.501   4.110   6.514
21612WAT      O65077   1.708   4.323   2.910
21612WAT     H165078   1.620   4.327   2.956
21612WAT     H265079   1.741   4.416   2.892
21613WAT      O65080   1.027   9.784   0.485
21613WAT     H165081   1.093   9.812   0.555
21613WAT     H265082   0.991   9.694   0.508
21614WAT      O65083   5.649   7.234   4.808
21614WAT     H165084   5.594   7.156   4.839
21614WAT     H265085   5.705   7.206   4.730
21615WAT      O65086   0.063   9.219   9.592
21615WAT     H165087   0.081   9.298   9.650
21615WAT     H265088  -0.002   9.157   9.636
21616WAT      O65089   1.749   1.197   8.689
21616WAT     H165090   1.796   1.246   8.616
21616WAT     H265091   1.666   1.154   8.652
21617WAT      O65092   5.212   2.679   4.175
21617WAT     H165093   5.192   2.708   4.268
21617WAT     H265094   5.132   2.633   4.136
21618WAT      O65095   9.705   9.108   5.395
21618WAT     H165096   9.671   9.014   5.389
21618WAT     H265097   9.638   9.166   5.442
21619WAT      O65098   3.240   3.130   7.437
21619WAT     H165099   3.207   3.223   7.454
21619WAT     H265100   3.339   3.130   7.434
21620WAT      O65101   5.531   8.808   6.069
21620WAT     H165102   5.614   8.835   6.119
21620WAT     H265103   5.498   8.886   6.016
21621WAT      O65104   2.474   3.285   3.579
21621WAT     H165105   2.433   3.251   3.495
21621WAT     H265106   2.432   3.373   3.604
21622WAT      O65107   4.873   1.246   2.814
21622WAT     H165108   4.940   1.319   2.829
21622WAT     H265109   4.921   1.159   2.805
21623WAT      O65110   4.049   0.340   3.022
21623WAT     H165111   4.127   0.285   2.991
21623WAT     H265112   4.082   0.428   3.054
21624WAT      O65113   8.323   7.806   7.520
21624WAT     H165114   8.288   7.870   7.451
21624WAT     H265115   8.246   7.767   7.571
21625WAT      O65116   9.164   3.767   6.589
21625WAT     H165117   9.245   3.767   6.529
21625WAT     H265118   9.185   3.715   6.672
21626WAT      O65119   5.827   2.183   9.789
21626WAT     H165120   5.772   2.262   9.818
21626WAT     H265121   5.782   2.099   9.818
21627WAT      O65122   7.243   8.100   4.395
21627WAT     H165123   7.243   8.191   4.355
21627WAT     H265124   7.211   8.104   4.489
21628WAT      O65125   6.973   1.167   3.088
21628WAT     H165126   7.020   1.178   3.001
21628WAT     H265127   7.034   1.124   3.155
21629WAT      O65128   3.888   6.543   1.683
21629WAT     H165129   3.834   6.585   1.610
21629WAT     H265130   3.827   6.506   1.753
21630WAT      O65131   2.207   8.626   4.799
21630WAT     H165132   2.198   8.529   4.823
21630WAT     H265133   2.254   8.634   4.711
21631WAT      O65134   4.258   5.237   1.130
21631WAT     H165135   4.288   5.192   1.214
21631WAT     H265136   4.328   5.301   1.099
21632WAT      O65137   1.968   4.733   3.419
21632WAT     H165138   2.011   4.646   3.445
21632WAT     H265139   2.025   4.809   3.450
21633WAT      O65140   4.927   4.624   3.436
21633WAT     H165141   5.019   4.587   3.417
21633WAT     H265142   4.929   4.723   3.426
21634WAT      O65143   3.701   2.111   9.457
21634WAT     H165144   3.626   2.070   9.510
21634WAT     H265145   3.718   2.055   9.376
21635WAT      O65146   0.117   8.923   4.579
21635WAT     H165147   0.170   8.862   4.638
21635WAT     H265148   0.117   9.016   4.618
21636WAT      O65149   1.450   5.365   2.459
21636WAT     H165150   1.443   5.295   2.388
21636WAT     H265151   1.543   5.401   2.461
21637WAT      O65152   6.116   9.069   5.129
21637WAT     H165153   6.094   9.096   5.223
21637WAT     H265154   6.109   8.969   5.122
21638WAT      O65155   5.879   4.199   5.112
21638WAT     H165156   5.933   4.144   5.049
21638WAT     H265157   5.920   4.290   5.121
21639WAT      O65158   6.329   0.382   1.154
21639WAT     H165159   6.428   0.366   1.161
21639WAT     H265160   6.303   0.456   1.217
21640WAT      O65161   2.560   3.108   7.857
21640WAT     H165162   2.609   3.032   7.898
21640WAT     H265163   2.585   3.193   7.903
21641WAT      O65164   7.092   5.898   1.728
21641WAT     H165165   7.089   5.996   1.709
21641WAT     H265166   7.080   5.882   1.826
21642WAT      O65167   0.031   7.180   3.308
21642WAT     H165168   0.117   7.186   3.257
21642WAT     H265169  -0.032   7.117   3.262
21643WAT      O65170   5.887   2.593   8.431
21643WAT     H165171   5.886   2.677   8.487
21643WAT     H265172   5.895   2.618   8.335
21644WAT      O65173   7.701   4.142   0.611
21644WAT     H165174   7.755   4.087   0.675
21644WAT     H265175   7.706   4.100   0.520
21645WAT      O65176   9.504   3.450   0.307
21645WAT     H165177   9.407   3.471   0.317
21645WAT     H265178   9.520   3.405   0.220
21646WAT      O65179   5.743   3.168   3.112
21646WAT     H165180   5.784   3.259   3.113
21646WAT     H265181   5.675   3.161   3.185
21647WAT      O65182   7.251   1.852   7.338
21647WAT     H165183   7.204   1.777   7.291
21647WAT     H265184   7.184   1.908   7.387
21648WAT      O65185   2.199   8.113   0.344
21648WAT     H165186   2.294   8.100   0.373
21648WAT     H265187   2.180   8.057   0.264
21649WAT      O65188   6.929   8.093   4.571
21649WAT     H165189   6.878   8.166   4.617
21649WAT     H265190   6.997   8.056   4.634
21650WAT      O65191   9.019   7.508   2.425
21650WAT     H165192   9.053   7.584   2.369
21650WAT     H265193   8.972   7.442   2.367
21651WAT      O65194   7.648   5.908   8.303
21651WAT     H165195   7.577   5.838   8.301
21651WAT     H265196   7.725   5.880   8.245
21652WAT      O65197   0.611   3.934   7.012
21652WAT     H165198   0.540   3.876   7.052
21652WAT     H265199   0.621   4.016   7.068
21653WAT      O65200   5.411   8.230   0.414
21653WAT     H165201   5.385   8.134   0.416
21653WAT     H265202   5.501   8.241   0.457
21654WAT      O65203   7.407   3.629   2.514
21654WAT     H165204   7.364   3.664   2.597
21654WAT     H265205   7.489   3.684   2.493
21655WAT      O65206   5.338   3.808   8.836
21655WAT     H165207   5.294   3.862   8.908
21655WAT     H265208   5.288   3.819   8.751
21656WAT      O65209   6.345   7.713   8.888
21656WAT     H165210   6.319   7.620   8.859
21656WAT     H265211   6.417   7.707   8.957
21657WAT      O65212   7.394   0.535   7.606
21657WAT     H165213   7.392   0.550   7.507
21657WAT     H265214   7.489   0.526   7.636
21658WAT      O65215   0.629   1.705   0.373
21658WAT     H165216   0.603   1.738   0.282
21658WAT     H265217   0.591   1.614   0.388
21659WAT      O65218   2.094   9.255   7.780
21659WAT     H165219   2.118   9.160   7.794
21659WAT     H265220   2.176   9.312   7.781
21660WAT      O65221   3.974   4.425   8.084
21660WAT     H165222   4.032   4.349   8.055
21660WAT     H265223   3.878   4.396   8.084
21661WAT      O65224   3.713   3.058   2.643
21661WAT     H165225   3.697   3.151   2.610
21661WAT     H265226   3.811   3.044   2.658
21662WAT      O65227   0.420   0.220   1.346
21662WAT     H165228   0.435   0.135   1.397
21662WAT     H265229   0.358   0.202   1.269
21663WAT      O65230   1.368   8.409   1.073
21663WAT     H165231   1.306   8.427   1.150
21663WAT     H265232   1.317   8.416   0.987
21664WAT      O65233   8.137   5.270   2.292
21664WAT     H165234   8.045   5.236   2.310
21664WAT     H265235   8.184   5.285   2.379
21665WAT      O65236   9.103   5.819   0.202
21665WAT     H165237   9.096   5.813   0.102
21665WAT     H265238   9.178   5.880   0.226
21666WAT      O65239   0.777   3.692   0.073
21666WAT     H165240   0.740   3.736   0.155
21666WAT     H265241   0.715   3.707  -0.004
21667WAT      O65242   4.332   7.259   4.145
21667WAT     H165243   4.322   7.349   4.188
21667WAT     H265244   4.354   7.270   4.049
21668WAT      O65245   5.533   9.046   9.508
21668WAT     H165246   5.438   9.046   9.476
21668WAT     H265247   5.569   9.139   9.506
21669WAT      O65248   8.825   6.171   9.097
21669WAT     H165249   8.806   6.087   9.148
21669WAT     H265250   8.776   6.247   9.140
21670WAT      O65251   2.590   4.480   6.271
21670WAT     H165252   2.565   4.461   6.176
21670WAT     H265253   2.511   4.514   6.321
21671WAT      O65254   3.375   0.344   8.262
21671WAT     H165255   3.407   0.316   8.352
21671WAT     H265256   3.360   0.264   8.204
21672WAT      O65257   4.935   2.347   5.024
21672WAT     H165258   4.869   2.413   5.060
21672WAT     H265259   5.028   2.377   5.047
21673WAT      O65260   6.392   2.495   3.683
21673WAT     H165261   6.312   2.554   3.673
21673WAT     H265262   6.476   2.550   3.677
21674WAT      O65263   7.991   0.789   8.633
21674WAT     H165264   7.951   0.767   8.722
21674WAT     H265265   7.990   0.888   8.619
21675WAT      O65266   6.136   8.791   7.707
21675WAT     H165267   6.168   8.751   7.793
21675WAT     H265268   6.100   8.719   7.648
21676WAT      O65269   9.575   7.417   0.918
21676WAT     H165270   9.494   7.417   0.976
21676WAT     H265271   9.568   7.492   0.852
21677WAT      O65272   0.775   9.740   7.517
21677WAT     H165273   0.774   9.838   7.537
21677WAT     H265274   0.813   9.725   7.426
21678WAT      O65275   7.046   8.770   0.098
21678WAT     H165276   7.094   8.794   0.183
21678WAT     H265277   6.951   8.800   0.103
21679WAT      O65278   6.070   0.934   9.564
21679WAT     H165279   6.025   0.866   9.506
21679WAT     H265280   6.067   0.902   9.659
21680WAT      O65281   7.974   9.108   5.376
21680WAT     H165282   8.006   9.014   5.362
21680WAT     H265283   8.047   9.163   5.417
21681WAT      O65284   7.589   1.326   9.415
21681WAT     H165285   7.646   1.273   9.478
21681WAT     H265286   7.496   1.334   9.452
21682WAT      O65287   6.013   7.453   8.766
21682WAT     H165288   5.994   7.439   8.669
21682WAT     H265289   5.952   7.524   8.802
21683WAT      O65290   5.131   7.343   3.313
21683WAT     H165291   5.144   7.415   3.380
21683WAT     H265292   5.048   7.360   3.260
21684WAT      O65293   0.475   8.238   3.535
21684WAT     H165294   0.512   8.315   3.483
21684WAT     H265295   0.541   8.163   3.533
21685WAT      O65296   1.256   4.116   8.873
21685WAT     H165297   1.262   4.100   8.971
21685WAT     H265298   1.263   4.030   8.823
21686WAT      O65299   9.658   2.558   4.780
21686WAT     H165300   9.634   2.654   4.763
21686WAT     H265301   9.619   2.501   4.708
21687WAT      O65302   0.825   0.894   0.412
21687WAT     H165303   0.847   0.876   0.508
21687WAT     H265304   0.772   0.978   0.405
21688WAT      O65305   7.114   2.683   8.188
21688WAT     H165306   7.063   2.748   8.243
21688WAT     H265307   7.116   2.594   8.234
21689WAT      O65308   7.609   6.678   6.436
21689WAT     H165309   7.587   6.580   6.437
21689WAT     H265310   7.688   6.695   6.495
21690WAT      O65311   0.271   0.945   5.805
21690WAT     H165312   0.289   0.938   5.903
21690WAT     H265313   0.284   0.855   5.763
21691WAT      O65314   1.076   2.154   4.764
21691WAT     H165315   1.051   2.064   4.730
21691WAT     H265316   1.035   2.225   4.706
21692WAT      O65317   4.371   3.488   5.383
21692WAT     H165318   4.425   3.572   5.377
21692WAT     H265319   4.382   3.436   5.299
21693WAT      O65320   6.777   4.300   9.236
21693WAT     H165321   6.856   4.260   9.190
21693WAT     H265322   6.731   4.364   9.173
21694WAT      O65323   4.011   0.451   9.585
21694WAT     H165324   4.046   0.530   9.536
21694WAT     H265325   4.029   0.368   9.532
21695WAT      O65326   4.440   6.719   9.125
21695WAT     H165327   4.485   6.687   9.042
21695WAT     H265328   4.394   6.642   9.169
21696WAT      O65329   5.794   7.868   1.181
21696WAT     H165330   5.745   7.794   1.225
21696WAT     H265331   5.848   7.832   1.105
21697WAT      O65332   3.237   8.619   0.440
21697WAT     H165333   3.290   8.690   0.485
21697WAT     H265334   3.247   8.627   0.341
21698WAT      O65335   2.146   0.707   6.300
21698WAT     H165336   2.108   0.622   6.337
21698WAT     H265337   2.079   0.750   6.240
21699WAT      O65338   2.761   0.406   8.197
21699WAT     H165339   2.805   0.405   8.107
21699WAT     H265340   2.761   0.499   8.234
21700WAT      O65341   8.886   0.793   8.417
21700WAT     H165342   8.884   0.877   8.472
21700WAT     H265343   8.802   0.786   8.364
21701WAT      O65344   7.987   8.171   2.480
21701WAT     H165345   8.026   8.159   2.571
21701WAT     H265346   7.903   8.117   2.472
21702WAT      O65347   2.298   6.509   2.862
21702WAT     H165348   2.313   6.530   2.765
21702WAT     H265349   2.361   6.437   2.891
21703WAT      O65350   6.501   4.024   3.251
21703WAT     H165351   6.540   4.014   3.159
21703WAT     H265352   6.551   4.094   3.302
21704WAT      O65353   0.432   7.065   7.786
21704WAT     H165354   0.523   7.046   7.821
21704WAT     H265355   0.364   7.015   7.840
21705WAT      O65356   5.731   1.354   0.179
21705WAT     H165357   5.657   1.379   0.117
21705WAT     H265358   5.720   1.260   0.209
21706WAT      O65359   0.395   3.361   4.354
21706WAT     H165360   0.374   3.458   4.364
21706WAT     H265361   0.387   3.335   4.257
21707WAT      O65362   0.023   6.026   9.532
21707WAT     H165363  -0.003   5.931   9.514
21707WAT     H265364   0.067   6.065   9.451
21708WAT      O65365   7.196   6.517   0.560
21708WAT     H165366   7.157   6.492   0.648
21708WAT     H265367   7.138   6.584   0.514
21709WAT      O65368   9.657   0.636   7.273
21709WAT     H165369   9.721   0.710   7.293
21709WAT     H265370   9.652   0.574   7.351
21710WAT      O65371   1.213   9.556   8.456
21710WAT     H165372   1.117   9.584   8.464
21710WAT     H265373   1.237   9.549   8.360
21711WAT      O65374   4.013   0.232   4.948
21711WAT     H165375   3.951   0.160   4.917
21711WAT     H265376   4.107   0.208   4.924
21712WAT      O65377   7.049   0.025   6.546
21712WAT     H165378   6.996   0.110   6.549
21712WAT     H265379   6.996  -0.046   6.501
21713WAT      O65380   7.072   7.350   6.939
21713WAT     H165381   7.122   7.337   7.024
21713WAT     H265382   6.974   7.353   6.957
21714WAT      O65383   4.399   8.651   4.769
21714WAT     H165384   4.440   8.570   4.727
21714WAT     H265385   4.401   8.641   4.869
21715WAT      O65386   1.687   6.890   8.491
21715WAT     H165387   1.717   6.956   8.422
21715WAT     H265388   1.649   6.938   8.570
21716WAT      O65389   8.421   6.181   7.171
21716WAT     H165390   8.432   6.188   7.270
21716WAT     H265391   8.507   6.206   7.126
21717WAT      O65392   3.381   9.498   6.642
21717WAT     H165393   3.373   9.581   6.587
21717WAT     H265394   3.470   9.497   6.688
21718WAT      O65395   8.154   6.367   2.903
21718WAT     H165396   8.249   6.389   2.879
21718WAT     H265397   8.100   6.451   2.902
21719WAT      O65398   6.172   6.375   4.899
21719WAT     H165399   6.121   6.426   4.830
21719WAT     H265400   6.108   6.325   4.958
21720WAT      O65401   8.347   0.135   7.801
21720WAT     H165402   8.425   0.073   7.811
21720WAT     H265403   8.367   0.221   7.847
21721WAT      O65404   0.887   1.998   1.342
21721WAT     H165405   0.965   2.060   1.352
21721WAT     H265406   0.803   2.051   1.330
21722WAT      O65407   6.528   3.870   4.901
21722WAT     H165408   6.548   3.781   4.860
21722WAT     H265409   6.598   3.893   4.968
21723WAT      O65410   3.167   5.072   7.416
21723WAT     H165411   3.154   4.993   7.476
21723WAT     H265412   3.133   5.050   7.325
21724WAT      O65413   4.739   9.578   2.491
21724WAT     H165414   4.701   9.486   2.502
21724WAT     H265415   4.666   9.646   2.504
21725WAT      O65416   1.023   4.831   5.520
21725WAT     H165417   0.938   4.882   5.508
21725WAT     H265418   1.098   4.896   5.537
21726WAT      O65419   2.489   9.391   6.290
21726WAT     H165420   2.395   9.395   6.256
21726WAT     H265421   2.523   9.484   6.304
21727WAT      O65422   4.754   1.501   4.401
21727WAT     H165423   4.775   1.446   4.321
21727WAT     H265424   4.756   1.598   4.377
21728WAT      O65425   5.066   3.514   3.595
21728WAT     H165426   5.089   3.590   3.535
21728WAT     H265427   5.058   3.547   3.690
21729WAT      O65428   4.760   7.951   3.417
21729WAT     H165429   4.839   8.012   3.405
21729WAT     H265430   4.790   7.865   3.457
21730WAT      O65431   4.656   8.438   5.648
21730WAT     H165432   4.628   8.517   5.703
21730WAT     H265433   4.661   8.357   5.707
21731WAT      O65434   4.020   8.616   2.375
21731WAT     H165435   3.971   8.666   2.304
21731WAT     H265436   3.954   8.578   2.440
21732WAT      O65437   1.540   6.483   8.677
21732WAT     H165438   1.515   6.449   8.587
21732WAT     H265439   1.518   6.580   8.684
21733WAT      O65440   9.401   0.342   2.168
21733WAT     H165441   9.431   0.387   2.084
21733WAT     H265442   9.480   0.308   2.218
21734WAT      O65443   5.827   7.387   3.374
21734WAT     H165444   5.742   7.405   3.324
21734WAT     H265445   5.818   7.303   3.427
21735WAT      O65446   2.596   1.096   1.296
21735WAT     H165447   2.528   1.056   1.357
21735WAT     H265448   2.687   1.065   1.325
21736WAT      O65449   7.130   6.220   3.026
21736WAT     H165450   7.064   6.244   3.097
21736WAT     H265451   7.088   6.234   2.936
21737WAT      O65452   8.564   6.450   9.789
21737WAT     H165453   8.468   6.437   9.814
21737WAT     H265454   8.574   6.441   9.690
21738WAT      O65455   8.015   4.927   2.386
21738WAT     H165456   7.989   5.023   2.379
21738WAT     H265457   7.980   4.890   2.472
21739WAT      O65458   7.382   2.938   2.456
21739WAT     H165459   7.294   2.930   2.502
21739WAT     H265460   7.455   2.951   2.523
21740WAT      O65461   4.685   7.422   5.062
21740WAT     H165462   4.637   7.413   5.149
21740WAT     H265463   4.691   7.519   5.037
21741WAT      O65464   6.954   6.882   2.056
21741WAT     H165465   6.965   6.798   2.110
21741WAT     H265466   7.009   6.875   1.973
21742WAT      O65467   6.803   6.314   8.890
21742WAT     H165468   6.726   6.286   8.947
21742WAT     H265469   6.770   6.367   8.812
21743WAT      O65470   5.423   2.151   2.554
21743WAT     H165471   5.363   2.137   2.475
21743WAT     H265472   5.380   2.112   2.635
21744WAT      O65473   1.786   1.005   8.063
21744WAT     H165474   1.853   1.074   8.088
21744WAT     H265475   1.755   0.957   8.145
21745WAT      O65476   8.073   4.148   3.685
21745WAT     H165477   7.993   4.091   3.665
21745WAT     H265478   8.156   4.099   3.663
21746WAT      O65479   2.495   6.088   7.147
21746WAT     H165480   2.493   6.171   7.091
21746WAT     H265481   2.583   6.043   7.137
21747WAT      O65482   6.038   7.642   1.238
21747WAT     H165483   6.024   7.581   1.160
21747WAT     H265484   6.129   7.684   1.232
21748WAT      O65485   1.638   3.183   5.300
21748WAT     H165486   1.717   3.198   5.241
21748WAT     H265487   1.572   3.257   5.287
21749WAT      O65488   0.070   1.248   7.240
21749WAT     H165489   0.118   1.159   7.238
21749WAT     H265490   0.138   1.321   7.237
21750WAT      O65491   1.549   9.398   9.369
21750WAT     H165492   1.557   9.427   9.273
21750WAT     H265493   1.460   9.425   9.405
21751WAT      O65494   8.338   0.057   6.903
21751WAT     H165495   8.301   0.089   6.991
21751WAT     H265496   8.429   0.096   6.889
21752WAT      O65497   5.908   3.973   2.875
21752WAT     H165498   5.875   3.932   2.790
21752WAT     H265499   5.831   4.013   2.925
21753WAT      O65500   9.614   3.730   4.524
21753WAT     H165501   9.702   3.684   4.518
21753WAT     H265502   9.604   3.793   4.447
21754WAT      O65503   0.866   1.519   7.285
21754WAT     H165504   0.903   1.525   7.193
21754WAT     H265505   0.773   1.484   7.282
21755WAT      O65506   0.201   2.490   0.523
21755WAT     H165507   0.124   2.546   0.495
21755WAT     H265508   0.264   2.546   0.579
21756WAT      O65509   8.593   3.570   2.692
21756WAT     H165510   8.667   3.569   2.624
21756WAT     H265511   8.523   3.503   2.666
21757WAT      O65512   5.138   4.252   5.305
21757WAT     H165513   5.057   4.268   5.249
21757WAT     H265514   5.210   4.316   5.278
21758WAT      O65515   1.733   8.917   4.195
21758WAT     H165516   1.789   8.958   4.267
21758WAT     H265517   1.640   8.953   4.201
21759WAT      O65518   5.997   4.191   2.671
21759WAT     H165519   6.010   4.135   2.753
21759WAT     H265520   6.083   4.236   2.647
21760WAT      O65521   2.430   8.493   9.816
21760WAT     H165522   2.464   8.570   9.872
21760WAT     H265523   2.385   8.426   9.876
21761WAT      O65524   2.773   4.787   5.321
21761WAT     H165525   2.856   4.740   5.291
21761WAT     H265526   2.725   4.729   5.388
21762WAT      O65527   0.676   2.962   1.821
21762WAT     H165528   0.730   2.940   1.902
21762WAT     H265529   0.591   3.008   1.849
21763WAT      O65530   2.397   2.307   7.035
21763WAT     H165531   2.319   2.315   6.972
21763WAT     H265532   2.478   2.280   6.983
21764WAT      O65533   3.899   0.382   9.294
21764WAT     H165534   3.862   0.452   9.355
21764WAT     H265535   3.992   0.359   9.322
21765WAT      O65536   1.822   6.342   9.369
21765WAT     H165537   1.770   6.322   9.286
21765WAT     H265538   1.895   6.407   9.348
21766WAT      O65539   1.659   8.702   7.712
21766WAT     H165540   1.623   8.609   7.703
21766WAT     H265541   1.668   8.724   7.809
21767WAT      O65542   1.702   4.411   8.008
21767WAT     H165543   1.783   4.363   7.975
21767WAT     H265544   1.624   4.348   8.009
21768WAT      O65545   5.318   9.207   8.738
21768WAT     H165546   5.350   9.181   8.829
21768WAT     H265547   5.306   9.125   8.682
21769WAT      O65548   7.768   7.036   6.255
21769WAT     H165549   7.857   7.047   6.210
21769WAT     H265550   7.725   6.951   6.224
21770WAT      O65551   2.606   4.858   8.776
21770WAT     H165552   2.519   4.840   8.732
21770WAT     H265553   2.620   4.957   8.784
21771WAT      O65554   4.907   5.659   0.171
21771WAT     H165555   4.823   5.606   0.171
21771WAT     H265556   4.961   5.637   0.090
21772WAT      O65557   1.361   0.638   2.008
21772WAT     H165558   1.288   0.648   2.075
21772WAT     H265559   1.413   0.555   2.029
21773WAT      O65560   1.551   6.704   3.811
21773WAT     H165561   1.602   6.790   3.816
21773WAT     H265562   1.458   6.722   3.781
21774WAT      O65563   0.003   1.380   2.358
21774WAT     H165564   0.097   1.406   2.336
21774WAT     H265565  -0.014   1.287   2.327
21775WAT      O65566   8.409   8.209   6.358
21775WAT     H165567   8.494   8.240   6.317
21775WAT     H265568   8.338   8.279   6.347
21776WAT      O65569   8.144   7.715   6.052
21776WAT     H165570   8.226   7.751   6.096
21776WAT     H265571   8.167   7.628   6.006
21777WAT      O65572   3.908   8.026   1.690
21777WAT     H165573   3.997   7.986   1.712
21777WAT     H265574   3.905   8.120   1.723
21778WAT      O65575   8.772   7.393   3.354
21778WAT     H165576   8.718   7.470   3.388
21778WAT     H265577   8.711   7.316   3.336
21779WAT      O65578   8.363   7.053   9.861
21779WAT     H165579   8.365   7.022   9.766
21779WAT     H265580   8.423   7.132   9.872
21780WAT      O65581   0.051   1.657   4.090
21780WAT     H165582   0.095   1.572   4.120
21780WAT     H265583  -0.048   1.644   4.085
21781WAT      O65584   2.411   6.582   3.738
21781WAT     H165585   2.425   6.483   3.739
21781WAT     H265586   2.461   6.623   3.815
21782WAT      O65587   9.834   6.409   0.341
21782WAT     H165588   9.795   6.379   0.427
21782WAT     H265589   9.810   6.344   0.269
21783WAT      O65590   0.961   7.631   9.189
21783WAT     H165591   0.897   7.606   9.116
21783WAT     H265592   1.038   7.568   9.189
21784WAT      O65593   8.802   6.200   5.332
21784WAT     H165594   8.895   6.165   5.340
21784WAT     H265595   8.770   6.232   5.421
21785WAT      O65596   7.589   8.294   8.978
21785WAT     H165597   7.509   8.308   9.035
21785WAT     H265598   7.665   8.349   9.012
21786WAT      O65599   1.417   5.796   9.095
21786WAT     H165600   1.463   5.827   9.178
21786WAT     H265601   1.436   5.699   9.080
21787WAT      O65602   5.593   3.258   8.099
21787WAT     H165603   5.592   3.356   8.118
21787WAT     H265604   5.502   3.229   8.069
21788WAT      O65605   6.907   9.136   9.585
21788WAT     H165606   6.959   9.054   9.565
21788WAT     H265607   6.829   9.113   9.642
21789WAT      O65608   1.967   6.019   7.680
21789WAT     H165609   2.058   6.056   7.662
21789WAT     H265610   1.907   6.092   7.711
21790WAT      O65611   6.057   6.061   6.679
21790WAT     H165612   6.135   6.124   6.671
21790WAT     H265613   5.975   6.113   6.705
21791WAT      O65614   3.357   7.058   6.404
21791WAT     H165615   3.379   7.017   6.492
21791WAT     H265616   3.418   7.021   6.334
21792WAT      O65617   1.430   7.203   2.434
21792WAT     H165618   1.431   7.280   2.370
21792WAT     H265619   1.487   7.224   2.513
21793WAT      O65620   0.966   3.993   7.480
21793WAT     H165621   0.961   4.051   7.560
21793WAT     H265622   0.874   3.971   7.448
21794WAT      O65623   5.183   6.282   8.479
21794WAT     H165624   5.273   6.280   8.523
21794WAT     H265625   5.113   6.285   8.550
21795WAT      O65626   2.778   4.190   3.969
21795WAT     H165627   2.804   4.248   4.047
21795WAT     H265628   2.758   4.247   3.890
21796WAT      O65629   0.886   8.611   5.098
21796WAT     H165630   0.969   8.601   5.154
21796WAT     H265631   0.828   8.531   5.112
21797WAT      O65632   3.392   8.974   9.540
21797WAT     H165633   3.471   8.977   9.603
21797WAT     H265634   3.425   8.968   9.446
21798WAT      O65635   2.845   4.735   0.934
21798WAT     H165636   2.890   4.679   0.865
21798WAT     H265637   2.758   4.768   0.899
21799WAT      O65638   0.796   4.849   5.106
21799WAT     H165639   0.733   4.789   5.155
21799WAT     H265640   0.856   4.794   5.047
21800WAT      O65641   2.223   5.963   2.828
21800WAT     H165642   2.158   5.990   2.756
21800WAT     H265643   2.288   6.037   2.842
21801WAT      O65644   7.537   8.960   9.297
21801WAT     H165645   7.552   8.875   9.247
21801WAT     H265646   7.585   9.035   9.251
21802WAT      O65647   1.471   2.782   2.924
21802WAT     H165648   1.529   2.704   2.948
21802WAT     H265649   1.521   2.867   2.941
21803WAT      O65650   6.992   5.386   7.321
21803WAT     H165651   7.081   5.341   7.309
21803WAT     H265652   6.985   5.421   7.414
21804WAT      O65653   7.834   8.684   9.469
21804WAT     H165654   7.819   8.782   9.486
21804WAT     H265655   7.927   8.660   9.498
21805WAT      O65656   3.401   2.395   5.217
21805WAT     H165657   3.385   2.359   5.308
21805WAT     H265658   3.433   2.490   5.223
21806WAT      O65659   0.646   7.735   2.371
21806WAT     H165660   0.742   7.733   2.398
21806WAT     H265661   0.622   7.649   2.325
21807WAT      O65662   5.143   1.299   4.504
21807WAT     H165663   5.179   1.333   4.591
21807WAT     H265664   5.064   1.240   4.522
21808WAT      O65665   0.634   6.824   1.314
21808WAT     H165666   0.648   6.784   1.405
21808WAT     H265667   0.623   6.752   1.246
21809WAT      O65668   9.191   0.948   0.319
21809WAT     H165669   9.199   0.924   0.222
21809WAT     H265670   9.271   1.001   0.347
21810WAT      O65671   1.617   5.731   2.624
21810WAT     H165672   1.653   5.652   2.674
21810WAT     H265673   1.692   5.788   2.591
21811WAT      O65674   5.598   9.714   2.879
21811WAT     H165675   5.583   9.638   2.815
21811WAT     H265676   5.696   9.733   2.886
21812WAT      O65677   6.039   4.920   1.705
21812WAT     H165678   6.128   4.945   1.667
21812WAT     H265679   5.997   5.000   1.747
21813WAT      O65680   0.416   7.215   3.271
21813WAT     H165681   0.381   7.225   3.178
21813WAT     H265682   0.407   7.302   3.320
21814WAT      O65683   2.359   3.002   6.461
21814WAT     H165684   2.429   2.942   6.422
21814WAT     H265685   2.403   3.086   6.493
21815WAT      O65686   3.385   7.403   2.704
21815WAT     H165687   3.348   7.327   2.651
21815WAT     H265688   3.485   7.395   2.708
21816WAT      O65689   8.367   5.044   7.056
21816WAT     H165690   8.413   5.030   7.144
21816WAT     H265691   8.318   5.132   7.057
21817WAT      O65692   3.332   1.821   2.938
21817WAT     H165693   3.321   1.837   2.840
21817WAT     H265694   3.420   1.778   2.956
21818WAT      O65695   9.789   5.725   8.566
21818WAT     H165696   9.712   5.703   8.506
21818WAT     H265697   9.810   5.647   8.624
21819WAT      O65698   8.154   6.576   3.768
21819WAT     H165699   8.120   6.670   3.773
21819WAT     H265700   8.249   6.573   3.799
21820WAT      O65701   5.259   4.705   9.519
21820WAT     H165702   5.167   4.744   9.513
21820WAT     H265703   5.259   4.628   9.582
21821WAT      O65704   9.251   4.615   0.749
21821WAT     H165705   9.213   4.698   0.790
21821WAT     H265706   9.291   4.559   0.821
21822WAT      O65707   6.091   6.831   9.729
21822WAT     H165708   6.189   6.846   9.740
21822WAT     H265709   6.063   6.751   9.782
21823WAT      O65710   2.904   1.606   7.189
21823WAT     H165711   2.947   1.679   7.136
21823WAT     H265712   2.962   1.525   7.187
21824WAT      O65713   5.626   1.108   0.243
21824WAT     H165714   5.607   1.183   0.307
21824WAT     H265715   5.616   1.021   0.290
21825WAT      O65716   4.496   0.559   2.202
21825WAT     H165717   4.503   0.480   2.141
21825WAT     H265718   4.402   0.591   2.204
21826WAT      O65719   1.508   0.830   2.114
21826WAT     H165720   1.465   0.761   2.056
21826WAT     H265721   1.449   0.849   2.192
21827WAT      O65722   1.318   5.340   6.025
21827WAT     H165723   1.340   5.256   5.975
21827WAT     H265724   1.261   5.318   6.104
21828WAT      O65725   7.452   3.223   1.234
21828WAT     H165726   7.509   3.304   1.246
21828WAT     H265727   7.480   3.174   1.151
21829WAT      O65728   7.474   6.389   4.114
21829WAT     H165729   7.546   6.459   4.113
21829WAT     H265730   7.414   6.404   4.193
21830WAT      O65731   3.178   2.819   5.593
21830WAT     H165732   3.114   2.753   5.631
21830WAT     H265733   3.145   2.912   5.612
21831WAT      O65734   0.271   9.141   3.176
21831WAT     H165735   0.280   9.076   3.252
21831WAT     H265736   0.174   9.158   3.158
21832WAT      O65737   4.869   8.256   1.701
21832WAT     H165738   4.860   8.159   1.680
21832WAT     H265739   4.918   8.302   1.627
21833WAT      O65740   3.859   5.709   2.559
21833WAT     H165741   3.946   5.712   2.510
21833WAT     H265742   3.832   5.613   2.571
21834WAT      O65743   5.783   6.498   8.509
21834WAT     H165744   5.725   6.471   8.585
21834WAT     H265745   5.874   6.457   8.519
21835WAT      O65746   3.224   2.970   4.340
21835WAT     H165747   3.260   3.060   4.317
21835WAT     H265748   3.124   2.974   4.345
21836WAT      O65749   4.693   3.183   7.460
21836WAT     H165750   4.707   3.109   7.394
21836WAT     H265751   4.712   3.271   7.418
21837WAT      O65752   1.791   3.338   3.314
21837WAT     H165753   1.839   3.425   3.310
21837WAT     H265754   1.835   3.278   3.381
21838WAT      O65755   0.490   6.593   9.257
21838WAT     H165756   0.534   6.621   9.343
21838WAT     H265757   0.560   6.558   9.194
21839WAT      O65758   8.838   1.289   7.607
21839WAT     H165759   8.765   1.336   7.557
21839WAT     H265760   8.840   1.322   7.701
21840WAT      O65761   8.157   8.895   3.158
21840WAT     H165762   8.231   8.894   3.225
21840WAT     H265763   8.075   8.855   3.199
21841WAT      O65764   0.144   2.914   2.377
21841WAT     H165765   0.234   2.954   2.393
21841WAT     H265766   0.116   2.861   2.457
21842WAT      O65767   4.843   1.265   7.359
21842WAT     H165768   4.930   1.311   7.341
21842WAT     H265769   4.781   1.278   7.282
21843WAT      O65770   4.231   6.509   3.665
21843WAT     H165771   4.224   6.542   3.571
21843WAT     H265772   4.151   6.538   3.717
21844WAT      O65773   3.999   9.322   4.579
21844WAT     H165774   3.964   9.388   4.514
21844WAT     H265775   4.056   9.255   4.532
21845WAT      O65776   9.870   0.419   2.519
21845WAT     H165777   9.833   0.489   2.458
21845WAT     H265778   9.820   0.420   2.605
21846WAT      O65779   6.456   4.848   5.008
21846WAT     H165780   6.495   4.769   4.961
21846WAT     H265781   6.519   4.925   5.000
21847WAT      O65782   5.148   9.452   4.990
21847WAT     H165783   5.049   9.469   4.993
21847WAT     H265784   5.164   9.357   4.964
21848WAT      O65785   5.963   0.919   4.091
21848WAT     H165786   5.950   0.824   4.118
21848WAT     H265787   5.959   0.927   3.991
21849WAT      O65788   5.165   3.118   6.027
21849WAT     H165789   5.247   3.082   6.072
21849WAT     H265790   5.193   3.186   5.959
21850WAT      O65791   4.704   0.499   0.666
21850WAT     H165792   4.742   0.503   0.574
21850WAT     H265793   4.752   0.565   0.724
21851WAT      O65794   6.654   0.237   4.480
21851WAT     H165795   6.646   0.210   4.576
21851WAT     H265796   6.737   0.199   4.441
21852WAT      O65797   6.624   2.547   0.020
21852WAT     H165798   6.566   2.566   0.098
21852WAT     H265799   6.685   2.470   0.041
21853WAT      O65800   5.707   2.914   1.015
21853WAT     H165801   5.754   2.976   0.953
21853WAT     H265802   5.737   2.931   1.109
21854WAT      O65803   9.782   3.780   2.199
21854WAT     H165804   9.767   3.853   2.265
21854WAT     H265805   9.861   3.802   2.141
21855WAT      O65806   6.214   2.518   0.585
21855WAT     H165807   6.153   2.587   0.545
21855WAT     H265808   6.219   2.439   0.524
21856WAT      O65809   1.612   3.355   0.734
21856WAT     H165810   1.572   3.266   0.712
21856WAT     H265811   1.679   3.344   0.807
21857WAT      O65812   9.630   1.869   7.548
21857WAT     H165813   9.636   1.961   7.511
21857WAT     H265814   9.615   1.804   7.474
21858WAT      O65815   5.159   6.231   2.323
21858WAT     H165816   5.183   6.327   2.330
21858WAT     H265817   5.162   6.189   2.414
21859WAT      O65818   9.513   2.366   6.780
21859WAT     H165819   9.506   2.433   6.854
21859WAT     H265820   9.439   2.382   6.715
21860WAT      O65821   5.922   2.085   3.872
21860WAT     H165822   5.852   2.084   3.944
21860WAT     H265823   5.984   2.161   3.887
21861WAT      O65824   7.225   7.270   3.047
21861WAT     H165825   7.203   7.284   2.951
21861WAT     H265826   7.324   7.256   3.057
21862WAT      O65827   0.958   3.737   7.594
21862WAT     H165828   0.984   3.830   7.568
21862WAT     H265829   0.951   3.680   7.513
21863WAT      O65830   2.179   7.930   4.003
21863WAT     H165831   2.275   7.905   3.992
21863WAT     H265832   2.124   7.881   3.936
21864WAT      O65833   0.810   4.970   9.473
21864WAT     H165834   0.881   5.041   9.464
21864WAT     H265835   0.847   4.892   9.524
21865WAT      O65836   3.929   4.991   1.680
21865WAT     H165837   3.843   4.952   1.649
21865WAT     H265838   3.978   5.030   1.602
21866WAT      O65839   4.585   3.203   8.355
21866WAT     H165840   4.555   3.191   8.260
21866WAT     H265841   4.636   3.123   8.385
21867WAT      O65842   8.976   5.610   8.168
21867WAT     H165843   9.055   5.587   8.111
21867WAT     H265844   8.915   5.670   8.117
21868WAT      O65845   0.949   4.307   2.977
21868WAT     H165846   0.912   4.239   3.041
21868WAT     H265847   1.011   4.262   2.913
21869WAT      O65848   7.892   1.433   1.628
21869WAT     H165849   7.949   1.351   1.634
21869WAT     H265850   7.939   1.510   1.670
21870WAT      O65851   3.602   5.319   1.909
21870WAT     H165852   3.604   5.227   1.870
21870WAT     H265853   3.681   5.332   1.969
21871WAT      O65854   2.396   8.823   1.470
21871WAT     H165855   2.313   8.807   1.416
21871WAT     H265856   2.386   8.907   1.523
21872WAT      O65857   0.291   1.153   1.210
21872WAT     H165858   0.318   1.108   1.295
21872WAT     H265859   0.195   1.179   1.215
21873WAT      O65860   1.374   9.312   4.796
21873WAT     H165861   1.425   9.374   4.736
21873WAT     H265862   1.276   9.329   4.788
21874WAT      O65863   5.946   4.853   1.952
21874WAT     H165864   6.041   4.879   1.967
21874WAT     H265865   5.928   4.848   1.854
21875WAT      O65866   0.537   9.195   8.040
21875WAT     H165867   0.609   9.233   8.099
21875WAT     H265868   0.448   9.229   8.069
21876WAT      O65869   7.120   4.104   8.335
21876WAT     H165870   7.093   4.023   8.282
21876WAT     H265871   7.093   4.092   8.431
21877WAT      O65872   0.377   4.582   5.326
21877WAT     H165873   0.321   4.530   5.262
21877WAT     H265874   0.338   4.674   5.338
21878WAT      O65875   6.402   2.158   7.329
21878WAT     H165876   6.370   2.228   7.265
21878WAT     H265877   6.457   2.200   7.400
21879WAT      O65878   6.179   1.925   8.984
21879WAT     H165879   6.164   1.856   9.054
21879WAT     H265880   6.131   2.009   9.009
21880WAT      O65881   1.915   2.159   8.248
21880WAT     H165882   1.968   2.241   8.228
21880WAT     H265883   1.933   2.129   8.342
21881WAT      O65884   0.536   7.780   5.485
21881WAT     H165885   0.630   7.762   5.514
21881WAT     H265886   0.527   7.877   5.460
21882WAT      O65887   6.097   6.048   3.172
21882WAT     H165888   6.060   5.961   3.139
21882WAT     H265889   6.055   6.071   3.260
21883WAT      O65890   5.055   1.977   8.586
21883WAT     H165891   5.150   2.005   8.571
21883WAT     H265892   5.011   1.955   8.499
21884WAT      O65893   4.985   0.152   0.367
21884WAT     H165894   5.084   0.134   0.362
21884WAT     H265895   4.951   0.120   0.455
21885WAT      O65896   1.689   9.058   7.823
21885WAT     H165897   1.629   9.004   7.882
21885WAT     H265898   1.717   9.141   7.872
21886WAT      O65899   9.100   0.363   9.053
21886WAT     H165900   9.084   0.330   9.146
21886WAT     H265901   9.030   0.429   9.028
21887WAT      O65902   2.603   1.034   2.481
21887WAT     H165903   2.533   1.103   2.465
21887WAT     H265904   2.596   1.001   2.575
21888WAT      O65905   4.879   5.571   6.484
21888WAT     H165906   4.945   5.640   6.453
21888WAT     H265907   4.828   5.535   6.406
21889WAT      O65908   0.854   8.005   4.382
21889WAT     H165909   0.886   7.968   4.295
21889WAT     H265910   0.852   7.932   4.450
21890WAT      O65911   0.441   1.956   8.529
21890WAT     H165912   0.492   1.887   8.580
21890WAT     H265913   0.501   2.001   8.463
21891WAT      O65914   6.029   8.695   9.089
21891WAT     H165915   6.123   8.725   9.103
21891WAT     H265916   6.015   8.677   8.991
21892WAT      O65917   0.225   6.485   4.987
21892WAT     H165918   0.321   6.474   5.016
21892WAT     H265919   0.195   6.578   5.008
21893WAT      O65920   3.817   7.478   3.400
21893WAT     H165921   3.751   7.407   3.376
21893WAT     H265922   3.879   7.494   3.323
21894WAT      O65923   7.007   5.498   7.569
21894WAT     H165924   6.965   5.447   7.643
21894WAT     H265925   6.988   5.596   7.579
21895WAT      O65926   7.888   0.560   4.692
21895WAT     H165927   7.830   0.539   4.770
21895WAT     H265928   7.831   0.598   4.618
21896WAT      O65929   0.695   5.113   5.226
21896WAT     H165930   0.714   5.184   5.294
21896WAT     H265931   0.604   5.074   5.242
21897WAT      O65932   4.285   0.869   5.535
21897WAT     H165933   4.340   0.802   5.583
21897WAT     H265934   4.208   0.822   5.490
21898WAT      O65935   7.858   4.648   2.244
21898WAT     H165936   7.889   4.716   2.311
21898WAT     H265937   7.872   4.684   2.152
21899WAT      O65938   1.392   9.822   4.175
21899WAT     H165939   1.458   9.867   4.237
21899WAT     H265940   1.330   9.890   4.138
21900WAT      O65941   7.175   2.032   6.216
21900WAT     H165942   7.189   2.127   6.188
21900WAT     H265943   7.228   2.014   6.299
21901WAT      O65944   8.522   7.527   9.568
21901WAT     H165945   8.581   7.524   9.487
21901WAT     H265946   8.467   7.444   9.573
21902WAT      O65947   4.792   2.834   2.475
21902WAT     H165948   4.778   2.932   2.470
21902WAT     H265949   4.840   2.811   2.559
21903WAT      O65950   2.106   8.938   1.728
21903WAT     H165951   2.152   9.013   1.680
21903WAT     H265952   2.054   8.975   1.805
21904WAT      O65953   7.821   5.448   1.099
21904WAT     H165954   7.899   5.499   1.065
21904WAT     H265955   7.747   5.512   1.124
21905WAT      O65956   5.098   6.224   5.300
21905WAT     H165957   5.024   6.274   5.345
21905WAT     H265958   5.120   6.268   5.213
21906WAT      O65959   7.352   8.725   5.752
21906WAT     H165960   7.320   8.816   5.728
21906WAT     H265961   7.399   8.728   5.840
21907WAT      O65962   5.591   7.621   0.336
21907WAT     H165963   5.572   7.718   0.324
21907WAT     H265964   5.548   7.569   0.262
21908WAT      O65965   0.668   6.510   5.679
21908WAT     H165966   0.705   6.603   5.674
21908WAT     H265967   0.595   6.507   5.747
21909WAT      O65968   6.144   5.107   3.007
21909WAT     H165969   6.086   5.061   2.939
21909WAT     H265970   6.107   5.090   3.099
21910WAT      O65971   4.280   1.005   8.206
21910WAT     H165972   4.286   1.047   8.115
21910WAT     H265973   4.352   1.041   8.265
21911WAT      O65974   8.976   4.322   8.900
21911WAT     H165975   9.069   4.284   8.905
21911WAT     H265976   8.965   4.370   8.813
21912WAT      O65977   1.498   1.917   5.050
21912WAT     H165978   1.552   1.952   5.127
21912WAT     H265979   1.443   1.991   5.012
21913WAT      O65980   7.985   5.191   0.324
21913WAT     H165981   7.944   5.200   0.234
21913WAT     H265982   7.916   5.161   0.390
21914WAT      O65983   6.149   8.658   2.334
21914WAT     H165984   6.117   8.685   2.425
21914WAT     H265985   6.245   8.630   2.339
21915WAT      O65986   0.052   7.191   4.144
21915WAT     H165987   0.058   7.226   4.050
21915WAT     H265988   0.122   7.234   4.200
21916WAT      O65989   6.148   8.603   4.100
21916WAT     H165990   6.080   8.574   4.167
21916WAT     H265991   6.227   8.642   4.147
21917WAT      O65992   4.381   7.081   9.354
21917WAT     H165993   4.318   7.006   9.374
21917WAT     H265994   4.343   7.138   9.281
21918WAT      O65995   1.866   7.612   3.562
21918WAT     H165996   1.862   7.575   3.470
21918WAT     H265997   1.961   7.617   3.592
21919WAT      O65998   9.414   2.096   2.758
21919WAT     H165999   9.326   2.065   2.722
21919WAT     H266000   9.475   2.018   2.768
21920WAT      O66001   1.771   5.159   6.026
21920WAT     H166002   1.772   5.247   6.072
21920WAT     H266003   1.687   5.110   6.049
21921WAT      O66004   3.757   3.853   8.437
21921WAT     H166005   3.678   3.791   8.445
21921WAT     H266006   3.810   3.830   8.356
21922WAT      O66007   4.199   2.127   6.250
21922WAT     H166008   4.287   2.147   6.294
21922WAT     H266009   4.204   2.038   6.205
21923WAT      O66010   1.195   8.088   2.341
21923WAT     H166011   1.117   8.124   2.290
21923WAT     H266012   1.163   8.057   2.431
21924WAT      O66013   9.246   3.505   5.199
21924WAT     H166014   9.277   3.579   5.139
21924WAT     H266015   9.315   3.487   5.268
21925WAT      O66016   8.420   2.079   5.554
21925WAT     H166017   8.387   2.122   5.638
21925WAT     H266018   8.343   2.066   5.491
21926WAT      O66019   7.517   5.175   9.692
21926WAT     H166020   7.600   5.149   9.642
21926WAT     H266021   7.492   5.269   9.669
21927WAT      O66022   9.352   6.578   9.237
21927WAT     H166023   9.366   6.569   9.336
21927WAT     H266024   9.312   6.668   9.218
21928WAT      O66025   5.216   5.983   1.235
21928WAT     H166026   5.121   5.954   1.246
21928WAT     H266027   5.236   6.056   1.300
21929WAT      O66028   2.848   6.298   2.401
21929WAT     H166029   2.839   6.201   2.377
21929WAT     H266030   2.780   6.322   2.470
21930WAT      O66031   2.407   4.299   6.618
21930WAT     H166032   2.366   4.217   6.657
21930WAT     H266033   2.335   4.364   6.596
21931WAT      O66034   8.982   9.754   4.592
21931WAT     H166035   9.006   9.817   4.519
21931WAT     H266036   8.891   9.775   4.627
21932WAT      O66037   6.870   2.073   6.171
21932WAT     H166038   6.959   2.046   6.207
21932WAT     H266039   6.882   2.138   6.096
21933WAT      O66040   4.892   1.497   4.915
21933WAT     H166041   4.842   1.550   4.846
21933WAT     H266042   4.863   1.401   4.911
21934WAT      O66043   8.411   8.243   6.836
21934WAT     H166044   8.338   8.309   6.819
21934WAT     H266045   8.482   8.252   6.766
21935WAT      O66046   6.772   8.625   1.773
21935WAT     H166047   6.772   8.560   1.697
21935WAT     H266048   6.747   8.716   1.738
21936WAT      O66049   0.576   2.968   6.480
21936WAT     H166050   0.656   2.999   6.531
21936WAT     H266051   0.602   2.893   6.420
21937WAT      O66052   4.069   1.828   1.318
21937WAT     H166053   4.122   1.769   1.380
21937WAT     H266054   4.091   1.923   1.337
21938WAT      O66055   6.297   0.134   4.969
21938WAT     H166056   6.232   0.191   5.020
21938WAT     H266057   6.389   0.172   4.980
21939WAT      O66058   1.419   7.675   6.145
21939WAT     H166059   1.451   7.585   6.114
21939WAT     H266060   1.434   7.743   6.073
21940WAT      O66061   8.212   8.641   5.390
21940WAT     H166062   8.126   8.593   5.373
21940WAT     H266063   8.263   8.593   5.462
21941WAT      O66064   7.167   9.100   4.613
21941WAT     H166065   7.098   9.171   4.597
21941WAT     H266066   7.143   9.018   4.561
21942WAT      O66067   7.002   9.278   5.452
21942WAT     H166068   7.081   9.271   5.513
21942WAT     H266069   7.014   9.357   5.391
21943WAT      O66070   0.385   9.705   1.098
21943WAT     H166071   0.342   9.709   1.008
21943WAT     H266072   0.400   9.798   1.132
21944WAT      O66073   0.354   2.458   9.325
21944WAT     H166074   0.313   2.462   9.234
21944WAT     H266075   0.285   2.486   9.393
21945WAT      O66076   4.383   4.069   3.383
21945WAT     H166077   4.377   3.988   3.325
21945WAT     H266078   4.353   4.046   3.476
21946WAT      O66079   8.343   0.896   9.869
21946WAT     H166080   8.432   0.897   9.913
21946WAT     H266081   8.353   0.865   9.774
21947WAT      O66082   3.399   9.196   3.672
21947WAT     H166083   3.414   9.289   3.706
21947WAT     H266084   3.329   9.151   3.729
21948WAT      O66085   1.845   9.294   7.268
21948WAT     H166086   1.843   9.196   7.246
21948WAT     H266087   1.893   9.308   7.355
21949WAT      O66088   2.601   0.973   2.826
21949WAT     H166089   2.680   1.034   2.826
21949WAT     H266090   2.601   0.919   2.910
21950WAT      O66091   0.902   6.354   2.632
21950WAT     H166092   0.834   6.417   2.592
21950WAT     H266093   0.955   6.403   2.701
21951WAT      O66094   0.367   8.220   9.260
21951WAT     H166095   0.458   8.180   9.269
21951WAT     H266096   0.333   8.205   9.167
21952WAT      O66097   1.684   6.028   2.326
21952WAT     H166098   1.658   5.943   2.373
21952WAT     H266099   1.783   6.036   2.325
21953WAT      O66100   4.979   8.684   6.682
21953WAT     H166101   4.947   8.677   6.777
21953WAT     H266102   5.050   8.616   6.665
21954WAT      O66103   4.531   2.668   6.684
21954WAT     H166104   4.602   2.735   6.707
21954WAT     H266105   4.574   2.585   6.648
21955WAT      O66106   7.922   9.486   7.999
21955WAT     H166107   7.912   9.456   8.094
21955WAT     H266108   7.983   9.565   7.996
21956WAT      O66109   6.944   0.035   7.007
21956WAT     H166110   6.891   0.111   7.043
21956WAT     H266111   6.908  -0.051   7.045
21957WAT      O66112   8.096   1.864   4.808
21957WAT     H166113   8.110   1.961   4.827
21957WAT     H266114   7.999   1.842   4.815
21958WAT      O66115   6.818   0.212   4.115
21958WAT     H166116   6.720   0.202   4.096
21958WAT     H266117   6.836   0.181   4.209
21959WAT      O66118   7.228   3.308   8.397
21959WAT     H166119   7.157   3.284   8.463
21959WAT     H266120   7.257   3.225   8.348
21960WAT      O66121   4.528   1.830   2.030
21960WAT     H166122   4.613   1.779   2.036
21960WAT     H266123   4.545   1.919   1.987
21961WAT      O66124   1.081   4.567   4.736
21961WAT     H166125   1.066   4.511   4.654
21961WAT     H266126   1.146   4.640   4.715
21962WAT      O66127   3.149   8.203   1.409
21962WAT     H166128   3.127   8.215   1.506
21962WAT     H266129   3.079   8.248   1.353
21963WAT      O66130   1.464   5.874   5.643
21963WAT     H166131   1.561   5.856   5.627
21963WAT     H266132   1.438   5.842   5.734
21964WAT      O66133   0.706   9.832   0.851
21964WAT     H166134   0.728   9.781   0.934
21964WAT     H266135   0.628   9.790   0.806
21965WAT      O66136   8.056   0.473   1.829
21965WAT     H166137   7.993   0.440   1.900
21965WAT     H266138   8.119   0.540   1.869
21966WAT      O66139   6.977   9.693   9.305
21966WAT     H166140   7.003   9.600   9.328
21966WAT     H266141   6.900   9.691   9.240
21967WAT      O66142   0.651   2.478   0.515
21967WAT     H166143   0.559   2.493   0.551
21967WAT     H266144   0.699   2.565   0.510
21968WAT      O66145   0.668   4.816   6.187
21968WAT     H166146   0.625   4.867   6.262
21968WAT     H266147   0.597   4.782   6.125
21969WAT      O66148   5.571   6.459   3.897
21969WAT     H166149   5.595   6.448   3.801
21969WAT     H266150   5.471   6.454   3.907
21970WAT      O66151   5.471   4.511   9.124
21970WAT     H166152   5.565   4.483   9.104
21970WAT     H266153   5.414   4.494   9.044
21971WAT      O66154   9.329   5.396   6.988
21971WAT     H166155   9.272   5.315   7.002
21971WAT     H266156   9.381   5.386   6.903
21972WAT      O66157   3.437   3.730   2.829
21972WAT     H166158   3.404   3.701   2.739
21972WAT     H266159   3.407   3.824   2.847
21973WAT      O66160   3.966   7.375   6.913
21973WAT     H166161   3.963   7.307   6.986
21973WAT     H266162   3.954   7.467   6.952
21974WAT      O66163   9.193   7.745   7.036
21974WAT     H166164   9.267   7.762   6.971
21974WAT     H266165   9.119   7.696   6.990
21975WAT      O66166   5.513   4.843   2.250
21975WAT     H166167   5.432   4.787   2.234
21975WAT     H266168   5.586   4.815   2.188
21976WAT      O66169   9.102   8.660   5.331
21976WAT     H166170   9.177   8.630   5.272
21976WAT     H266171   9.043   8.724   5.281
21977WAT      O66172   7.352   3.638   5.470
21977WAT     H166173   7.434   3.660   5.522
21977WAT     H266174   7.350   3.541   5.448
21978WAT      O66175   6.766   6.725   4.205
21978WAT     H166176   6.748   6.676   4.119
21978WAT     H266177   6.680   6.734   4.256
21979WAT      O66178   1.042   2.083   4.366
21979WAT     H166179   1.013   2.030   4.445
21979WAT     H266180   0.986   2.165   4.358
21980WAT      O66181   1.498   0.670   0.687
21980WAT     H166182   1.451   0.755   0.710
21980WAT     H266183   1.441   0.592   0.712
21981WAT      O66184   0.967   0.461   3.487
21981WAT     H166185   1.050   0.443   3.538
21981WAT     H266186   0.990   0.478   3.391
21982WAT      O66187   5.087   5.261   2.476
21982WAT     H166188   5.184   5.258   2.451
21982WAT     H266189   5.059   5.172   2.511
21983WAT      O66190   4.214   7.600   7.919
21983WAT     H166191   4.177   7.685   7.957
21983WAT     H266192   4.309   7.589   7.947
21984WAT      O66193   6.233   9.581   7.256
21984WAT     H166194   6.151   9.552   7.307
21984WAT     H266195   6.292   9.635   7.316
21985WAT      O66196   8.232   7.200   1.567
21985WAT     H166197   8.186   7.274   1.517
21985WAT     H266198   8.171   7.121   1.572
21986WAT      O66199   2.581   8.143   5.924
21986WAT     H166200   2.678   8.164   5.937
21986WAT     H266201   2.557   8.063   5.979
21987WAT      O66202   7.373   1.192   8.810
21987WAT     H166203   7.341   1.100   8.833
21987WAT     H266204   7.441   1.221   8.877
21988WAT      O66205   4.393   3.580   2.005
21988WAT     H166206   4.392   3.509   2.075
21988WAT     H266207   4.487   3.599   1.978
21989WAT      O66208   2.082   5.393   1.161
21989WAT     H166209   2.134   5.343   1.229
21989WAT     H266210   2.056   5.331   1.086
21990WAT      O66211   7.578   0.921   4.845
21990WAT     H166212   7.508   0.856   4.875
21990WAT     H266213   7.668   0.892   4.879
21991WAT      O66214   7.097   7.932   0.051
21991WAT     H166215   7.142   7.980   0.127
21991WAT     H266216   7.152   7.852   0.025
21992WAT      O66217   0.659   3.161   2.771
21992WAT     H166218   0.590   3.233   2.779
21992WAT     H266219   0.639   3.088   2.836
21993WAT      O66220   8.001   4.560   3.597
21993WAT     H166221   8.033   4.653   3.577
21993WAT     H266222   7.917   4.565   3.651
21994WAT      O66223   4.502   1.670   0.755
21994WAT     H166224   4.424   1.649   0.814
21994WAT     H266225   4.557   1.743   0.796
21995WAT      O66226   5.763   4.797   5.803
21995WAT     H166227   5.835   4.814   5.735
21995WAT     H266228   5.774   4.705   5.841
21996WAT      O66229   5.123   5.523   3.178
21996WAT     H166230   5.130   5.566   3.088
21996WAT     H266231   5.036   5.475   3.186
21997WAT      O66232   0.236   1.940   6.754
21997WAT     H166233   0.311   1.900   6.806
21997WAT     H266234   0.219   1.884   6.673
21998WAT      O66235   1.300   1.856   5.246
21998WAT     H166236   1.364   1.897   5.180
21998WAT     H266237   1.277   1.923   5.316
21999WAT      O66238   7.469   4.547   6.341
21999WAT     H166239   7.525   4.484   6.396
21999WAT     H266240   7.373   4.535   6.364
22000WAT      O66241   7.512   4.687   4.628
22000WAT     H166242   7.530   4.608   4.686
22000WAT     H266243   7.413   4.702   4.622
22001WAT      O66244   8.825   7.766   1.107
22001WAT     H166245   8.783   7.840   1.160
22001WAT     H266246   8.899   7.804   1.050
22002WAT      O66247   4.802   5.113   0.672
22002WAT     H166248   4.788   5.028   0.622
22002WAT     H266249   4.730   5.179   0.646
22003WAT      O66250   5.476   9.569   8.779
22003WAT     H166251   5.506   9.555   8.873
22003WAT     H266252   5.470   9.481   8.732
22004WAT      O66253   0.727   5.755   9.431
22004WAT     H166254   0.726   5.710   9.342
22004WAT     H266255   0.651   5.721   9.486
22005WAT      O66256   6.247   7.199   9.706
22005WAT     H166257   6.163   7.220   9.755
22005WAT     H266258   6.272   7.104   9.721
22006WAT      O66259   9.863   9.060   0.246
22006WAT     H166260   9.827   8.967   0.257
22006WAT     H266261   9.963   9.057   0.250
22007WAT      O66262   2.436   4.147   1.201
22007WAT     H166263   2.422   4.228   1.257
22007WAT     H266264   2.489   4.079   1.252
22008WAT      O66265   8.314   9.604   9.220
22008WAT     H166266   8.246   9.536   9.193
22008WAT     H266267   8.369   9.569   9.296
22009WAT      O66268   8.882   0.037   2.685
22009WAT     H166269   8.823  -0.024   2.737
22009WAT     H266270   8.896   0.122   2.737
22010WAT      O66271   4.008   8.775   2.849
22010WAT     H166272   3.935   8.826   2.804
22010WAT     H266273   4.088   8.833   2.860
22011WAT      O66274   8.062   8.217   5.405
22011WAT     H166275   8.137   8.213   5.339
22011WAT     H266276   7.975   8.221   5.355
22012WAT      O66277   2.605   0.981   4.646
22012WAT     H166278   2.694   1.010   4.682
22012WAT     H266279   2.592   0.883   4.664
22013WAT      O66280   8.284   5.494   5.121
22013WAT     H166281   8.217   5.502   5.195
22013WAT     H266282   8.374   5.473   5.159
22014WAT      O66283   6.019   7.814   3.438
22014WAT     H166284   6.089   7.744   3.424
22014WAT     H266285   5.958   7.786   3.511
22015WAT      O66286   8.333   8.511   8.805
22015WAT     H166287   8.240   8.475   8.800
22015WAT     H266288   8.375   8.507   8.714
22016WAT      O66289   5.497   6.719   0.614
22016WAT     H166290   5.479   6.655   0.539
22016WAT     H266291   5.588   6.760   0.602
22017WAT      O66292   5.931   2.689   0.456
22017WAT     H166293   5.955   2.786   0.456
22017WAT     H266294   5.951   2.650   0.367
22018WAT      O66295   3.211   7.383   9.171
22018WAT     H166296   3.197   7.364   9.074
22018WAT     H266297   3.145   7.452   9.202
22019WAT      O66298   1.947   2.625   8.998
22019WAT     H166299   1.913   2.541   9.040
22019WAT     H266300   2.019   2.603   8.933
22020WAT      O66301   5.775   1.938   3.685
22020WAT     H166302   5.764   1.982   3.596
22020WAT     H266303   5.837   1.992   3.741
22021WAT      O66304   3.181   0.111   9.160
22021WAT     H166305   3.101   0.073   9.208
22021WAT     H266306   3.179   0.083   9.064
22022WAT      O66307   9.571   4.978   1.027
22022WAT     H166308   9.549   5.008   0.934
22022WAT     H266309   9.654   5.024   1.058
22023WAT      O66310   8.137   9.686   1.824
22023WAT     H166311   8.188   9.601   1.836
22023WAT     H266312   8.199   9.764   1.833
22024WAT      O66313   1.864   5.784   8.437
22024WAT     H166314   1.941   5.745   8.487
22024WAT     H266315   1.873   5.763   8.340
22025WAT      O66316   6.801   5.505   0.535
22025WAT     H166317   6.897   5.511   0.509
22025WAT     H266318   6.763   5.597   0.543
22026WAT      O66319   6.492   8.612   6.698
22026WAT     H166320   6.481   8.526   6.748
22026WAT     H266321   6.586   8.644   6.705
22027WAT      O66322   8.584   6.042   4.992
22027WAT     H166323   8.568   6.123   5.049
22027WAT     H266324   8.500   5.989   4.985
22028WAT      O66325   1.467   0.880   7.546
22028WAT     H166326   1.557   0.916   7.569
22028WAT     H266327   1.448   0.797   7.600
22029WAT      O66328   0.323   7.751   4.708
22029WAT     H166329   0.299   7.743   4.612
22029WAT     H266330   0.278   7.679   4.760
22030WAT      O66331   3.194   0.477   4.205
22030WAT     H166332   3.243   0.541   4.264
22030WAT     H266333   3.217   0.497   4.109
22031WAT      O66334   3.688   1.636   7.289
22031WAT     H166335   3.637   1.603   7.209
22031WAT     H266336   3.719   1.557   7.343
22032WAT      O66337   7.838   6.236   8.932
22032WAT     H166338   7.844   6.303   8.858
22032WAT     H266339   7.876   6.276   9.016
22033WAT      O66340   5.360   9.559   0.175
22033WAT     H166341   5.340   9.516   0.263
22033WAT     H266342   5.308   9.644   0.168
22034WAT      O66343   3.525   8.700   5.313
22034WAT     H166344   3.597   8.713   5.381
22034WAT     H266345   3.553   8.628   5.249
22035WAT      O66346   7.528   1.040   7.777
22035WAT     H166347   7.617   1.006   7.806
22035WAT     H266348   7.477   0.966   7.734
22036WAT      O66349   5.361   0.356   9.100
22036WAT     H166350   5.390   0.354   9.004
22036WAT     H266351   5.363   0.264   9.138
22037WAT      O66352   8.446   6.583   7.094
22037WAT     H166353   8.457   6.593   6.995
22037WAT     H266354   8.407   6.493   7.115
22038WAT      O66355   6.746   3.743   2.915
22038WAT     H166356   6.724   3.823   2.859
22038WAT     H266357   6.839   3.713   2.895
22039WAT      O66358   8.116   3.603   5.484
22039WAT     H166359   8.185   3.574   5.550
22039WAT     H266360   8.072   3.523   5.444
22040WAT      O66361   1.818   2.824   3.753
22040WAT     H166362   1.752   2.882   3.707
22040WAT     H266363   1.779   2.733   3.767
22041WAT      O66364   2.727   0.636   4.582
22041WAT     H166365   2.803   0.668   4.525
22041WAT     H266366   2.756   0.556   4.634
22042WAT      O66367   8.205   5.271   0.204
22042WAT     H166368   8.227   5.368   0.192
22042WAT     H266369   8.125   5.261   0.263
22043WAT      O66370   3.455   6.089   6.869
22043WAT     H166371   3.402   6.053   6.946
22043WAT     H266372   3.394   6.109   6.793
22044WAT      O66373   4.323   3.088   1.324
22044WAT     H166374   4.300   3.182   1.299
22044WAT     H266375   4.413   3.087   1.369
22045WAT      O66376   8.508   7.179   1.976
22045WAT     H166377   8.410   7.160   1.977
22045WAT     H266378   8.552   7.131   2.051
22046WAT      O66379   5.097   7.154   6.940
22046WAT     H166380   5.111   7.109   6.852
22046WAT     H266381   5.184   7.160   6.989
22047WAT      O66382   9.572   1.703   8.407
22047WAT     H166383   9.537   1.788   8.449
22047WAT     H266384   9.500   1.663   8.351
22048WAT      O66385   8.289   4.287   5.764
22048WAT     H166386   8.231   4.339   5.702
22048WAT     H266387   8.303   4.195   5.727
22049WAT      O66388   8.840   6.989   0.720
22049WAT     H166389   8.792   7.014   0.804
22049WAT     H266390   8.892   7.068   0.687
22050WAT      O66391   1.809   2.169   1.830
22050WAT     H166392   1.766   2.079   1.819
22050WAT     H266393   1.908   2.158   1.835
22051WAT      O66394   3.280   6.654   4.527
22051WAT     H166395   3.266   6.729   4.461
22051WAT     H266396   3.295   6.693   4.618
22052WAT      O66397   5.381   3.017   1.535
22052WAT     H166398   5.425   3.002   1.446
22052WAT     H266399   5.398   3.111   1.566
22053WAT      O66400   5.277   8.670   6.427
22053WAT     H166401   5.286   8.711   6.518
22053WAT     H266402   5.252   8.574   6.436
22054WAT      O66403   1.236   8.586   3.185
22054WAT     H166404   1.154   8.643   3.182
22054WAT     H266405   1.261   8.559   3.093
22055WAT      O66406   3.758   5.046   2.855
22055WAT     H166407   3.843   5.098   2.859
22055WAT     H266408   3.723   5.033   2.948
22056WAT      O66409   5.365   7.194   2.334
22056WAT     H166410   5.297   7.267   2.342
22056WAT     H266411   5.324   7.115   2.288
22057WAT      O66412   4.569   3.075   8.797
22057WAT     H166413   4.647   3.094   8.738
22057WAT     H266414   4.599   3.065   8.892
22058WAT      O66415   9.500   9.586   8.969
22058WAT     H166416   9.424   9.602   9.032
22058WAT     H266417   9.585   9.616   9.011
22059WAT      O66418   7.624   9.247   7.139
22059WAT     H166419   7.685   9.289   7.072
22059WAT     H266420   7.646   9.281   7.230
22060WAT      O66421   0.815   3.337   3.657
22060WAT     H166422   0.717   3.351   3.644
22060WAT     H266423   0.841   3.247   3.622
22061WAT      O66424   2.403   7.409   0.558
22061WAT     H166425   2.415   7.507   0.568
22061WAT     H266426   2.315   7.381   0.596
22062WAT      O66427   5.146   2.515   3.209
22062WAT     H166428   5.104   2.566   3.283
22062WAT     H266429   5.199   2.577   3.151
22063WAT      O66430   6.547   9.402   6.676
22063WAT     H166431   6.516   9.407   6.581
22063WAT     H266432   6.610   9.325   6.687
22064WAT      O66433   4.995   8.819   4.114
22064WAT     H166434   4.901   8.820   4.148
22064WAT     H266435   5.055   8.870   4.176
22065WAT      O66436   8.254   1.934   6.570
22065WAT     H166437   8.214   1.974   6.487
22065WAT     H266438   8.292   1.844   6.549
22066WAT      O66439   4.870   7.176   7.820
22066WAT     H166440   4.875   7.274   7.799
22066WAT     H266441   4.936   7.127   7.763
22067WAT      O66442   9.171   0.537   3.225
22067WAT     H166443   9.121   0.453   3.205
22067WAT     H266444   9.106   0.607   3.256
22068WAT      O66445   1.499   4.495   7.821
22068WAT     H166446   1.502   4.416   7.881
22068WAT     H266447   1.572   4.489   7.753
22069WAT      O66448   0.255   5.977   0.234
22069WAT     H166449   0.211   5.933   0.312
22069WAT     H266450   0.220   5.936   0.149
22070WAT      O66451   6.094   6.767   7.379
22070WAT     H166452   6.039   6.817   7.312
22070WAT     H266453   6.117   6.677   7.343
22071WAT      O66454   0.389   4.423   5.775
22071WAT     H166455   0.301   4.380   5.796
22071WAT     H266456   0.386   4.519   5.801
22072WAT      O66457   8.112   3.393   7.382
22072WAT     H166458   8.020   3.424   7.357
22072WAT     H266459   8.162   3.467   7.427
22073WAT      O66460   8.713   2.931   7.632
22073WAT     H166461   8.634   2.955   7.688
22073WAT     H266462   8.717   2.992   7.553
22074WAT      O66463   4.049   4.075   4.186
22074WAT     H166464   4.079   4.122   4.103
22074WAT     H266465   4.078   4.128   4.266
22075WAT      O66466   4.351   3.335   0.479
22075WAT     H166467   4.369   3.239   0.456
22075WAT     H266468   4.401   3.360   0.561
22076WAT      O66469   2.115   8.223   8.889
22076WAT     H166470   2.132   8.321   8.894
22076WAT     H266471   2.195   8.177   8.849
22077WAT      O66472   0.067   6.419   3.495
22077WAT     H166473   0.110   6.453   3.411
22077WAT     H266474   0.130   6.356   3.541
22078WAT      O66475   0.970   8.160   0.641
22078WAT     H166476   0.945   8.063   0.635
22078WAT     H266477   0.889   8.214   0.663
22079WAT      O66478   2.452   8.883   2.907
22079WAT     H166479   2.362   8.916   2.878
22079WAT     H266480   2.456   8.784   2.895
22080WAT      O66481   4.576   8.471   3.585
22080WAT     H166482   4.514   8.395   3.566
22080WAT     H266483   4.563   8.503   3.678
22081WAT      O66484   9.306   6.353   2.829
22081WAT     H166485   9.238   6.304   2.884
22081WAT     H266486   9.327   6.441   2.872
22082WAT      O66487   8.338   8.578   2.839
22082WAT     H166488   8.292   8.567   2.751
22082WAT     H266489   8.389   8.494   2.860
22083WAT      O66490   4.137   8.755   0.882
22083WAT     H166491   4.175   8.745   0.790
22083WAT     H266492   4.075   8.833   0.883
22084WAT      O66493   9.458   9.060   6.734
22084WAT     H166494   9.508   8.998   6.795
22084WAT     H266495   9.395   9.116   6.787
22085WAT      O66496   9.138   8.991   0.950
22085WAT     H166497   9.046   8.952   0.957
22085WAT     H266498   9.144   9.073   1.008
22086WAT      O66499   4.417   8.820   8.744
22086WAT     H166500   4.442   8.763   8.666
22086WAT     H266501   4.412   8.915   8.716
22087WAT      O66502   3.641   6.328   3.433
22087WAT     H166503   3.656   6.393   3.507
22087WAT     H266504   3.651   6.374   3.345
22088WAT      O66505   9.751   8.380   6.549
22088WAT     H166506   9.798   8.303   6.593
22088WAT     H266507   9.658   8.387   6.586
22089WAT      O66508   2.213   2.942   9.056
22089WAT     H166509   2.174   2.892   8.979
22089WAT     H266510   2.139   2.979   9.113
22090WAT      O66511   5.807   5.828   6.459
22090WAT     H166512   5.892   5.818   6.512
22090WAT     H266513   5.729   5.809   6.517
22091WAT      O66514   2.810   5.743   8.412
22091WAT     H166515   2.837   5.736   8.508
22091WAT     H266516   2.876   5.800   8.363
22092WAT      O66517   4.227   1.894   0.161
22092WAT     H166518   4.261   1.961   0.095
22092WAT     H266519   4.158   1.938   0.219
22093WAT      O66520   9.554   8.683   6.844
22093WAT     H166521   9.528   8.763   6.897
22093WAT     H266522   9.475   8.622   6.837
22094WAT      O66523   2.223   1.258   0.697
22094WAT     H166524   2.220   1.307   0.609
22094WAT     H266525   2.298   1.192   0.695
22095WAT      O66526   4.906   6.552   2.327
22095WAT     H166527   4.861   6.640   2.345
22095WAT     H266528   4.850   6.478   2.362
22096WAT      O66529   0.501   4.123   2.158
22096WAT     H166530   0.544   4.198   2.107
22096WAT     H266531   0.401   4.129   2.147
22097WAT      O66532   9.034   9.067   7.556
22097WAT     H166533   9.027   8.972   7.587
22097WAT     H266534   9.130   9.094   7.555
22098WAT      O66535   6.713   9.194   2.792
22098WAT     H166536   6.657   9.118   2.758
22098WAT     H266537   6.730   9.182   2.890
22099WAT      O66538   8.525   2.285   5.186
22099WAT     H166539   8.587   2.311   5.112
22099WAT     H266540   8.577   2.244   5.261
22100WAT      O66541   6.002   3.871   1.928
22100WAT     H166542   6.093   3.828   1.934
22100WAT     H266543   5.963   3.854   1.837
22101WAT      O66544   1.551   2.627   3.779
22101WAT     H166545   1.530   2.558   3.848
22101WAT     H266546   1.517   2.716   3.810
22102WAT      O66547   4.498   0.238   7.909
22102WAT     H166548   4.466   0.333   7.906
22102WAT     H266549   4.419   0.177   7.904
22103WAT      O66550   2.409   1.578   7.086
22103WAT     H166551   2.425   1.626   7.172
22103WAT     H266552   2.477   1.505   7.076
22104WAT      O66553   7.340   5.043   9.464
22104WAT     H166554   7.270   5.033   9.394
22104WAT     H266555   7.379   5.135   9.459
22105WAT      O66556   7.892   4.740   9.665
22105WAT     H166557   7.830   4.818   9.660
22105WAT     H266558   7.843   4.657   9.642
22106WAT      O66559   2.381   5.035   8.476
22106WAT     H166560   2.394   5.125   8.517
22106WAT     H266561   2.386   4.965   8.547
22107WAT      O66562   1.427   5.788   7.281
22107WAT     H166563   1.352   5.854   7.288
22107WAT     H266564   1.398   5.700   7.319
22108WAT      O66565   9.342   6.303   9.284
22108WAT     H166566   9.298   6.277   9.370
22108WAT     H266567   9.352   6.402   9.281
22109WAT      O66568   7.952   1.115   3.342
22109WAT     H166569   7.890   1.122   3.420
22109WAT     H266570   7.955   1.021   3.309
22110WAT      O66571   1.885   1.564   1.749
22110WAT     H166572   1.860   1.546   1.844
22110WAT     H266573   1.933   1.486   1.711
22111WAT      O66574   2.312   6.790   8.148
22111WAT     H166575   2.268   6.797   8.237
22111WAT     H266576   2.258   6.839   8.080
22112WAT      O66577   7.089   2.643   3.575
22112WAT     H166578   7.005   2.620   3.625
22112WAT     H266579   7.066   2.682   3.486
22113WAT      O66580   2.083   9.002   9.257
22113WAT     H166581   2.016   8.929   9.243
22113WAT     H266582   2.050   9.086   9.216
22114WAT      O66583   4.832   4.682   3.703
22114WAT     H166584   4.873   4.655   3.616
22114WAT     H266585   4.823   4.782   3.706
22115WAT      O66586   3.245   9.817   2.390
22115WAT     H166587   3.261   9.827   2.291
22115WAT     H266588   3.165   9.759   2.405
22116WAT      O66589   9.740   7.320   9.561
22116WAT     H166590   9.661   7.359   9.514
22116WAT     H266591   9.765   7.233   9.518
22117WAT      O66592   6.678   7.720   5.545
22117WAT     H166593   6.733   7.770   5.612
22117WAT     H266594   6.581   7.724   5.572
22118WAT      O66595   5.832   8.147   5.627
22118WAT     H166596   5.776   8.218   5.583
22118WAT     H266597   5.894   8.190   5.692
22119WAT      O66598   3.157   2.932   0.115
22119WAT     H166599   3.195   2.886   0.035
22119WAT     H266600   3.059   2.946   0.101
22120WAT      O66601   9.809   1.013   6.514
22120WAT     H166602   9.757   0.996   6.430
22120WAT     H266603   9.760   0.973   6.592
22121WAT      O66604   2.343   7.448   3.144
22121WAT     H166605   2.316   7.498   3.061
22121WAT     H266606   2.384   7.361   3.119
22122WAT      O66607   2.167   8.824   5.405
22122WAT     H166608   2.082   8.856   5.448
22122WAT     H266609   2.181   8.873   5.319
22123WAT      O66610   9.164   2.103   3.619
22123WAT     H166611   9.139   2.056   3.704
22123WAT     H266612   9.244   2.059   3.579
22124WAT      O66613   8.093   0.441   0.098
22124WAT     H166614   8.148   0.439   0.015
22124WAT     H266615   8.039   0.357   0.105
22125WAT      O66616   0.563   9.479   5.019
22125WAT     H166617   0.547   9.541   5.096
22125WAT     H266618   0.628   9.408   5.046
22126WAT      O66619   7.773   3.277   8.925
22126WAT     H166620   7.800   3.227   8.842
22126WAT     H266621   7.698   3.340   8.904
22127WAT      O66622   2.024   1.182   6.786
22127WAT     H166623   1.975   1.096   6.770
22127WAT     H266624   1.959   1.253   6.814
22128WAT      O66625   3.989   9.354   1.235
22128WAT     H166626   3.969   9.416   1.159
22128WAT     H266627   4.085   9.327   1.231
22129WAT      O66628   7.966   8.169   6.855
22129WAT     H166629   7.874   8.154   6.891
22129WAT     H266630   7.974   8.127   6.764
22130WAT      O66631   1.430   8.021   5.855
22130WAT     H166632   1.443   7.922   5.852
22130WAT     H266633   1.496   8.061   5.919
22131WAT      O66634   0.585   9.185   0.440
22131WAT     H166635   0.503   9.227   0.477
22131WAT     H266636   0.663   9.205   0.500
22132WAT      O66637   0.013   7.763   7.998
22132WAT     H166638   0.005   7.789   7.902
22132WAT     H266639   0.048   7.841   8.051
22133WAT      O66640   3.667   4.530   6.057
22133WAT     H166641   3.696   4.469   5.984
22133WAT     H266642   3.747   4.567   6.103
22134WAT      O66643   4.527   8.155   8.744
22134WAT     H166644   4.466   8.089   8.700
22134WAT     H266645   4.474   8.236   8.770
22135WAT      O66646   3.305   8.718   1.877
22135WAT     H166647   3.296   8.816   1.857
22135WAT     H266648   3.400   8.690   1.867
22136WAT      O66649   7.711   3.423   6.953
22136WAT     H166650   7.631   3.370   6.981
22136WAT     H266651   7.790   3.361   6.945
22137WAT      O66652   0.742   6.213   7.242
22137WAT     H166653   0.738   6.312   7.236
22137WAT     H266654   0.688   6.173   7.167
22138WAT      O66655   8.683   8.678   0.335
22138WAT     H166656   8.772   8.721   0.347
22138WAT     H266657   8.694   8.580   0.320
22139WAT      O66658   0.478   7.608   9.367
22139WAT     H166659   0.510   7.600   9.461
22139WAT     H266660   0.381   7.632   9.366
22140WAT      O66661   6.685   2.738   6.902
22140WAT     H166662   6.695   2.837   6.912
22140WAT     H266663   6.595   2.710   6.934
22141WAT      O66664   5.567   2.965   1.939
22141WAT     H166665   5.606   3.022   1.867
22141WAT     H266666   5.558   2.871   1.906
22142WAT      O66667   3.240   3.430   7.777
22142WAT     H166668   3.323   3.415   7.725
22142WAT     H266669   3.172   3.476   7.720
22143WAT      O66670   2.802   5.089   1.922
22143WAT     H166671   2.746   5.172   1.920
22143WAT     H266672   2.890   5.107   1.879
22144WAT      O66673   7.591   7.523   1.992
22144WAT     H166674   7.656   7.570   1.932
22144WAT     H266675   7.642   7.469   2.060
22145WAT      O66676   8.396   2.581   7.851
22145WAT     H166677   8.456   2.526   7.909
22145WAT     H266678   8.349   2.650   7.906
22146WAT      O66679   2.033   7.398   2.917
22146WAT     H166680   2.099   7.471   2.933
22146WAT     H266681   2.043   7.328   2.988
22147WAT      O66682   2.746   8.027   1.921
22147WAT     H166683   2.716   7.981   1.837
22147WAT     H266684   2.671   8.029   1.987
22148WAT      O66685   2.988   3.814   0.115
22148WAT     H166686   2.937   3.747   0.061
22148WAT     H266687   2.924   3.878   0.158
22149WAT      O66688   9.344   8.560   5.244
22149WAT     H166689   9.435   8.596   5.223
22149WAT     H266690   9.294   8.547   5.158
22150WAT      O66691   2.912   9.656   4.881
22150WAT     H166692   2.900   9.716   4.802
22150WAT     H266693   2.858   9.692   4.958
22151WAT      O66694   9.050   3.229   4.398
22151WAT     H166695   8.974   3.170   4.371
22151WAT     H266696   9.064   3.224   4.497
22152WAT      O66697   0.960   4.305   0.964
22152WAT     H166698   1.004   4.367   0.899
22152WAT     H266699   0.938   4.219   0.918
22153WAT      O66700   7.960   8.412   5.098
22153WAT     H166701   7.946   8.435   5.194
22153WAT     H266702   7.975   8.313   5.089
22154WAT      O66703   7.249   9.634   2.847
22154WAT     H166704   7.272   9.613   2.942
22154WAT     H266705   7.158   9.596   2.826
22155WAT      O66706   5.397   4.826   9.770
22155WAT     H166707   5.443   4.896   9.716
22155WAT     H266708   5.381   4.745   9.712
22156WAT      O66709   1.778   1.442   3.529
22156WAT     H166710   1.699   1.465   3.472
22156WAT     H266711   1.763   1.475   3.622
22157WAT      O66712   7.172   3.534   8.680
22157WAT     H166713   7.211   3.446   8.653
22157WAT     H266714   7.078   3.541   8.647
22158WAT      O66715   6.596   5.591   5.597
22158WAT     H166716   6.509   5.558   5.635
22158WAT     H266717   6.583   5.681   5.557
22159WAT      O66718   3.553   5.091   5.623
22159WAT     H166719   3.580   5.117   5.530
22159WAT     H266720   3.563   5.170   5.684
22160WAT      O66721   3.356   4.118   5.591
22160WAT     H166722   3.257   4.110   5.578
22160WAT     H266723   3.400   4.137   5.503
22161WAT      O66724   8.754   5.274   6.365
22161WAT     H166725   8.691   5.212   6.319
22161WAT     H266726   8.829   5.221   6.405
22162WAT      O66727   4.188   7.170   9.788
22162WAT     H166728   4.131   7.113   9.729
22162WAT     H266729   4.167   7.266   9.770
22163WAT      O66730   2.067   3.173   7.740
22163WAT     H166731   2.156   3.193   7.699
22163WAT     H266732   2.047   3.240   7.811
22164WAT      O66733   7.715   4.076   9.715
22164WAT     H166734   7.695   3.980   9.697
22164WAT     H266735   7.632   4.121   9.748
22165WAT      O66736   5.549   9.815   7.871
22165WAT     H166737   5.533   9.909   7.899
22165WAT     H266738   5.505   9.753   7.935
22166WAT      O66739   5.663   5.518   3.830
22166WAT     H166740   5.629   5.590   3.889
22166WAT     H266741   5.684   5.437   3.884
22167WAT      O66742   3.094   4.720   3.347
22167WAT     H166743   3.128   4.633   3.383
22167WAT     H266744   2.994   4.715   3.338
22168WAT      O66745   5.500   5.736   2.199
22168WAT     H166746   5.459   5.645   2.195
22168WAT     H266747   5.544   5.749   2.288
22169WAT      O66748   3.367   2.936   4.953
22169WAT     H166749   3.286   2.903   5.001
22169WAT     H266750   3.341   3.012   4.893
22170WAT      O66751   9.168   5.939   4.810
22170WAT     H166752   9.100   5.867   4.821
22170WAT     H266753   9.218   5.925   4.724
22171WAT      O66754   6.375   7.958   2.341
22171WAT     H166755   6.381   7.858   2.340
22171WAT     H266756   6.390   7.992   2.248
22172WAT      O66757   6.393   7.443   5.358
22172WAT     H166758   6.481   7.395   5.357
22172WAT     H266759   6.323   7.383   5.318
22173WAT      O66760   9.007   2.853   4.050
22173WAT     H166761   9.063   2.780   4.088
22173WAT     H266762   9.047   2.883   3.963
22174WAT      O66763   6.786   2.296   8.753
22174WAT     H166764   6.703   2.338   8.717
22174WAT     H266765   6.793   2.316   8.851
22175WAT      O66766   3.423   1.524   8.208
22175WAT     H166767   3.508   1.542   8.258
22175WAT     H266768   3.345   1.559   8.260
22176WAT      O66769   5.982   6.436   6.646
22176WAT     H166770   6.078   6.414   6.658
22176WAT     H266771   5.966   6.467   6.552
22177WAT      O66772   3.529   3.181   6.276
22177WAT     H166773   3.604   3.231   6.319
22177WAT     H266774   3.564   3.129   6.198
22178WAT      O66775   0.777   3.746   1.242
22178WAT     H166776   0.685   3.707   1.237
22178WAT     H266777   0.842   3.674   1.270
22179WAT      O66778   0.674   8.563   7.751
22179WAT     H166779   0.669   8.501   7.673
22179WAT     H266780   0.748   8.534   7.812
22180WAT      O66781   5.220   1.732   5.155
22180WAT     H166782   5.299   1.790   5.135
22180WAT     H266783   5.219   1.710   5.252
22181WAT      O66784   2.049   5.287   7.952
22181WAT     H166785   1.966   5.316   7.904
22181WAT     H266786   2.112   5.364   7.960
22182WAT      O66787   5.256   4.388   7.554
22182WAT     H166788   5.192   4.414   7.626
22182WAT     H266789   5.268   4.464   7.491
22183WAT      O66790   1.475   6.061   9.551
22183WAT     H166791   1.393   6.118   9.547
22183WAT     H266792   1.498   6.043   9.646
22184WAT      O66793   1.970   0.159   2.532
22184WAT     H166794   2.063   0.170   2.565
22184WAT     H266795   1.905   0.182   2.605
22185WAT      O66796   3.786   3.052   9.751
22185WAT     H166797   3.851   2.975   9.752
22185WAT     H266798   3.720   3.040   9.825
22186WAT      O66799   9.020   1.798   5.839
22186WAT     H166800   8.990   1.703   5.840
22186WAT     H266801   9.069   1.819   5.924
22187WAT      O66802   4.909   1.826   6.823
22187WAT     H166803   4.849   1.827   6.904
22187WAT     H266804   4.902   1.737   6.778
22188WAT      O66805   2.991   5.359   4.013
22188WAT     H166806   3.062   5.322   4.072
22188WAT     H266807   2.901   5.345   4.055
22189WAT      O66808   8.504   3.886   1.680
22189WAT     H166809   8.506   3.890   1.780
22189WAT     H266810   8.581   3.938   1.643
22190WAT      O66811   0.614   5.996   3.124
22190WAT     H166812   0.694   5.989   3.066
22190WAT     H266813   0.619   5.926   3.197
22191WAT      O66814   5.793   8.009   2.693
22191WAT     H166815   5.821   7.939   2.758
22191WAT     H266816   5.867   8.076   2.681
22192WAT      O66817   9.428   1.368   0.246
22192WAT     H166818   9.426   1.432   0.170
22192WAT     H266819   9.455   1.416   0.330
22193WAT      O66820   9.765   2.523   6.588
22193WAT     H166821   9.854   2.567   6.579
22193WAT     H266822   9.752   2.491   6.682
22194WAT      O66823   0.690   9.638   2.728
22194WAT     H166824   0.632   9.706   2.682
22194WAT     H266825   0.642   9.605   2.810
22195WAT      O66826   6.442   9.149   3.160
22195WAT     H166827   6.379   9.084   3.203
22195WAT     H266828   6.444   9.234   3.212
22196WAT      O66829   0.369   3.942   8.984
22196WAT     H166830   0.369   3.922   8.887
22196WAT     H266831   0.394   4.038   8.999
22197WAT      O66832   5.693   5.369   4.874
22197WAT     H166833   5.630   5.430   4.826
22197WAT     H266834   5.651   5.339   4.960
22198WAT      O66835   2.332   5.086   5.084
22198WAT     H166836   2.260   5.060   5.148
22198WAT     H266837   2.384   5.162   5.121
22199WAT      O66838   3.993   0.987   7.591
22199WAT     H166839   4.057   0.991   7.514
22199WAT     H266840   3.901   1.008   7.559
22200WAT      O66841   8.286   0.064   1.889
22200WAT     H166842   8.279   0.140   1.825
22200WAT     H266843   8.374   0.068   1.938
22201WAT      O66844   0.024   5.833   3.573
22201WAT     H166845  -0.030   5.772   3.631
22201WAT     H266846   0.112   5.790   3.554
22202WAT      O66847   8.930   6.130   6.032
22202WAT     H166848   8.888   6.182   5.958
22202WAT     H266849   8.877   6.047   6.049
22203WAT      O66850   9.648   8.060   6.790
22203WAT     H166851   9.726   8.098   6.741
22203WAT     H266852   9.671   7.969   6.825
22204WAT      O66853   3.100   8.465   3.405
22204WAT     H166854   3.112   8.366   3.416
22204WAT     H266855   3.185   8.505   3.372
22205WAT      O66856   7.409   0.132   7.137
22205WAT     H166857   7.507   0.143   7.119
22205WAT     H266858   7.362   0.218   7.115
22206WAT      O66859   9.818   7.167   2.080
22206WAT     H166860   9.849   7.205   2.167
22206WAT     H266861   9.881   7.195   2.007
22207WAT      O66862   8.055   0.767   2.843
22207WAT     H166863   8.108   0.835   2.894
22207WAT     H266864   8.042   0.799   2.749
22208WAT      O66865   3.406   0.072   1.746
22208WAT     H166866   3.307   0.054   1.744
22208WAT     H266867   3.425   0.143   1.814
22209WAT      O66868   1.436   9.634   6.960
22209WAT     H166869   1.361   9.608   6.899
22209WAT     H266870   1.452   9.561   7.027
22210WAT      O66871   5.198   8.757   3.960
22210WAT     H166872   5.129   8.776   4.029
22210WAT     H266873   5.178   8.671   3.915
22211WAT      O66874   7.447   4.569   7.405
22211WAT     H166875   7.531   4.516   7.392
22211WAT     H266876   7.440   4.638   7.334
22212WAT      O66877   3.464   3.759   9.163
22212WAT     H166878   3.517   3.843   9.161
22212WAT     H266879   3.523   3.681   9.139
22213WAT      O66880   6.824   8.224   8.790
22213WAT     H166881   6.835   8.125   8.796
22213WAT     H266882   6.813   8.251   8.694
22214WAT      O66883   5.243   7.832   1.104
22214WAT     H166884   5.337   7.821   1.074
22214WAT     H266885   5.234   7.801   1.198
22215WAT      O66886   3.499   9.364   6.889
22215WAT     H166887   3.543   9.279   6.858
22215WAT     H266888   3.448   9.345   6.973
22216WAT      O66889   9.622   2.395   7.965
22216WAT     H166890   9.554   2.468   7.968
22216WAT     H266891   9.711   2.433   7.944
22217WAT      O66892   9.252   9.160   6.900
22217WAT     H166893   9.234   9.227   6.972
22217WAT     H266894   9.182   9.169   6.829
22218WAT      O66895   0.908   2.609   1.080
22218WAT     H166896   0.902   2.530   1.019
22218WAT     H266897   0.816   2.634   1.111
22219WAT      O66898   0.274   0.667   0.807
22219WAT     H166899   0.205   0.737   0.826
22219WAT     H266900   0.267   0.595   0.877
22220WAT      O66901   4.472   1.732   6.780
22220WAT     H166902   4.445   1.697   6.690
22220WAT     H266903   4.509   1.824   6.771
22221WAT      O66904   7.119   4.841   0.190
22221WAT     H166905   7.146   4.923   0.240
22221WAT     H266906   7.072   4.778   0.252
22222WAT      O66907   3.215   8.685   4.969
22222WAT     H166908   3.276   8.729   5.034
22222WAT     H266909   3.236   8.718   4.877
22223WAT      O66910   0.084   7.202   1.854
22223WAT     H166911   0.176   7.172   1.827
22223WAT     H266912   0.018   7.170   1.786
22224WAT      O66913   1.056   3.743   4.850
22224WAT     H166914   1.136   3.779   4.803
22224WAT     H266915   0.986   3.719   4.784
22225WAT      O66916   1.261   6.506   5.232
22225WAT     H166917   1.223   6.417   5.259
22225WAT     H266918   1.243   6.522   5.135
22226WAT      O66919   0.113   4.197   4.710
22226WAT     H166920   0.111   4.225   4.806
22226WAT     H266921   0.020   4.185   4.676
22227WAT      O66922   7.048   0.838   1.431
22227WAT     H166923   7.059   0.740   1.446
22227WAT     H266924   6.978   0.853   1.360
22228WAT      O66925   4.991   2.450   5.945
22228WAT     H166926   4.908   2.494   5.978
22228WAT     H266927   5.008   2.367   5.998
22229WAT      O66928   0.067   9.043   5.736
22229WAT     H166929  -0.033   9.041   5.740
22229WAT     H266930   0.103   8.953   5.761
22230WAT      O66931   0.824   8.450   7.963
22230WAT     H166932   0.768   8.499   8.029
22230WAT     H266933   0.842   8.358   7.996
22231WAT      O66934   8.082   8.103   2.714
22231WAT     H166935   8.152   8.046   2.758
22231WAT     H266936   8.073   8.189   2.764
22232WAT      O66937   0.011   3.941   0.241
22232WAT     H166938  -0.063   3.995   0.201
22232WAT     H266939   0.071   4.000   0.294
22233WAT      O66940   2.118   3.241   6.869
22233WAT     H166941   2.057   3.167   6.840
22233WAT     H266942   2.212   3.208   6.868
22234WAT      O66943   5.336   3.937   9.128
22234WAT     H166944   5.392   3.988   9.194
22234WAT     H266945   5.270   3.999   9.085
22235WAT      O66946   6.194   7.413   4.012
22235WAT     H166947   6.269   7.356   4.046
22235WAT     H266948   6.124   7.354   3.970
22236WAT      O66949   2.662   1.952   8.902
22236WAT     H166950   2.579   2.006   8.888
22236WAT     H266951   2.670   1.884   8.830
22237WAT      O66952   9.693   7.478   2.517
22237WAT     H166953   9.741   7.534   2.584
22237WAT     H266954   9.646   7.404   2.563
22238WAT      O66955   0.730   1.115   5.369
22238WAT     H166956   0.728   1.038   5.433
22238WAT     H266957   0.766   1.083   5.281
22239WAT      O66958   9.766   3.650   0.717
22239WAT     H166959   9.814   3.713   0.656
22239WAT     H266960   9.677   3.627   0.678
22240WAT      O66961   6.812   0.178   8.775
22240WAT     H166962   6.827   0.171   8.676
22240WAT     H266963   6.900   0.180   8.822
22241WAT      O66964   4.869   3.489   7.541
22241WAT     H166965   4.947   3.428   7.530
22241WAT     H266966   4.897   3.572   7.588
22242WAT      O66967   9.182   5.091   7.676
22242WAT     H166968   9.162   5.153   7.599
22242WAT     H266969   9.281   5.092   7.693
22243WAT      O66970   6.309   3.871   3.845
22243WAT     H166971   6.356   3.912   3.767
22243WAT     H266972   6.296   3.773   3.828
22244WAT      O66973   9.462   0.414   7.772
22244WAT     H166974   9.526   0.411   7.848
22244WAT     H266975   9.405   0.331   7.773
22245WAT      O66976   1.608   2.958   0.452
22245WAT     H166977   1.559   2.967   0.366
22245WAT     H266978   1.587   2.870   0.494
22246WAT      O66979   9.734   9.730   2.856
22246WAT     H166980   9.704   9.718   2.761
22246WAT     H266981   9.808   9.797   2.859
22247WAT      O66982   0.708   5.189   9.613
22247WAT     H166983   0.717   5.193   9.713
22247WAT     H266984   0.751   5.105   9.579
22248WAT      O66985   7.938   2.555   0.903
22248WAT     H166986   7.974   2.613   0.976
22248WAT     H266987   7.844   2.528   0.924
22249WAT      O66988   4.136   3.204   8.828
22249WAT     H166989   4.224   3.162   8.810
22249WAT     H266990   4.105   3.178   8.920
22250WAT      O66991   5.847   5.722   7.026
22250WAT     H166992   5.801   5.784   6.963
22250WAT     H266993   5.942   5.752   7.039
22251WAT      O66994   4.076   3.712   9.273
22251WAT     H166995   4.006   3.723   9.203
22251WAT     H266996   4.165   3.738   9.236
22252WAT      O66997   5.900   8.029   0.078
22252WAT     H166998   5.883   8.110   0.133
22252WAT     H266999   5.996   8.023   0.054
22253WAT      O67000   3.676   0.720   0.265
22253WAT     H167001   3.660   0.777   0.184
22253WAT     H267002   3.767   0.680   0.260
22254WAT      O67003   8.692   5.006   6.679
22254WAT     H167004   8.760   4.954   6.629
22254WAT     H267005   8.604   5.001   6.630
22255WAT      O67006   2.538   0.334   0.293
22255WAT     H167007   2.572   0.343   0.386
22255WAT     H267008   2.447   0.292   0.294
22256WAT      O67009   3.038   4.764   3.070
22256WAT     H167010   3.042   4.664   3.070
22256WAT     H267011   2.996   4.796   3.155
22257WAT      O67012   1.358   0.720   6.918
22257WAT     H167013   1.442   0.768   6.893
22257WAT     H267014   1.288   0.737   6.849
22258WAT      O67015   8.543   6.287   8.676
22258WAT     H167016   8.618   6.249   8.730
22258WAT     H267017   8.500   6.215   8.623
22259WAT      O67018   7.144   0.738   0.059
22259WAT     H167019   7.186   0.676   0.125
22259WAT     H267020   7.184   0.723  -0.031
22260WAT      O67021   3.796   4.327   2.622
22260WAT     H167022   3.804   4.395   2.550
22260WAT     H267023   3.881   4.275   2.629
22261WAT      O67024   7.901   5.240   1.960
22261WAT     H167025   7.910   5.171   1.888
22261WAT     H267026   7.804   5.260   1.975
22262WAT      O67027   7.603   7.765   6.104
22262WAT     H167028   7.620   7.680   6.155
22262WAT     H267029   7.627   7.843   6.162
22263WAT      O67030   8.361   4.886   4.045
22263WAT     H167031   8.338   4.853   4.137
22263WAT     H267032   8.445   4.842   4.014
22264WAT      O67033   1.807   0.835   9.878
22264WAT     H167034   1.856   0.889   9.947
22264WAT     H267035   1.870   0.812   9.803
22265WAT      O67036   2.973   7.904   2.798
22265WAT     H167037   2.923   7.924   2.882
22265WAT     H267038   2.918   7.844   2.740
22266WAT      O67039   3.633   6.606   6.559
22266WAT     H167040   3.563   6.559   6.613
22266WAT     H267041   3.687   6.665   6.619
22267WAT      O67042   5.162   1.928   2.244
22267WAT     H167043   5.071   1.944   2.281
22267WAT     H267044   5.167   1.835   2.207
22268WAT      O67045   4.239   7.493   0.069
22268WAT     H167046   4.335   7.500   0.043
22268WAT     H267047   4.186   7.462  -0.010
22269WAT      O67048   9.023   0.661   4.327
22269WAT     H167049   8.974   0.578   4.353
22269WAT     H267050   9.112   0.663   4.372
22270WAT      O67051   0.704   2.173   2.757
22270WAT     H167052   0.736   2.079   2.763
22270WAT     H267053   0.727   2.222   2.841
22271WAT      O67054   9.487   9.213   7.592
22271WAT     H167055   9.456   9.230   7.686
22271WAT     H267056   9.556   9.142   7.592
22272WAT      O67057   5.760   5.193   2.719
22272WAT     H167058   5.732   5.125   2.652
22272WAT     H267059   5.680   5.245   2.750
22273WAT      O67060   5.426   5.425   6.919
22273WAT     H167061   5.444   5.414   6.821
22273WAT     H267062   5.499   5.479   6.961
22274WAT      O67063   5.322   6.427   0.645
22274WAT     H167064   5.329   6.493   0.719
22274WAT     H267065   5.226   6.404   0.630
22275WAT      O67066   4.598   1.741   2.606
22275WAT     H167067   4.530   1.675   2.573
22275WAT     H267068   4.551   1.815   2.654
22276WAT      O67069   4.135   1.620   4.392
22276WAT     H167070   4.109   1.703   4.343
22276WAT     H267071   4.104   1.540   4.341
22277WAT      O67072   8.889   8.181   3.997
22277WAT     H167073   8.808   8.190   4.054
22277WAT     H267074   8.966   8.152   4.054
22278WAT      O67075   7.856   0.315   4.897
22278WAT     H167076   7.817   0.395   4.943
22278WAT     H267077   7.948   0.299   4.933
22279WAT      O67078   3.573   6.082   4.416
22279WAT     H167079   3.479   6.101   4.444
22279WAT     H267080   3.580   6.089   4.316
22280WAT      O67081   5.170   9.272   7.039
22280WAT     H167082   5.175   9.336   7.115
22280WAT     H267083   5.122   9.189   7.067
22281WAT      O67084   3.037   4.913   0.034
22281WAT     H167085   3.066   4.874  -0.054
22281WAT     H267086   3.026   4.840   0.101
22282WAT      O67087   3.854   5.492   4.211
22282WAT     H167088   3.788   5.454   4.146
22282WAT     H267089   3.947   5.473   4.178
22283WAT      O67090   8.315   7.922   2.771
22283WAT     H167091   8.301   7.947   2.867
22283WAT     H267092   8.413   7.925   2.750
22284WAT      O67093   7.481   7.004   8.943
22284WAT     H167094   7.459   6.912   8.976
22284WAT     H267095   7.574   7.029   8.972
22285WAT      O67096   2.002   5.638   6.911
22285WAT     H167097   1.904   5.636   6.893
22285WAT     H267098   2.021   5.701   6.986
22286WAT      O67099   2.991   8.793   6.666
22286WAT     H167100   2.918   8.861   6.654
22286WAT     H267101   3.020   8.792   6.762
22287WAT      O67102   3.611   7.190   6.722
22287WAT     H167103   3.516   7.218   6.733
22287WAT     H267104   3.670   7.251   6.775
22288WAT      O67105   6.043   7.691   8.450
22288WAT     H167106   6.061   7.737   8.363
22288WAT     H267107   6.119   7.708   8.513
22289WAT      O67108   0.147   0.424   2.824
22289WAT     H167109   0.161   0.364   2.902
22289WAT     H267110   0.224   0.416   2.760
22290WAT      O67111   0.691   3.598   0.600
22290WAT     H167112   0.613   3.558   0.649
22290WAT     H267113   0.712   3.688   0.639
22291WAT      O67114   8.635   9.339   3.231
22291WAT     H167115   8.726   9.309   3.256
22291WAT     H267116   8.592   9.269   3.172
22292WAT      O67117   1.177   8.452   8.407
22292WAT     H167118   1.216   8.475   8.495
22292WAT     H267119   1.122   8.368   8.415
22293WAT      O67120   5.557   5.428   5.542
22293WAT     H167121   5.552   5.368   5.462
22293WAT     H267122   5.539   5.522   5.514
22294WAT      O67123   7.432   3.827   4.095
22294WAT     H167124   7.439   3.841   4.194
22294WAT     H267125   7.454   3.913   4.048
22295WAT      O67126   0.390   2.489   4.623
22295WAT     H167127   0.422   2.442   4.540
22295WAT     H267128   0.468   2.509   4.682
22296WAT      O67129   6.176   9.838   4.324
22296WAT     H167130   6.261   9.819   4.276
22296WAT     H267131   6.137   9.924   4.291
22297WAT      O67132   9.771   2.311   4.189
22297WAT     H167133   9.712   2.282   4.114
22297WAT     H267134   9.727   2.385   4.240
22298WAT      O67135   1.716   6.369   1.630
22298WAT     H167136   1.784   6.328   1.690
22298WAT     H267137   1.626   6.328   1.647
22299WAT      O67138   5.469   9.808   9.564
22299WAT     H167139   5.490   9.900   9.532
22299WAT     H267140   5.435   9.812   9.658
22300WAT      O67141   2.141   7.291   4.051
22300WAT     H167142   2.067   7.289   4.118
22300WAT     H267143   2.224   7.252   4.092
22301WAT      O67144   0.574   6.833   6.699
22301WAT     H167145   0.656   6.816   6.753
22301WAT     H267146   0.600   6.871   6.610
22302WAT      O67147   1.441   5.473   6.803
22302WAT     H167148   1.502   5.548   6.777
22302WAT     H267149   1.395   5.496   6.889
22303WAT      O67150   0.742   5.328   9.289
22303WAT     H167151   0.720   5.243   9.240
22303WAT     H267152   0.671   5.395   9.273
22304WAT      O67153   9.694   6.238   0.174
22304WAT     H167154   9.755   6.169   0.136
22304WAT     H267155   9.666   6.212   0.266
22305WAT      O67156   1.975   6.495   9.058
22305WAT     H167157   2.069   6.483   9.024
22305WAT     H267158   1.912   6.498   8.980
22306WAT      O67159   3.779   8.120   1.439
22306WAT     H167160   3.844   8.083   1.506
22306WAT     H267161   3.829   8.159   1.362
22307WAT      O67162   1.295   5.292   8.255
22307WAT     H167163   1.372   5.239   8.219
22307WAT     H267164   1.329   5.371   8.305
22308WAT      O67165   1.748   5.525   2.754
22308WAT     H167166   1.813   5.565   2.819
22308WAT     H267167   1.792   5.450   2.705
22309WAT      O67168   5.573   6.251   6.985
22309WAT     H167169   5.671   6.269   6.995
22309WAT     H267170   5.547   6.176   7.046
22310WAT      O67171   5.262   5.149   7.346
22310WAT     H167172   5.321   5.069   7.341
22310WAT     H267173   5.270   5.202   7.261
22311WAT      O67174   2.845   5.405   9.656
22311WAT     H167175   2.856   5.337   9.583
22311WAT     H267176   2.771   5.376   9.717
22312WAT      O67177   7.728   1.670   2.333
22312WAT     H167178   7.658   1.719   2.384
22312WAT     H267179   7.683   1.606   2.269
22313WAT      O67180   9.621   4.801   2.414
22313WAT     H167181   9.678   4.722   2.435
22313WAT     H267182   9.528   4.786   2.448
22314WAT      O67183   6.617   4.823   5.400
22314WAT     H167184   6.580   4.748   5.345
22314WAT     H267185   6.576   4.821   5.491
22315WAT      O67186   8.649   4.607   4.537
22315WAT     H167187   8.678   4.700   4.516
22315WAT     H267188   8.627   4.558   4.453
22316WAT      O67189   1.932   6.566   8.423
22316WAT     H167190   2.021   6.523   8.439
22316WAT     H267191   1.912   6.630   8.496
22317WAT      O67192   4.951   3.047   1.124
22317WAT     H167193   4.942   3.145   1.103
22317WAT     H267194   4.883   2.995   1.072
22318WAT      O67195   2.891   2.845   9.332
22318WAT     H167196   2.823   2.902   9.286
22318WAT     H267197   2.862   2.827   9.426
22319WAT      O67198   9.633   0.629   3.173
22319WAT     H167199   9.539   0.606   3.146
22319WAT     H267200   9.645   0.729   3.170
22320WAT      O67201   4.095   0.299   0.153
22320WAT     H167202   4.059   0.220   0.203
22320WAT     H267203   4.149   0.267   0.074
22321WAT      O67204   6.626   7.052   9.836
22321WAT     H167205   6.603   7.131   9.892
22321WAT     H267206   6.690   7.078   9.765
22322WAT      O67207   9.666   7.149   6.045
22322WAT     H167208   9.649   7.164   5.948
22322WAT     H267209   9.716   7.227   6.083
22323WAT      O67210   0.861   3.380   6.644
22323WAT     H167211   0.799   3.389   6.566
22323WAT     H267212   0.822   3.316   6.710
22324WAT      O67213   9.091   1.517   4.531
22324WAT     H167214   8.993   1.522   4.513
22324WAT     H267215   9.108   1.470   4.617
22325WAT      O67216   9.331   8.688   7.243
22325WAT     H167217   9.315   8.636   7.327
22325WAT     H267218   9.422   8.665   7.207
22326WAT      O67219   8.373   7.138   3.800
22326WAT     H167220   8.446   7.205   3.784
22326WAT     H267221   8.412   7.049   3.819
22327WAT      O67222   7.413   0.384   5.964
22327WAT     H167223   7.484   0.454   5.963
22327WAT     H267224   7.392   0.356   5.870
22328WAT      O67225   7.227   1.897   0.631
22328WAT     H167226   7.208   1.964   0.703
22328WAT     H267227   7.160   1.906   0.558
22329WAT      O67228   2.540   0.757   3.726
22329WAT     H167229   2.616   0.808   3.767
22329WAT     H267230   2.574   0.670   3.689
22330WAT      O67231   9.521   8.111   4.318
22330WAT     H167232   9.602   8.080   4.369
22330WAT     H267233   9.539   8.106   4.220
22331WAT      O67234   2.778   6.394   0.911
22331WAT     H167235   2.832   6.469   0.874
22331WAT     H267236   2.685   6.426   0.929
22332WAT      O67237   5.961   5.700   2.584
22332WAT     H167238   5.943   5.658   2.495
22332WAT     H267239   5.909   5.652   2.655
22333WAT      O67240   7.623   2.595   1.379
22333WAT     H167241   7.616   2.500   1.411
22333WAT     H267242   7.708   2.607   1.328
22334WAT      O67243   0.187   8.354   0.710
22334WAT     H167244   0.175   8.454   0.708
22334WAT     H267245   0.101   8.310   0.685
22335WAT      O67246   0.418   0.872   2.473
22335WAT     H167247   0.408   0.815   2.391
22335WAT     H267248   0.384   0.823   2.553
22336WAT      O67249   5.947   4.498   3.135
22336WAT     H167250   5.869   4.534   3.186
22336WAT     H267251   5.945   4.398   3.139
22337WAT      O67252   8.866   2.841   3.123
22337WAT     H167253   8.889   2.937   3.139
22337WAT     H267254   8.932   2.783   3.171
22338WAT      O67255   8.446   2.318   6.023
22338WAT     H167256   8.486   2.232   5.991
22338WAT     H267257   8.463   2.328   6.121
22339WAT      O67258   0.545   1.584   2.420
22339WAT     H167259   0.625   1.608   2.475
22339WAT     H267260   0.572   1.571   2.325
22340WAT      O67261   1.122   8.982   4.440
22340WAT     H167262   1.150   9.078   4.432
22340WAT     H267263   1.022   8.976   4.437
22341WAT      O67264   3.976   8.065   0.813
22341WAT     H167265   3.954   8.002   0.888
22341WAT     H267266   3.976   8.159   0.849
22342WAT      O67267   8.776   8.834   2.356
22342WAT     H167268   8.835   8.831   2.275
22342WAT     H267269   8.791   8.919   2.405
22343WAT      O67270   2.058   1.754   1.678
22343WAT     H167271   2.043   1.828   1.744
22343WAT     H267272   1.993   1.680   1.696
22344WAT      O67273   2.618   4.726   0.487
22344WAT     H167274   2.566   4.704   0.405
22344WAT     H267275   2.714   4.739   0.464
22345WAT      O67276   3.192   9.294   0.283
22345WAT     H167277   3.283   9.312   0.322
22345WAT     H267278   3.167   9.199   0.300
22346WAT      O67279   2.622   6.521   6.202
22346WAT     H167280   2.655   6.427   6.193
22346WAT     H267281   2.699   6.584   6.196
22347WAT      O67282   2.034   7.272   7.414
22347WAT     H167283   1.996   7.284   7.322
22347WAT     H267284   1.991   7.337   7.476
22348WAT      O67285   0.404   5.762   0.496
22348WAT     H167286   0.414   5.850   0.542
22348WAT     H267287   0.453   5.691   0.547
22349WAT      O67288   1.097   4.833   5.107
22349WAT     H167289   1.046   4.776   5.043
22349WAT     H267290   1.094   4.792   5.198
22350WAT      O67291   0.709   4.247   9.479
22350WAT     H167292   0.697   4.266   9.577
22350WAT     H267293   0.620   4.231   9.437
22351WAT      O67294   9.352   5.705   7.661
22351WAT     H167295   9.390   5.787   7.619
22351WAT     H267296   9.299   5.729   7.742
22352WAT      O67297   6.785   0.921   2.974
22352WAT     H167298   6.859   0.955   2.916
22352WAT     H267299   6.731   0.999   3.008
22353WAT      O67300   2.632   5.119   6.909
22353WAT     H167301   2.542   5.116   6.952
22353WAT     H267302   2.671   5.211   6.919
22354WAT      O67303   1.573   3.355   5.725
22354WAT     H167304   1.519   3.344   5.809
22354WAT     H267305   1.633   3.275   5.714
22355WAT      O67306   5.672   0.519   0.857
22355WAT     H167307   5.616   0.506   0.775
22355WAT     H267308   5.734   0.441   0.866
22356WAT      O67309   9.003   0.094   3.265
22356WAT     H167310   9.100   0.071   3.254
22356WAT     H267311   8.990   0.144   3.350
22357WAT      O67312   9.139   0.168   4.836
22357WAT     H167313   9.226   0.134   4.800
22357WAT     H267314   9.084   0.206   4.761
22358WAT      O67315   6.847   1.069   2.107
22358WAT     H167316   6.789   1.137   2.153
22358WAT     H267317   6.840   0.982   2.155
22359WAT      O67318   7.949   6.870   9.798
22359WAT     H167319   8.001   6.916   9.726
22359WAT     H267320   7.956   6.771   9.787
22360WAT      O67321   1.492   0.732   8.918
22360WAT     H167322   1.581   0.738   8.963
22360WAT     H267323   1.419   0.746   8.985
22361WAT      O67324   3.429   8.355   2.848
22361WAT     H167325   3.428   8.375   2.946
22361WAT     H267326   3.377   8.426   2.799
22362WAT      O67327   3.204   9.395   8.387
22362WAT     H167328   3.269   9.381   8.462
22362WAT     H267329   3.237   9.347   8.306
22363WAT      O67330   7.871   1.285   4.777
22363WAT     H167331   7.928   1.298   4.858
22363WAT     H267332   7.856   1.187   4.762
22364WAT      O67333   1.762   5.055   9.475
22364WAT     H167334   1.855   5.038   9.444
22364WAT     H267335   1.697   5.022   9.406
22365WAT      O67336   1.539   0.606   0.230
22365WAT     H167337   1.448   0.605   0.190
22365WAT     H267338   1.544   0.678   0.300
22366WAT      O67339   7.323   8.165   1.531
22366WAT     H167340   7.324   8.155   1.432
22366WAT     H267341   7.377   8.246   1.557
22367WAT      O67342   5.877   4.743   4.207
22367WAT     H167343   5.949   4.680   4.235
22367WAT     H267344   5.851   4.801   4.285
22368WAT      O67345   1.858   7.138   8.211
22368WAT     H167346   1.872   7.153   8.309
22368WAT     H267347   1.815   7.049   8.197
22369WAT      O67348   8.277   5.208   4.746
22369WAT     H167349   8.188   5.201   4.791
22369WAT     H267350   8.263   5.216   4.648
22370WAT      O67351   6.786   0.956   6.361
22370WAT     H167352   6.818   1.044   6.396
22370WAT     H267353   6.750   0.967   6.269
22371WAT      O67354   0.551   7.179   5.605
22371WAT     H167355   0.644   7.205   5.631
22371WAT     H267356   0.518   7.241   5.534
22372WAT      O67357   1.108   7.605   4.205
22372WAT     H167358   1.193   7.611   4.154
22372WAT     H267359   1.038   7.562   4.148
22373WAT      O67360   7.880   5.757   3.175
22373WAT     H167361   7.804   5.783   3.235
22373WAT     H267362   7.874   5.810   3.090
22374WAT      O67363   9.539   6.635   1.160
22374WAT     H167364   9.500   6.606   1.072
22374WAT     H267365   9.576   6.728   1.151
22375WAT      O67366   0.143   4.593   9.045
22375WAT     H167367   0.241   4.588   9.026
22375WAT     H267368   0.091   4.575   8.962
22376WAT      O67369   4.537   3.989   9.273
22376WAT     H167370   4.591   4.060   9.319
22376WAT     H267371   4.555   3.901   9.317
22377WAT      O67372   3.368   9.175   0.757
22377WAT     H167373   3.332   9.253   0.809
22377WAT     H267374   3.466   9.188   0.743
22378WAT      O67375   3.273   8.600   3.094
22378WAT     H167376   3.175   8.604   3.072
22378WAT     H267377   3.325   8.646   3.023
22379WAT      O67378   6.106   1.663   1.378
22379WAT     H167379   6.008   1.645   1.378
22379WAT     H267380   6.123   1.753   1.338
22380WAT      O67381   3.538   5.340   6.304
22380WAT     H167382   3.537   5.257   6.248
22380WAT     H267383   3.446   5.376   6.312
22381WAT      O67384   9.095   9.387   7.636
22381WAT     H167385   9.121   9.340   7.551
22381WAT     H267386   9.004   9.356   7.664
22382WAT      O67387   4.390   4.419   5.283
22382WAT     H167388   4.414   4.349   5.350
22382WAT     H267389   4.291   4.416   5.266
22383WAT      O67390   7.013   8.456   3.543
22383WAT     H167391   6.966   8.409   3.618
22383WAT     H267392   6.985   8.415   3.456
22384WAT      O67393   3.728   2.930   6.195
22384WAT     H167394   3.820   2.930   6.235
22384WAT     H267395   3.729   2.979   6.108
22385WAT      O67396   8.071   3.626   2.881
22385WAT     H167397   8.111   3.579   2.959
22385WAT     H267398   7.971   3.617   2.884
22386WAT      O67399   3.868   9.326   6.770
22386WAT     H167400   3.787   9.267   6.771
22386WAT     H267401   3.854   9.401   6.835
22387WAT      O67402   2.356   4.500   5.733
22387WAT     H167403   2.273   4.520   5.785
22387WAT     H267404   2.376   4.402   5.738
22388WAT      O67405   5.783   8.071   5.952
22388WAT     H167406   5.846   8.131   5.902
22388WAT     H267407   5.804   7.976   5.932
22389WAT      O67408   0.615   2.210   8.467
22389WAT     H167409   0.692   2.161   8.509
22389WAT     H267410   0.577   2.275   8.533
22390WAT      O67411   4.627   0.009   5.237
22390WAT     H167412   4.562  -0.037   5.297
22390WAT     H267413   4.707  -0.049   5.223
22391WAT      O67414   5.515   9.070   3.588
22391WAT     H167415   5.603   9.113   3.610
22391WAT     H267416   5.525   8.971   3.589
22392WAT      O67417   9.442   4.086   9.067
22392WAT     H167418   9.535   4.049   9.077
22392WAT     H267419   9.429   4.160   9.133
22393WAT      O67420   9.389   5.800   1.060
22393WAT     H167421   9.304   5.756   1.087
22393WAT     H267422   9.463   5.733   1.059
22394WAT      O67423   4.234   4.343   1.176
22394WAT     H167424   4.152   4.286   1.171
22394WAT     H267425   4.292   4.312   1.252
22395WAT      O67426   3.863   0.881   9.538
22395WAT     H167427   3.776   0.864   9.584
22395WAT     H267428   3.855   0.860   9.440
22396WAT      O67429   1.508   6.551   0.487
22396WAT     H167430   1.509   6.478   0.556
22396WAT     H267431   1.581   6.535   0.422
22397WAT      O67432   5.462   7.529   3.695
22397WAT     H167433   5.421   7.441   3.674
22397WAT     H267434   5.402   7.581   3.756
22398WAT      O67435   5.869   0.979   0.115
22398WAT     H167436   5.924   1.045   0.167
22398WAT     H267437   5.780   1.020   0.094
22399WAT      O67438   3.224   2.813   1.739
22399WAT     H167439   3.303   2.800   1.679
22399WAT     H267440   3.245   2.882   1.808
22400WAT      O67441   0.277   2.666   5.747
22400WAT     H167442   0.294   2.620   5.659
22400WAT     H267443   0.181   2.692   5.752
22401WAT      O67444   6.307   6.202   3.923
22401WAT     H167445   6.327   6.175   3.829
22401WAT     H267446   6.386   6.249   3.962
22402WAT      O67447   1.813   5.495   5.944
22402WAT     H167448   1.784   5.445   6.025
22402WAT     H267449   1.752   5.573   5.930
22403WAT      O67450   5.430   0.410   5.244
22403WAT     H167451   5.392   0.402   5.336
22403WAT     H267452   5.376   0.355   5.181
22404WAT      O67453   7.859   3.620   6.062
22404WAT     H167454   7.808   3.665   6.134
22404WAT     H267455   7.824   3.527   6.049
22405WAT      O67456   7.814   9.543   6.881
22405WAT     H167457   7.911   9.554   6.861
22405WAT     H267458   7.760   9.574   6.803
22406WAT      O67459   4.589   7.797   3.943
22406WAT     H167460   4.521   7.869   3.954
22406WAT     H267461   4.608   7.783   3.845
22407WAT      O67462   8.848   6.419   8.602
22407WAT     H167463   8.783   6.474   8.549
22407WAT     H267464   8.799   6.370   8.674
22408WAT      O67465   5.709   1.728   8.817
22408WAT     H167466   5.648   1.657   8.852
22408WAT     H267467   5.684   1.749   8.722
22409WAT      O67468   5.543   1.610   7.168
22409WAT     H167469   5.564   1.696   7.215
22409WAT     H267470   5.540   1.535   7.234
22410WAT      O67471   6.550   7.250   3.058
22410WAT     H167472   6.590   7.160   3.044
22410WAT     H267473   6.511   7.284   2.972
22411WAT      O67474   7.169   5.791   5.572
22411WAT     H167475   7.140   5.732   5.648
22411WAT     H267476   7.158   5.742   5.486
22412WAT      O67477   0.737   7.346   3.859
22412WAT     H167478   0.795   7.411   3.809
22412WAT     H267479   0.654   7.328   3.806
22413WAT      O67480   6.299   5.502   0.305
22413WAT     H167481   6.269   5.545   0.220
22413WAT     H267482   6.233   5.432   0.333
22414WAT      O67483   1.415   4.370   1.700
22414WAT     H167484   1.393   4.466   1.720
22414WAT     H267485   1.512   4.362   1.680
22415WAT      O67486   0.272   0.995   3.059
22415WAT     H167487   0.351   1.055   3.072
22415WAT     H267488   0.215   0.996   3.141
22416WAT      O67489   4.500   2.075   6.956
22416WAT     H167490   4.406   2.096   6.984
22416WAT     H267491   4.540   2.156   6.913
22417WAT      O67492   6.567   1.273   7.121
22417WAT     H167493   6.526   1.358   7.089
22417WAT     H267494   6.500   1.199   7.116
22418WAT      O67495   3.630   0.535   4.975
22418WAT     H167496   3.707   0.592   5.003
22418WAT     H267497   3.615   0.463   5.043
22419WAT      O67498   2.034   3.052   9.217
22419WAT     H167499   1.951   3.098   9.184
22419WAT     H267500   2.054   3.084   9.310
22420WAT      O67501   5.746   2.052   5.957
22420WAT     H167502   5.692   2.135   5.942
22420WAT     H267503   5.690   1.984   6.004
22421WAT      O67504   9.242   2.674   8.783
22421WAT     H167505   9.180   2.641   8.712
22421WAT     H267506   9.191   2.692   8.867
22422WAT      O67507   4.822   2.328   6.448
22422WAT     H167508   4.873   2.409   6.418
22422WAT     H267509   4.773   2.349   6.533
22423WAT      O67510   4.941   2.737   6.988
22423WAT     H167511   4.989   2.774   7.068
22423WAT     H267512   4.979   2.648   6.965
22424WAT      O67513   4.257   8.290   0.018
22424WAT     H167514   4.249   8.281  -0.082
22424WAT     H267515   4.300   8.378   0.040
22425WAT      O67516   7.956   2.170   4.322
22425WAT     H167517   7.897   2.090   4.333
22425WAT     H267518   7.952   2.225   4.405
22426WAT      O67519   2.042   1.582   4.320
22426WAT     H167520   1.976   1.657   4.316
22426WAT     H267521   2.121   1.604   4.263
22427WAT      O67522   0.265   8.891   0.780
22427WAT     H167523   0.200   8.867   0.709
22427WAT     H267524   0.322   8.967   0.749
22428WAT      O67525   4.042   1.319   1.800
22428WAT     H167526   4.081   1.227   1.797
22428WAT     H267527   4.003   1.342   1.710
22429WAT      O67528   6.833   5.896   7.038
22429WAT     H167529   6.790   5.928   7.122
22429WAT     H267530   6.889   5.815   7.058
22430WAT      O67531   2.603   8.935   6.354
22430WAT     H167532   2.532   8.868   6.378
22430WAT     H267533   2.677   8.930   6.422
22431WAT      O67534   4.826   6.533   9.772
22431WAT     H167535   4.754   6.601   9.758
22431WAT     H267536   4.894   6.569   9.835
22432WAT      O67537   0.947   9.699   2.383
22432WAT     H167538   0.929   9.796   2.369
22432WAT     H267539   0.861   9.650   2.395
22433WAT      O67540   5.672   6.720   1.315
22433WAT     H167541   5.675   6.754   1.220
22433WAT     H267542   5.736   6.644   1.325
22434WAT      O67543   9.188   0.363   7.156
22434WAT     H167544   9.099   0.389   7.192
22434WAT     H267545   9.216   0.275   7.194
22435WAT      O67546   0.403   7.816   5.723
22435WAT     H167547   0.432   7.911   5.737
22435WAT     H267548   0.454   7.777   5.647
22436WAT      O67549   1.735   7.161   7.580
22436WAT     H167550   1.656   7.117   7.538
22436WAT     H267551   1.810   7.095   7.586
22437WAT      O67552   2.696   1.198   8.954
22437WAT     H167553   2.699   1.248   8.868
22437WAT     H267554   2.602   1.170   8.973
22438WAT      O67555   7.811   6.105   5.136
22438WAT     H167556   7.872   6.069   5.206
22438WAT     H267557   7.725   6.053   5.138
22439WAT      O67558   4.565   1.482   6.006
22439WAT     H167559   4.523   1.486   5.915
22439WAT     H267560   4.555   1.389   6.043
22440WAT      O67561   7.722   7.011   4.239
22440WAT     H167562   7.744   7.074   4.313
22440WAT     H267563   7.695   6.922   4.277
22441WAT      O67564   1.048   0.050   3.383
22441WAT     H167565   1.122   0.088   3.327
22441WAT     H267566   0.969   0.110   3.379
22442WAT      O67567   6.428   7.862   4.910
22442WAT     H167568   6.388   7.872   5.001
22442WAT     H267569   6.374   7.798   4.856
22443WAT      O67570   9.745   2.344   3.888
22443WAT     H167571   9.688   2.383   3.815
22443WAT     H267572   9.841   2.369   3.872
22444WAT      O67573   6.286   9.553   7.823
22444WAT     H167574   6.315   9.486   7.892
22444WAT     H267575   6.356   9.558   7.751
22445WAT      O67576   4.175   4.226   4.374
22445WAT     H167577   4.199   4.305   4.430
22445WAT     H267578   4.258   4.179   4.346
22446WAT      O67579   6.113   8.191   7.150
22446WAT     H167580   6.212   8.177   7.150
22446WAT     H267581   6.078   8.181   7.244
22447WAT      O67582   0.012   6.998   2.943
22447WAT     H167583  -0.049   6.929   2.982
22447WAT     H267584  -0.040   7.079   2.917
22448WAT      O67585   7.987   8.730   2.886
22448WAT     H167586   7.983   8.723   2.786
22448WAT     H267587   7.910   8.785   2.919
22449WAT      O67588   5.207   0.144   5.614
22449WAT     H167589   5.155   0.091   5.547
22449WAT     H267590   5.145   0.203   5.666
22450WAT      O67591   1.648   8.473   6.339
22450WAT     H167592   1.596   8.435   6.416
22450WAT     H267593   1.640   8.411   6.260
22451WAT      O67594   2.323   5.152   3.828
22451WAT     H167595   2.242   5.098   3.804
22451WAT     H267596   2.361   5.193   3.745
22452WAT      O67597   6.156   9.141   8.974
22452WAT     H167598   6.112   9.176   9.057
22452WAT     H267599   6.152   9.210   8.902
22453WAT      O67600   2.442   8.284   9.229
22453WAT     H167601   2.423   8.302   9.133
22453WAT     H267602   2.404   8.196   9.255
22454WAT      O67603   6.622   8.513   4.161
22454WAT     H167604   6.671   8.485   4.078
22454WAT     H267605   6.641   8.447   4.234
22455WAT      O67606   2.177   8.758   8.048
22455WAT     H167607   2.261   8.704   8.037
22455WAT     H267608   2.177   8.833   7.983
22456WAT      O67609   1.122   1.450   3.302
22456WAT     H167610   1.205   1.413   3.345
22456WAT     H267611   1.043   1.428   3.358
22457WAT      O67612   0.196   9.643   9.535
22457WAT     H167613   0.216   9.636   9.437
22457WAT     H267614   0.196   9.551   9.575
22458WAT      O67615   2.800   1.384   8.469
22458WAT     H167616   2.884   1.427   8.501
22458WAT     H267617   2.814   1.349   8.376
22459WAT      O67618   1.416   8.337   2.395
22459WAT     H167619   1.448   8.337   2.490
22459WAT     H267620   1.340   8.272   2.386
22460WAT      O67621   5.030   1.508   0.795
22460WAT     H167622   4.960   1.578   0.787
22460WAT     H267623   5.042   1.483   0.892
22461WAT      O67624   7.815   9.543   3.830
22461WAT     H167625   7.790   9.622   3.886
22461WAT     H267626   7.913   9.526   3.839
22462WAT      O67627   9.015   2.058   7.322
22462WAT     H167628   8.974   2.137   7.368
22462WAT     H267629   9.066   2.089   7.242
22463WAT      O67630   3.003   4.414   2.430
22463WAT     H167631   2.991   4.344   2.500
22463WAT     H267632   2.914   4.440   2.393
22464WAT      O67633   4.464   8.773   0.534
22464WAT     H167634   4.488   8.702   0.467
22464WAT     H267635   4.541   8.836   0.544
22465WAT      O67636   8.704   0.209   3.776
22465WAT     H167637   8.687   0.193   3.873
22465WAT     H267638   8.616   0.218   3.728
22466WAT      O67639   1.516   3.857   3.678
22466WAT     H167640   1.455   3.926   3.719
22466WAT     H267641   1.505   3.770   3.726
22467WAT      O67642   8.963   0.072   4.115
22467WAT     H167643   9.022   0.122   4.178
22467WAT     H267644   8.916   0.137   4.056
22468WAT      O67645   7.940   0.326   2.299
22468WAT     H167646   8.002   0.252   2.271
22468WAT     H267647   7.979   0.414   2.274
22469WAT      O67648   2.250   6.521   6.638
22469WAT     H167649   2.328   6.579   6.618
22469WAT     H267650   2.239   6.453   6.566
22470WAT      O67651   5.925   1.399   3.660
22470WAT     H167652   5.929   1.397   3.760
22470WAT     H267653   5.952   1.310   3.624
22471WAT      O67654   0.928   0.146   9.369
22471WAT     H167655   0.973   0.099   9.293
22471WAT     H267656   0.907   0.240   9.343
22472WAT      O67657   6.326   5.751   8.610
22472WAT     H167658   6.421   5.742   8.580
22472WAT     H267659   6.320   5.734   8.708
22473WAT      O67660   1.825   8.571   3.902
22473WAT     H167661   1.853   8.619   3.985
22473WAT     H267662   1.757   8.626   3.853
22474WAT      O67663   6.410   3.853   1.962
22474WAT     H167664   6.440   3.941   1.925
22474WAT     H267665   6.488   3.791   1.968
22475WAT      O67666   9.605   8.626   5.248
22475WAT     H167667   9.685   8.587   5.295
22475WAT     H267668   9.624   8.631   5.150
22476WAT      O67669   0.224   5.849   9.334
22476WAT     H167670   0.187   5.939   9.316
22476WAT     H267671   0.323   5.856   9.351
22477WAT      O67672   8.533   4.958   9.385
22477WAT     H167673   8.608   4.987   9.324
22477WAT     H267674   8.518   5.028   9.454
22478WAT      O67675   8.709   5.866   0.963
22478WAT     H167676   8.662   5.780   0.944
22478WAT     H267677   8.641   5.938   0.978
22479WAT      O67678   2.861   6.683   7.446
22479WAT     H167679   2.859   6.764   7.389
22479WAT     H267680   2.789   6.620   7.417
22480WAT      O67681   7.175   8.938   4.317
22480WAT     H167682   7.119   8.875   4.372
22480WAT     H267683   7.122   9.019   4.294
22481WAT      O67684   3.356   1.297   8.726
22481WAT     H167685   3.446   1.315   8.687
22481WAT     H267686   3.312   1.384   8.749
22482WAT      O67687   9.659   7.928   6.347
22482WAT     H167688   9.601   7.964   6.419
22482WAT     H267689   9.674   7.999   6.278
22483WAT      O67690   0.305   6.318   9.715
22483WAT     H167691   0.382   6.380   9.726
22483WAT     H267692   0.251   6.316   9.799
22484WAT      O67693   1.042   4.494   6.728
22484WAT     H167694   1.138   4.468   6.731
22484WAT     H267695   0.999   4.455   6.647
22485WAT      O67696   7.584   7.572   0.986
22485WAT     H167697   7.554   7.504   0.919
22485WAT     H267698   7.526   7.653   0.980
22486WAT      O67699   4.028   0.725   9.741
22486WAT     H167700   4.028   0.633   9.780
22486WAT     H267701   4.048   0.720   9.643
22487WAT      O67702   7.150   5.895   4.658
22487WAT     H167703   7.137   5.983   4.704
22487WAT     H267704   7.245   5.866   4.668
22488WAT      O67705   9.094   6.510   8.569
22488WAT     H167706   8.999   6.483   8.584
22488WAT     H267707   9.106   6.606   8.594
22489WAT      O67708   7.410   3.865   8.641
22489WAT     H167709   7.448   3.792   8.698
22489WAT     H267710   7.310   3.855   8.636
22490WAT      O67711   0.008   0.816   5.586
22490WAT     H167712   0.096   0.771   5.606
22490WAT     H267713   0.022   0.915   5.583
22491WAT      O67714   7.637   1.436   1.723
22491WAT     H167715   7.579   1.362   1.690
22491WAT     H267716   7.724   1.436   1.673
22492WAT      O67717   9.587   0.012   0.140
22492WAT     H167718   9.678   0.028   0.102
22492WAT     H267719   9.518   0.047   0.077
22493WAT      O67720   6.180   6.584   5.291
22493WAT     H167721   6.234   6.598   5.208
22493WAT     H267722   6.189   6.489   5.322
22494WAT      O67723   9.835   8.982   7.306
22494WAT     H167724   9.845   8.948   7.212
22494WAT     H267725   9.885   8.923   7.369
22495WAT      O67726   3.433   2.179   3.993
22495WAT     H167727   3.482   2.172   3.906
22495WAT     H267728   3.383   2.094   4.009
22496WAT      O67729   3.525   4.368   7.332
22496WAT     H167730   3.428   4.375   7.357
22496WAT     H267731   3.535   4.309   7.251
22497WAT      O67732   8.704   1.506   4.955
22497WAT     H167733   8.761   1.455   5.019
22497WAT     H267734   8.608   1.495   4.981
22498WAT      O67735   8.600   4.440   9.281
22498WAT     H167736   8.554   4.529   9.277
22498WAT     H267737   8.630   4.423   9.375
22499WAT      O67738   1.447   5.312   3.738
22499WAT     H167739   1.502   5.234   3.707
22499WAT     H267740   1.507   5.392   3.748
22500WAT      O67741   6.619   6.585   6.408
22500WAT     H167742   6.585   6.629   6.490
22500WAT     H267743   6.553   6.517   6.376
22501WAT      O67744   8.968   4.362   7.580
22501WAT     H167745   8.920   4.287   7.535
22501WAT     H267746   8.903   4.433   7.607
22502WAT      O67747   5.386   0.458   2.484
22502WAT     H167748   5.471   0.502   2.454
22502WAT     H267749   5.370   0.376   2.429
22503WAT      O67750   3.560   0.757   7.746
22503WAT     H167751   3.534   0.839   7.798
22503WAT     H267752   3.640   0.714   7.789
22504WAT      O67753   6.418   8.906   4.305
22504WAT     H167754   6.468   8.993   4.307
22504WAT     H267755   6.320   8.923   4.299
22505WAT      O67756   4.146   6.186   8.581
22505WAT     H167757   4.096   6.230   8.506
22505WAT     H267758   4.166   6.254   8.652
22506WAT      O67759   9.283   8.073   1.906
22506WAT     H167760   9.210   8.031   1.852
22506WAT     H267761   9.245   8.149   1.959
22507WAT      O67762   1.583   2.550   2.287
22507WAT     H167763   1.491   2.587   2.287
22507WAT     H267764   1.639   2.600   2.220
22508WAT      O67765   7.929   1.802   6.391
22508WAT     H167766   7.871   1.792   6.310
22508WAT     H267767   8.014   1.847   6.366
22509WAT      O67768   6.574   2.627   9.656
22509WAT     H167769   6.543   2.543   9.610
22509WAT     H267770   6.593   2.607   9.752
22510WAT      O67771   3.900   5.632   2.010
22510WAT     H167772   3.901   5.732   2.014
22510WAT     H267773   3.827   5.601   1.949
22511WAT      O67774   6.334   7.378   7.521
22511WAT     H167775   6.328   7.378   7.621
22511WAT     H267776   6.401   7.309   7.492
22512WAT      O67777   2.699   9.208   7.506
22512WAT     H167778   2.609   9.182   7.541
22512WAT     H267779   2.696   9.215   7.406
22513WAT      O67780   4.367   5.266   7.649
22513WAT     H167781   4.404   5.179   7.681
22513WAT     H267782   4.418   5.341   7.690
22514WAT      O67783   7.502   8.643   4.388
22514WAT     H167784   7.583   8.637   4.330
22514WAT     H267785   7.490   8.557   4.438
22515WAT      O67786   9.190   6.173   7.762
22515WAT     H167787   9.181   6.197   7.665
22515WAT     H267788   9.190   6.257   7.817
22516WAT      O67789   5.514   9.286   2.980
22516WAT     H167790   5.588   9.297   2.914
22516WAT     H267791   5.542   9.326   3.068
22517WAT      O67792   2.550   0.510   6.600
22517WAT     H167793   2.539   0.412   6.616
22517WAT     H267794   2.508   0.561   6.674
22518WAT      O67795   7.952   9.296   2.098
22518WAT     H167796   7.862   9.329   2.125
22518WAT     H267797   7.950   9.270   2.001
22519WAT      O67798   2.995   0.761   3.038
22519WAT     H167799   3.033   0.847   3.072
22519WAT     H267800   3.038   0.684   3.085
22520WAT      O67801   9.875   9.001   3.058
22520WAT     H167802   9.861   8.903   3.046
22520WAT     H267803   9.923   9.037   2.978
22521WAT      O67804   1.929   6.355   6.440
22521WAT     H167805   1.934   6.256   6.429
22521WAT     H267806   1.842   6.380   6.483
22522WAT      O67807   2.026   4.504   9.353
22522WAT     H167808   2.040   4.471   9.447
22522WAT     H267809   1.974   4.590   9.355
22523WAT      O67810   9.194   8.506   3.615
22523WAT     H167811   9.230   8.490   3.706
22523WAT     H267812   9.164   8.601   3.607
22524WAT      O67813   5.866   6.221   2.069
22524WAT     H167814   5.908   6.151   2.128
22524WAT     H267815   5.779   6.187   2.034
22525WAT      O67816   6.985   6.700   3.863
22525WAT     H167817   7.024   6.608   3.863
22525WAT     H267818   6.980   6.734   3.769
22526WAT      O67819   5.018   5.549   1.187
22526WAT     H167820   5.031   5.627   1.248
22526WAT     H267821   4.926   5.554   1.147
22527WAT      O67822   2.103   9.674   9.797
22527WAT     H167823   2.119   9.723   9.712
22527WAT     H267824   2.188   9.629   9.826
22528WAT      O67825   0.957   2.911   1.164
22528WAT     H167826   1.024   2.889   1.235
22528WAT     H267827   0.936   2.828   1.111
22529WAT      O67828   5.991   0.307   4.437
22529WAT     H167829   6.025   0.308   4.343
22529WAT     H267830   5.907   0.361   4.443
22530WAT      O67831   0.365   2.841   9.029
22530WAT     H167832   0.398   2.925   8.986
22530WAT     H267833   0.367   2.766   8.963
22531WAT      O67834   1.320   4.981   8.159
22531WAT     H167835   1.267   4.940   8.233
22531WAT     H267836   1.417   4.957   8.169
22532WAT      O67837   7.160   4.774   8.888
22532WAT     H167838   7.219   4.852   8.907
22532WAT     H267839   7.216   4.694   8.870
22533WAT      O67840   6.684   3.843   2.343
22533WAT     H167841   6.620   3.785   2.292
22533WAT     H267842   6.765   3.860   2.287
22534WAT      O67843   0.122   1.049   1.716
22534WAT     H167844   0.148   1.096   1.800
22534WAT     H267845   0.178   0.967   1.706
22535WAT      O67846   5.837   0.865   0.516
22535WAT     H167847   5.893   0.948   0.511
22535WAT     H267848   5.885   0.796   0.569
22536WAT      O67849   7.994   0.028   4.186
22536WAT     H167850   7.992   0.124   4.216
22536WAT     H267851   8.028  -0.029   4.260
22537WAT      O67852   1.102   6.148   4.608
22537WAT     H167853   1.047   6.092   4.547
22537WAT     H267854   1.169   6.091   4.654
22538WAT      O67855   0.451   3.961   7.369
22538WAT     H167856   0.410   3.946   7.458
22538WAT     H267857   0.409   4.041   7.326
22539WAT      O67858   7.490   6.826   7.417
22539WAT     H167859   7.406   6.825   7.471
22539WAT     H267860   7.511   6.732   7.387
22540WAT      O67861   1.308   1.887   6.377
22540WAT     H167862   1.385   1.887   6.442
22540WAT     H267863   1.337   1.846   6.291
22541WAT      O67864   8.538   2.263   3.899
22541WAT     H167865   8.561   2.228   3.808
22541WAT     H267866   8.467   2.333   3.891
22542WAT      O67867   9.776   0.280   4.661
22542WAT     H167868   9.714   0.344   4.615
22542WAT     H267869   9.861   0.327   4.685
22543WAT      O67870   7.044   2.458   6.150
22543WAT     H167871   6.976   2.396   6.113
22543WAT     H267872   7.016   2.488   6.241
22544WAT      O67873   5.925   7.959   7.094
22544WAT     H167874   5.981   8.041   7.081
22544WAT     H267875   5.898   7.922   7.005
22545WAT      O67876   4.340   1.021   3.634
22545WAT     H167877   4.278   1.100   3.634
22545WAT     H267878   4.430   1.050   3.667
22546WAT      O67879   5.387   6.333   0.930
22546WAT     H167880   5.480   6.357   0.958
22546WAT     H267881   5.386   6.317   0.831
22547WAT      O67882   8.753   5.673   5.192
22547WAT     H167883   8.815   5.619   5.248
22547WAT     H267884   8.750   5.767   5.226
22548WAT      O67885   9.835   3.514   3.711
22548WAT     H167886   9.881   3.603   3.705
22548WAT     H267887   9.735   3.528   3.711
22549WAT      O67888   4.156   5.815   7.785
22549WAT     H167889   4.184   5.909   7.802
22549WAT     H267890   4.089   5.812   7.712
22550WAT      O67891   3.339   8.395   1.581
22550WAT     H167892   3.437   8.376   1.568
22550WAT     H267893   3.304   8.444   1.501
22551WAT      O67894   0.699   4.110   2.771
22551WAT     H167895   0.667   4.203   2.754
22551WAT     H267896   0.773   4.089   2.708
22552WAT      O67897   7.514   0.403   5.670
22552WAT     H167898   7.477   0.314   5.695
22552WAT     H267899   7.440   0.468   5.657
22553WAT      O67900   2.444   2.551   1.931
22553WAT     H167901   2.504   2.631   1.940
22553WAT     H267902   2.350   2.578   1.955
22554WAT      O67903   8.413   8.205   3.653
22554WAT     H167904   8.320   8.170   3.640
22554WAT     H267905   8.474   8.129   3.677
22555WAT      O67906   0.163   7.332   9.433
22555WAT     H167907   0.131   7.268   9.503
22555WAT     H267908   0.211   7.407   9.478
22556WAT      O67909   5.719   9.497   7.129
22556WAT     H167910   5.645   9.510   7.195
22556WAT     H267911   5.700   9.416   7.073
22557WAT      O67912   8.595   5.539   8.735
22557WAT     H167913   8.690   5.516   8.757
22557WAT     H267914   8.591   5.578   8.643
22558WAT      O67915   2.258   2.838   7.044
22558WAT     H167916   2.309   2.866   7.125
22558WAT     H267917   2.271   2.740   7.028
22559WAT      O67918   7.116   8.370   2.019
22559WAT     H167919   7.071   8.297   2.071
22559WAT     H267920   7.152   8.439   2.082
22560WAT      O67921   9.236   9.489   0.028
22560WAT     H167922   9.322   9.444   0.052
22560WAT     H267923   9.161   9.447   0.079
22561WAT      O67924   3.711   7.072   7.514
22561WAT     H167925   3.774   7.150   7.507
22561WAT     H267926   3.636   7.096   7.576
22562WAT      O67927   1.148   1.963   2.144
22562WAT     H167928   1.049   1.964   2.129
22562WAT     H267929   1.180   2.056   2.163
22563WAT      O67930   5.726   2.178   6.370
22563WAT     H167931   5.658   2.105   6.363
22563WAT     H267932   5.706   2.235   6.450
22564WAT      O67933   8.420   3.364   8.670
22564WAT     H167934   8.436   3.425   8.592
22564WAT     H267935   8.438   3.270   8.643
22565WAT      O67936   1.443   7.494   3.325
22565WAT     H167937   1.477   7.423   3.264
22565WAT     H267938   1.505   7.504   3.403
22566WAT      O67939   0.752   4.346   1.123
22566WAT     H167940   0.774   4.352   1.220
22566WAT     H267941   0.835   4.326   1.071
22567WAT      O67942   2.616   3.298   0.891
22567WAT     H167943   2.655   3.217   0.936
22567WAT     H267944   2.655   3.380   0.932
22568WAT      O67945   7.531   9.094   0.091
22568WAT     H167946   7.477   9.010   0.091
22568WAT     H267947   7.606   9.085   0.157
22569WAT      O67948   7.354   5.574   3.935
22569WAT     H167949   7.397   5.644   3.991
22569WAT     H267950   7.324   5.498   3.993
22570WAT      O67951   5.559   8.251   5.272
22570WAT     H167952   5.624   8.294   5.335
22570WAT     H267953   5.491   8.318   5.243
22571WAT      O67954   0.094   3.048   3.883
22571WAT     H167955   0.131   2.974   3.939
22571WAT     H267956   0.090   3.018   3.788
22572WAT      O67957   4.629   5.304   4.990
22572WAT     H167958   4.717   5.346   5.011
22572WAT     H267959   4.627   5.211   5.027
22573WAT      O67960   0.345   2.854   4.560
22573WAT     H167961   0.309   2.775   4.509
22573WAT     H267962   0.329   2.937   4.507
22574WAT      O67963   1.102   2.191   0.206
22574WAT     H167964   1.115   2.237   0.294
22574WAT     H267965   1.171   2.121   0.194
22575WAT      O67966   0.938   9.692   7.288
22575WAT     H167967   0.872   9.699   7.213
22575WAT     H267968   1.016   9.752   7.269
22576WAT      O67969   7.234   2.113   9.170
22576WAT     H167970   7.236   2.111   9.270
22576WAT     H267971   7.327   2.121   9.135
22577WAT      O67972   5.948   7.783   4.088
22577WAT     H167973   5.943   7.758   4.184
22577WAT     H267974   6.041   7.772   4.055
22578WAT      O67975   5.713   4.137   6.937
22578WAT     H167976   5.802   4.099   6.911
22578WAT     H267977   5.649   4.063   6.957
22579WAT      O67978   2.103   9.669   5.673
22579WAT     H167979   2.155   9.753   5.658
22579WAT     H267980   2.006   9.691   5.684
22580WAT      O67981   1.066   6.381   1.492
22580WAT     H167982   1.136   6.417   1.429
22580WAT     H267983   1.111   6.333   1.567
22581WAT      O67984   8.760   5.634   6.909
22581WAT     H167985   8.695   5.621   6.833
22581WAT     H267986   8.772   5.547   6.957
22582WAT      O67987   2.830   3.218   2.954
22582WAT     H167988   2.812   3.316   2.953
22582WAT     H267989   2.929   3.202   2.965
22583WAT      O67990   3.668   3.144   5.345
22583WAT     H167991   3.596   3.192   5.395
22583WAT     H267992   3.626   3.082   5.278
22584WAT      O67993   5.430   2.565   9.359
22584WAT     H167994   5.503   2.618   9.314
22584WAT     H267995   5.363   2.627   9.398
22585WAT      O67996   8.943   2.722   3.681
22585WAT     H167997   8.872   2.776   3.637
22585WAT     H267998   8.901   2.647   3.733
22586WAT      O67999   2.831   0.815   8.009
22586WAT     H168000   2.768   0.748   7.970
22586WAT     H268001   2.884   0.858   7.935
22587WAT      O68002   2.379   5.610   4.876
22587WAT     H168003   2.356   5.513   4.874
22587WAT     H268004   2.459   5.627   4.818
22588WAT      O68005   4.969   7.192   3.475
22588WAT     H168006   4.988   7.259   3.403
22588WAT     H268007   5.051   7.139   3.494
22589WAT      O68008   1.922   8.077   7.064
22589WAT     H168009   2.011   8.116   7.040
22589WAT     H268010   1.930   8.024   7.148
22590WAT      O68011   3.944   2.316   7.668
22590WAT     H168012   3.947   2.265   7.582
22590WAT     H268013   3.850   2.344   7.686
22591WAT      O68014   1.409   7.744   3.915
22591WAT     H168015   1.508   7.737   3.928
22591WAT     H268016   1.381   7.840   3.918
22592WAT      O68017   9.193   8.521   5.021
22592WAT     H168018   9.093   8.514   5.032
22592WAT     H268019   9.213   8.572   4.938
22593WAT      O68020   8.693   9.758   2.848
22593WAT     H168021   8.622   9.774   2.780
22593WAT     H268022   8.654   9.709   2.927
22594WAT      O68023   2.997   4.344   4.144
22594WAT     H168024   2.925   4.411   4.126
22594WAT     H268025   3.032   4.309   4.057
22595WAT      O68026   2.534   6.411   5.606
22595WAT     H168027   2.489   6.348   5.669
22595WAT     H268028   2.565   6.491   5.656
22596WAT      O68029   3.153   6.446   8.022
22596WAT     H168030   3.125   6.536   8.056
22596WAT     H268031   3.073   6.386   8.018
22597WAT      O68032   8.645   0.601   0.287
22597WAT     H168033   8.606   0.622   0.197
22597WAT     H268034   8.571   0.594   0.354
22598WAT      O68035   2.832   3.460   4.921
22598WAT     H168036   2.832   3.498   4.829
22598WAT     H268037   2.805   3.530   4.987
22599WAT      O68038   8.444   5.162   9.559
22599WAT     H168039   8.449   5.189   9.655
22599WAT     H268040   8.399   5.234   9.506
22600WAT      O68041   5.015   4.626   6.893
22600WAT     H168042   4.917   4.638   6.912
22600WAT     H268043   5.038   4.529   6.897
22601WAT      O68044   4.751   9.004   4.156
22601WAT     H168045   4.784   9.002   4.250
22601WAT     H268046   4.806   9.069   4.103
22602WAT      O68047   2.659   6.925   2.437
22602WAT     H168048   2.718   6.864   2.489
22602WAT     H268049   2.578   6.947   2.492
22603WAT      O68050   1.865   8.183   9.275
22603WAT     H168051   1.938   8.138   9.224
22603WAT     H268052   1.904   8.247   9.340
22604WAT      O68053   1.055   4.964   4.617
22604WAT     H168054   1.078   5.040   4.557
22604WAT     H268055   1.018   5.000   4.703
22605WAT      O68056   3.814   8.169   2.595
22605WAT     H168057   3.870   8.201   2.519
22605WAT     H268058   3.800   8.070   2.586
22606WAT      O68059   7.856   2.654   1.267
22606WAT     H168060   7.868   2.746   1.230
22606WAT     H268061   7.945   2.609   1.274
22607WAT      O68062   0.765   5.981   5.084
22607WAT     H168063   0.824   5.937   5.016
22607WAT     H268064   0.704   5.913   5.123
22608WAT      O68065   7.191   1.947   3.142
22608WAT     H168066   7.290   1.952   3.126
22608WAT     H268067   7.162   1.851   3.137
22609WAT      O68068   5.551   7.595   5.937
22609WAT     H168069   5.564   7.693   5.953
22609WAT     H268070   5.594   7.544   6.011
22610WAT      O68071   0.628   8.322   6.053
22610WAT     H168072   0.642   8.366   5.964
22610WAT     H268073   0.698   8.251   6.066
22611WAT      O68074   7.382   3.866   3.627
22611WAT     H168075   7.394   3.947   3.684
22611WAT     H268076   7.433   3.789   3.666
22612WAT      O68077   6.279   8.010   2.670
22612WAT     H168078   6.347   7.960   2.725
22612WAT     H268079   6.314   8.100   2.646
22613WAT      O68080   8.729   7.068   0.114
22613WAT     H168081   8.790   7.020   0.051
22613WAT     H268082   8.670   7.130   0.063
22614WAT      O68083   4.095   1.411   7.641
22614WAT     H168084   4.139   1.398   7.552
22614WAT     H268085   4.148   1.477   7.695
22615WAT      O68086   6.915   4.689   3.099
22615WAT     H168087   7.005   4.652   3.078
22615WAT     H268088   6.849   4.613   3.106
22616WAT      O68089   6.914   3.679   1.711
22616WAT     H168090   6.888   3.622   1.789
22616WAT     H268091   6.843   3.748   1.694
22617WAT      O68092   6.528   2.155   4.280
22617WAT     H168093   6.513   2.101   4.198
22617WAT     H268094   6.621   2.141   4.313
22618WAT      O68095   4.110   5.534   5.981
22618WAT     H168096   4.078   5.612   5.927
22618WAT     H268097   4.185   5.488   5.933
22619WAT      O68098   1.919   8.740   6.546
22619WAT     H168099   1.999   8.738   6.605
22619WAT     H268100   1.933   8.807   6.473
22620WAT      O68101   6.227   2.705   4.784
22620WAT     H168102   6.243   2.695   4.882
22620WAT     H268103   6.154   2.643   4.756
22621WAT      O68104   9.551   3.944   6.184
22621WAT     H168105   9.563   3.913   6.090
22621WAT     H268106   9.513   3.870   6.240
22622WAT      O68107   5.811   3.450   6.927
22622WAT     H168108   5.894   3.477   6.877
22622WAT     H268109   5.770   3.371   6.883
22623WAT      O68110   4.506   7.654   7.661
22623WAT     H168111   4.453   7.577   7.625
22623WAT     H268112   4.573   7.683   7.593
22624WAT      O68113   0.545   4.838   2.193
22624WAT     H168114   0.518   4.774   2.265
22624WAT     H268115   0.580   4.786   2.115
22625WAT      O68116   1.258   8.152   0.784
22625WAT     H168117   1.210   8.231   0.744
22625WAT     H268118   1.346   8.182   0.822
22626WAT      O68119   5.855   8.905   2.213
22626WAT     H168120   5.793   8.903   2.135
22626WAT     H268121   5.832   8.982   2.272
22627WAT      O68122   0.656   2.100   7.195
22627WAT     H168123   0.692   2.047   7.118
22627WAT     H268124   0.556   2.098   7.192
22628WAT      O68125   0.764   0.575   3.224
22628WAT     H168126   0.862   0.594   3.220
22628WAT     H268127   0.716   0.637   3.161
22629WAT      O68128   7.572   5.320   3.230
22629WAT     H168129   7.670   5.329   3.210
22629WAT     H268130   7.561   5.269   3.316
22630WAT      O68131   6.596   6.569  -0.001
22630WAT     H168132   6.658   6.499   0.034
22630WAT     H268133   6.509   6.564   0.048
22631WAT      O68134   0.161   4.298   5.367
22631WAT     H168135   0.222   4.325   5.293
22631WAT     H268136   0.067   4.291   5.331
22632WAT      O68137   7.404   2.358   2.517
22632WAT     H168138   7.471   2.325   2.450
22632WAT     H268139   7.452   2.389   2.599
22633WAT      O68140   2.497   0.946   4.036
22633WAT     H168141   2.455   0.986   3.954
22633WAT     H268142   2.427   0.929   4.105
22634WAT      O68143   3.773   1.069   3.097
22634WAT     H168144   3.734   1.160   3.086
22634WAT     H268145   3.763   1.040   3.193
22635WAT      O68146   6.911   1.428   7.390
22635WAT     H168147   7.011   1.433   7.385
22635WAT     H268148   6.872   1.507   7.342
22636WAT      O68149   2.574   3.224   6.735
22636WAT     H168150   2.616   3.314   6.733
22636WAT     H268151   2.524   3.208   6.649
22637WAT      O68152   7.800   0.998   2.196
22637WAT     H168153   7.854   1.075   2.229
22637WAT     H268154   7.800   0.925   2.264
22638WAT      O68155   6.042   4.944   6.507
22638WAT     H168156   5.973   4.926   6.578
22638WAT     H268157   5.996   4.970   6.422
22639WAT      O68158   5.117   4.981   3.818
22639WAT     H168159   5.025   5.020   3.820
22639WAT     H268160   5.141   4.947   3.909
22640WAT      O68161   4.021   9.734   6.222
22640WAT     H168162   3.971   9.816   6.194
22640WAT     H268163   4.076   9.700   6.145
22641WAT      O68164   0.791   3.415   0.149
22641WAT     H168165   0.701   3.383   0.180
22641WAT     H268166   0.779   3.487   0.080
22642WAT      O68167   0.855   1.664   9.431
22642WAT     H168168   0.817   1.590   9.376
22642WAT     H268169   0.835   1.752   9.389
22643WAT      O68170   8.380   1.639   6.899
22643WAT     H168171   8.470   1.656   6.859
22643WAT     H268172   8.338   1.561   6.853
22644WAT      O68173   3.107   0.936   5.971
22644WAT     H168174   3.073   1.011   6.028
22644WAT     H268175   3.179   0.970   5.911
22645WAT      O68176   7.041   4.114   3.194
22645WAT     H168177   7.097   4.120   3.111
22645WAT     H268178   7.093   4.070   3.266
22646WAT      O68179   4.392   0.044   6.082
22646WAT     H168180   4.433  -0.019   6.016
22646WAT     H268181   4.392   0.136   6.045
22647WAT      O68182   2.941   7.195   3.937
22647WAT     H168183   3.025   7.184   3.884
22647WAT     H268184   2.888   7.110   3.934
22648WAT      O68185   2.792   4.796   3.327
22648WAT     H168186   2.713   4.809   3.268
22648WAT     H268187   2.763   4.755   3.414
22649WAT      O68188   0.422   1.547   3.872
22649WAT     H168189   0.496   1.608   3.897
22649WAT     H268190   0.451   1.452   3.886
22650WAT      O68191   8.922   0.663   2.342
22650WAT     H168192   8.977   0.586   2.374
22650WAT     H268193   8.981   0.728   2.293
22651WAT      O68194   3.966   4.630   7.630
22651WAT     H168195   3.960   4.538   7.592
22651WAT     H268196   4.061   4.650   7.654
22652WAT      O68197   3.729   9.221   0.141
22652WAT     H168198   3.763   9.201   0.049
22652WAT     H268199   3.798   9.272   0.192
22653WAT      O68200   6.770   2.261   2.868
22653WAT     H168201   6.682   2.225   2.900
22653WAT     H268202   6.805   2.202   2.795
22654WAT      O68203   4.966   7.223   2.758
22654WAT     H168204   5.062   7.251   2.753
22654WAT     H268205   4.936   7.225   2.853
22655WAT      O68206   2.950   2.854   1.697
22655WAT     H168207   3.049   2.850   1.711
22655WAT     H268208   2.911   2.925   1.755
22656WAT      O68209   0.220   2.173   6.533
22656WAT     H168210   0.263   2.234   6.599
22656WAT     H268211   0.135   2.213   6.500
22657WAT      O68212   4.552   8.415   5.190
22657WAT     H168213   4.504   8.366   5.118
22657WAT     H268214   4.651   8.411   5.174
22658WAT      O68215   3.733   6.181   1.495
22658WAT     H168216   3.757   6.182   1.398
22658WAT     H268217   3.702   6.090   1.521
22659WAT      O68218   8.574   1.002   6.284
22659WAT     H168219   8.657   1.056   6.295
22659WAT     H268220   8.585   0.914   6.330
22660WAT      O68221   8.401   7.459   4.463
22660WAT     H168222   8.334   7.416   4.523
22660WAT     H268223   8.492   7.424   4.483
22661WAT      O68224   3.093   4.882   5.544
22661WAT     H168225   3.157   4.813   5.508
22661WAT     H268226   3.145   4.962   5.574
22662WAT      O68227   6.007   9.520   7.380
22662WAT     H168228   5.941   9.452   7.410
22662WAT     H268229   5.976   9.611   7.407
22663WAT      O68230   0.251   8.972   3.441
22663WAT     H168231   0.349   8.956   3.429
22663WAT     H268232   0.200   8.914   3.378
22664WAT      O68233   7.802   3.755   0.634
22664WAT     H168234   7.873   3.775   0.566
22664WAT     H268235   7.808   3.821   0.709
22665WAT      O68236   7.247   7.454   8.694
22665WAT     H168237   7.322   7.434   8.757
22665WAT     H268238   7.165   7.404   8.723
22666WAT      O68239   1.834   2.670   3.248
22666WAT     H168240   1.838   2.612   3.329
22666WAT     H268241   1.750   2.651   3.197
22667WAT      O68242   9.251   9.053   7.193
22667WAT     H168243   9.341   9.069   7.152
22667WAT     H268244   9.205   8.979   7.144
22668WAT      O68245   8.486   5.578   8.157
22668WAT     H168246   8.410   5.515   8.174
22668WAT     H268247   8.570   5.540   8.197
22669WAT      O68248   1.072   4.007   3.712
22669WAT     H168249   1.086   4.010   3.811
22669WAT     H268250   1.002   3.938   3.690
22670WAT      O68251   4.491   6.871   7.188
22670WAT     H168252   4.577   6.894   7.234
22670WAT     H268253   4.510   6.809   7.112
22671WAT      O68254   7.473   3.569   7.123
22671WAT     H168255   7.442   3.554   7.029
22671WAT     H268256   7.442   3.659   7.154
22672WAT      O68257   5.714   8.601   1.586
22672WAT     H168258   5.670   8.536   1.648
22672WAT     H268259   5.781   8.554   1.529
22673WAT      O68260   6.962   5.926   8.380
22673WAT     H168261   6.938   5.919   8.476
22673WAT     H268262   6.881   5.908   8.324
22674WAT      O68263   4.499   3.663   8.754
22674WAT     H168264   4.432   3.670   8.680
22674WAT     H268265   4.562   3.588   8.735
22675WAT      O68266   9.106   2.378   3.537
22675WAT     H168267   9.200   2.376   3.502
22675WAT     H268268   9.068   2.285   3.534
22676WAT      O68269   1.991   7.823   0.729
22676WAT     H168270   1.966   7.814   0.633
22676WAT     H268271   1.908   7.817   0.786
22677WAT      O68272   4.627   0.923   7.496
22677WAT     H168273   4.693   0.983   7.541
22677WAT     H268274   4.644   0.924   7.397
22678WAT      O68275   0.172   5.240   0.556
22678WAT     H168276   0.245   5.171   0.553
22678WAT     H268277   0.210   5.330   0.537
22679WAT      O68278   6.349   4.130   6.213
22679WAT     H168279   6.259   4.174   6.216
22679WAT     H268280   6.350   4.054   6.279
22680WAT      O68281   5.542   2.030   8.321
22680WAT     H168282   5.590   1.949   8.287
22680WAT     H268283   5.448   2.030   8.288
22681WAT      O68284   0.436   3.124   6.310
22681WAT     H168285   0.342   3.139   6.341
22681WAT     H268286   0.490   3.088   6.387
22682WAT      O68287   9.350   9.494   8.302
22682WAT     H168288   9.405   9.559   8.355
22682WAT     H268289   9.396   9.405   8.302
22683WAT      O68290   9.435   7.903   8.743
22683WAT     H168291   9.522   7.859   8.724
22683WAT     H268292   9.441   7.955   8.828
22684WAT      O68293   7.387   6.896   0.320
22684WAT     H168294   7.313   6.921   0.259
22684WAT     H268295   7.350   6.849   0.400
22685WAT      O68296   0.824   4.928   3.198
22685WAT     H168297   0.922   4.908   3.201
22685WAT     H268298   0.810   5.026   3.181
22686WAT      O68299   4.871   8.947   5.790
22686WAT     H168300   4.829   8.909   5.708
22686WAT     H268301   4.967   8.917   5.795
22687WAT      O68302   8.393   6.427   3.178
22687WAT     H168303   8.413   6.488   3.102
22687WAT     H268304   8.479   6.391   3.215
22688WAT      O68305   2.998   3.080   9.644
22688WAT     H168306   3.058   3.109   9.719
22688WAT     H268307   3.053   3.065   9.562
22689WAT      O68308   1.580   7.075   0.734
22689WAT     H168309   1.541   7.163   0.760
22689WAT     H268310   1.526   7.001   0.773
22690WAT      O68311   0.275   2.415   6.021
22690WAT     H168312   0.333   2.496   6.023
22690WAT     H268313   0.203   2.428   5.953
22691WAT      O68314   7.419   9.842   7.614
22691WAT     H168315   7.453   9.752   7.640
22691WAT     H268316   7.398   9.842   7.516
22692WAT      O68317   9.131   9.100   5.683
22692WAT     H168318   9.200   9.073   5.750
22692WAT     H268319   9.128   9.032   5.610
22693WAT      O68320   3.475   9.297   7.237
22693WAT     H168321   3.551   9.343   7.189
22693WAT     H268322   3.388   9.336   7.206
22694WAT      O68323   6.777   5.331   3.616
22694WAT     H168324   6.716   5.308   3.692
22694WAT     H268325   6.852   5.389   3.650
22695WAT      O68326   6.927   6.187   3.359
22695WAT     H168327   6.914   6.282   3.332
22695WAT     H268328   7.011   6.178   3.413
22696WAT      O68329   3.314   6.097   7.467
22696WAT     H168330   3.370   6.164   7.417
22696WAT     H268331   3.367   6.012   7.478
22697WAT      O68332   3.087   4.251   0.781
22697WAT     H168333   3.019   4.223   0.848
22697WAT     H268334   3.047   4.248   0.689
22698WAT      O68335   3.921   0.946   6.772
22698WAT     H168336   3.991   0.880   6.743
22698WAT     H268337   3.965   1.027   6.811
22699WAT      O68338   0.085   3.035   6.055
22699WAT     H168339   0.128   3.024   5.965
22699WAT     H268340   0.145   2.995   6.125
22700WAT      O68341   9.303   8.984   9.351
22700WAT     H168342   9.377   9.008   9.288
22700WAT     H268343   9.253   8.906   9.314
22701WAT      O68344   0.882   1.317   5.283
22701WAT     H168345   0.816   1.258   5.331
22701WAT     H268346   0.969   1.269   5.275
22702WAT      O68347   3.253   6.331   2.295
22702WAT     H168348   3.283   6.261   2.231
22702WAT     H268349   3.213   6.407   2.244
22703WAT      O68350   2.679   6.621   4.766
22703WAT     H168351   2.657   6.674   4.848
22703WAT     H268352   2.766   6.574   4.778
22704WAT      O68353   1.389   3.551   9.443
22704WAT     H168354   1.486   3.561   9.467
22704WAT     H268355   1.370   3.457   9.418
22705WAT      O68356   2.501   3.071   0.446
22705WAT     H168357   2.561   3.150   0.464
22705WAT     H268358   2.550   3.006   0.387
22706WAT      O68359   0.952   6.263   0.780
22706WAT     H168360   0.971   6.191   0.713
22706WAT     H268361   0.924   6.346   0.732
22707WAT      O68362   7.203   4.525   1.832
22707WAT     H168363   7.165   4.610   1.795
22707WAT     H268364   7.303   4.531   1.834
22708WAT      O68365   1.088   8.396   5.486
22708WAT     H168366   0.991   8.399   5.464
22708WAT     H268367   1.119   8.487   5.513
22709WAT      O68368   1.270   4.876   8.650
22709WAT     H168369   1.231   4.783   8.649
22709WAT     H268370   1.363   4.873   8.613
22710WAT      O68371   4.030   2.560   4.524
22710WAT     H168372   4.104   2.623   4.549
22710WAT     H268373   3.985   2.594   4.441
22711WAT      O68374   8.738   9.227   7.826
22711WAT     H168375   8.752   9.245   7.728
22711WAT     H268376   8.826   9.216   7.871
22712WAT      O68377   7.092   8.691   6.959
22712WAT     H168378   7.181   8.668   6.919
22712WAT     H268379   7.020   8.638   6.913
22713WAT      O68380   3.325   3.802   1.580
22713WAT     H168381   3.326   3.796   1.680
22713WAT     H268382   3.302   3.713   1.541
22714WAT      O68383   9.234   6.735   4.225
22714WAT     H168384   9.205   6.690   4.141
22714WAT     H268385   9.302   6.679   4.271
22715WAT      O68386   9.512   4.891   8.893
22715WAT     H168387   9.515   4.886   8.793
22715WAT     H268388   9.498   4.986   8.920
22716WAT      O68389   6.911   0.229   4.716
22716WAT     H168390   6.941   0.270   4.630
22716WAT     H268391   6.988   0.183   4.760
22717WAT      O68392   5.783   7.293   1.000
22717WAT     H168393   5.704   7.351   1.021
22717WAT     H268394   5.867   7.347   1.008
22718WAT      O68395   6.455   2.922   6.826
22718WAT     H168396   6.445   2.853   6.755
22718WAT     H268397   6.487   3.008   6.785
22719WAT      O68398   5.139   2.177   7.277
22719WAT     H168399   5.093   2.104   7.226
22719WAT     H268400   5.144   2.151   7.374
22720WAT      O68401   7.960   5.143   1.103
22720WAT     H168402   8.043   5.173   1.055
22720WAT     H268403   7.891   5.114   1.037
22721WAT      O68404   6.800   0.193   6.628
22721WAT     H168405   6.823   0.248   6.548
22721WAT     H268406   6.751   0.249   6.694
22722WAT      O68407   2.644   9.426   5.885
22722WAT     H168408   2.723   9.486   5.897
22722WAT     H268409   2.654   9.375   5.800
22723WAT      O68410   8.123   5.507   5.310
22723WAT     H168411   8.077   5.595   5.318
22723WAT     H268412   8.057   5.434   5.330
22724WAT      O68413   3.651   8.470   7.223
22724WAT     H168414   3.653   8.372   7.203
22724WAT     H268415   3.703   8.487   7.307
22725WAT      O68416   7.271   5.770   7.672
22725WAT     H168417   7.366   5.784   7.646
22725WAT     H268418   7.255   5.674   7.693
22726WAT      O68419   4.747   1.161   3.398
22726WAT     H168420   4.683   1.154   3.475
22726WAT     H268421   4.701   1.203   3.320
22727WAT      O68422   5.092   9.100   5.206
22727WAT     H168423   5.154   9.043   5.259
22727WAT     H268424   5.142   9.147   5.133
22728WAT      O68425   6.280   4.516   6.501
22728WAT     H168426   6.329   4.429   6.493
22728WAT     H268427   6.182   4.499   6.501
22729WAT      O68428   7.650   4.520   1.039
22729WAT     H168429   7.622   4.590   1.106
22729WAT     H268430   7.704   4.564   0.966
22730WAT      O68431   2.128   0.898   7.586
22730WAT     H168432   2.131   0.822   7.521
22730WAT     H268433   2.192   0.882   7.661
22731WAT      O68434   8.437   8.127   0.069
22731WAT     H168435   8.381   8.052   0.105
22731WAT     H268436   8.387   8.174  -0.004
22732WAT      O68437   8.220   0.267   1.716
22732WAT     H168438   8.295   0.302   1.660
22732WAT     H268439   8.152   0.339   1.731
22733WAT      O68440   2.024   5.154   9.117
22733WAT     H168441   1.932   5.192   9.130
22733WAT     H268442   2.046   5.153   9.019
22734WAT      O68443   3.348   6.675   7.734
22734WAT     H168444   3.395   6.650   7.819
22734WAT     H268445   3.414   6.679   7.659
22735WAT      O68446   9.209   1.839   3.429
22735WAT     H168447   9.189   1.758   3.372
22735WAT     H268448   9.154   1.834   3.513
22736WAT      O68449   3.879   4.433   4.342
22736WAT     H168450   3.895   4.508   4.406
22736WAT     H268451   3.966   4.388   4.321
22737WAT      O68452   9.760   3.914   8.354
22737WAT     H168453   9.699   3.838   8.374
22737WAT     H268454   9.839   3.882   8.302
22738WAT      O68455   1.227   4.752   1.528
22738WAT     H168456   1.150   4.716   1.581
22738WAT     H268457   1.233   4.704   1.440
22739WAT      O68458   3.108   9.180   2.441
22739WAT     H168459   3.035   9.205   2.504
22739WAT     H268460   3.168   9.112   2.483
22740WAT      O68461   1.109   6.653   9.347
22740WAT     H168462   1.059   6.611   9.422
22740WAT     H268463   1.069   6.625   9.260
22741WAT      O68464   3.970   3.631   2.507
22741WAT     H168465   4.014   3.695   2.571
22741WAT     H268466   4.032   3.614   2.430
22742WAT      O68467   0.843   1.269   8.387
22742WAT     H168468   0.865   1.207   8.462
22742WAT     H268469   0.914   1.264   8.317
22743WAT      O68470   6.762   9.648   5.019
22743WAT     H168471   6.806   9.561   5.046
22743WAT     H268472   6.747   9.648   4.920
22744WAT      O68473   7.710   9.464   9.780
22744WAT     H168474   7.631   9.406   9.799
22744WAT     H268475   7.773   9.462   9.857
22745WAT      O68476   2.663   7.585   7.319
22745WAT     H168477   2.760   7.606   7.336
22745WAT     H268478   2.647   7.487   7.333
22746WAT      O68479   0.069   7.166   8.900
22746WAT     H168480   0.165   7.194   8.898
22746WAT     H268481   0.010   7.246   8.895
22747WAT      O68482   6.146   8.281   5.239
22747WAT     H168483   6.066   8.312   5.188
22747WAT     H268484   6.227   8.285   5.180
22748WAT      O68485   7.242   5.560   8.441
22748WAT     H168486   7.276   5.636   8.385
22748WAT     H268487   7.286   5.475   8.412
22749WAT      O68488   3.835   1.315   7.677
22749WAT     H168489   3.832   1.267   7.764
22749WAT     H268490   3.929   1.345   7.659
22750WAT      O68491   0.855   8.436   4.702
22750WAT     H168492   0.841   8.345   4.662
22750WAT     H268493   0.797   8.445   4.783
22751WAT      O68494   2.019   3.722   5.779
22751WAT     H168495   2.058   3.771   5.857
22751WAT     H268496   2.059   3.631   5.774
22752WAT      O68497   8.945   3.262   7.345
22752WAT     H168498   8.926   3.276   7.442
22752WAT     H268499   8.869   3.298   7.291
22753WAT      O68500   5.513   3.296   1.554
22753WAT     H168501   5.522   3.281   1.455
22753WAT     H268502   5.472   3.386   1.570
22754WAT      O68503   7.428   6.780   8.709
22754WAT     H168504   7.358   6.809   8.775
22754WAT     H268505   7.485   6.858   8.684
22755WAT      O68506   8.707   6.222   3.807
22755WAT     H168507   8.608   6.225   3.815
22755WAT     H268508   8.747   6.196   3.895
22756WAT      O68509   1.387   7.354   6.570
22756WAT     H168510   1.479   7.394   6.564
22756WAT     H268511   1.392   7.264   6.612
22757WAT      O68512   3.243   5.980   0.410
22757WAT     H168513   3.174   6.005   0.478
22757WAT     H268514   3.199   5.930   0.336
22758WAT      O68515   7.921   4.064   4.778
22758WAT     H168516   7.853   3.997   4.807
22758WAT     H268517   8.008   4.047   4.825
22759WAT      O68518   6.656   3.828   7.784
22759WAT     H168519   6.685   3.922   7.800
22759WAT     H268520   6.623   3.788   7.869
22760WAT      O68521   3.249   0.091   6.653
22760WAT     H168522   3.228   0.188   6.636
22760WAT     H268523   3.193   0.058   6.729
22761WAT      O68524   4.731   8.732   6.299
22761WAT     H168525   4.697   8.639   6.286
22761WAT     H268526   4.822   8.740   6.258
22762WAT      O68527   0.849   8.694   2.430
22762WAT     H168528   0.919   8.641   2.478
22762WAT     H268529   0.765   8.640   2.423
22763WAT      O68530   3.549   2.672   2.743
22763WAT     H168531   3.465   2.650   2.693
22763WAT     H268532   3.527   2.725   2.825
22764WAT      O68533   4.781   1.866   7.395
22764WAT     H168534   4.803   1.927   7.472
22764WAT     H268535   4.709   1.906   7.340
22765WAT      O68536   3.464   0.321   2.354
22765WAT     H168537   3.416   0.341   2.439
22765WAT     H268538   3.438   0.387   2.284
22766WAT      O68539   3.022   8.975   7.194
22766WAT     H168540   2.967   8.901   7.233
22766WAT     H268541   3.117   8.944   7.184
22767WAT      O68542   3.163   2.753   0.320
22767WAT     H168543   3.169   2.849   0.290
22767WAT     H268544   3.086   2.709   0.274
22768WAT      O68545   5.530   3.845   3.988
22768WAT     H168546   5.496   3.752   3.976
22768WAT     H268547   5.621   3.842   4.029
22769WAT      O68548   3.058   0.924   6.634
22769WAT     H168549   2.959   0.907   6.637
22769WAT     H268550   3.091   0.908   6.541
22770WAT      O68551   3.399   7.484   7.148
22770WAT     H168552   3.397   7.564   7.087
22770WAT     H268553   3.358   7.508   7.236
22771WAT      O68554   1.501   2.738   0.562
22771WAT     H168555   1.472   2.643   0.549
22771WAT     H268556   1.432   2.787   0.615
22772WAT      O68557   0.001   0.526   6.824
22772WAT     H168558   0.072   0.504   6.891
22772WAT     H268559   0.008   0.622   6.797
22773WAT      O68560   4.736   7.195   9.239
22773WAT     H168561   4.832   7.174   9.218
22773WAT     H268562   4.687   7.110   9.257
22774WAT      O68563   6.508   7.760   7.116
22774WAT     H168564   6.551   7.772   7.206
22774WAT     H268565   6.562   7.697   7.061
22775WAT      O68566   0.076   2.857   8.291
22775WAT     H168567   0.166   2.879   8.253
22775WAT     H268568   0.078   2.870   8.390
22776WAT      O68569   0.899   6.383   6.238
22776WAT     H168570   0.984   6.396   6.290
22776WAT     H268571   0.911   6.420   6.146
22777WAT      O68572   6.745   5.542   1.031
22777WAT     H168573   6.675   5.490   1.081
22777WAT     H268574   6.783   5.485   0.958
22778WAT      O68575   6.929   9.052   1.855
22778WAT     H168576   6.994   8.999   1.908
22778WAT     H268577   6.884   9.119   1.914
22779WAT      O68578   1.522   9.158   3.978
22779WAT     H168579   1.525   9.113   4.067
22779WAT     H268580   1.493   9.253   3.990
22780WAT      O68581   3.688   4.131   8.465
22780WAT     H168582   3.700   4.032   8.469
22780WAT     H268583   3.668   4.167   8.556
22781WAT      O68584   6.570   2.796   5.911
22781WAT     H168585   6.572   2.844   5.999
22781WAT     H268586   6.633   2.840   5.848
22782WAT      O68587   3.765   4.935   0.413
22782WAT     H168588   3.708   4.924   0.494
22782WAT     H268589   3.709   4.964   0.336
22783WAT      O68590   2.785   8.369   7.294
22783WAT     H168591   2.756   8.448   7.348
22783WAT     H268592   2.705   8.321   7.259
22784WAT      O68593   1.394   1.501   4.651
22784WAT     H168594   1.380   1.532   4.745
22784WAT     H268595   1.375   1.403   4.644
22785WAT      O68596   2.813   5.340   8.084
22785WAT     H168597   2.896   5.296   8.050
22785WAT     H268598   2.837   5.428   8.126
22786WAT      O68599   4.042   9.079   8.266
22786WAT     H168600   4.088   9.151   8.319
22786WAT     H268601   3.946   9.104   8.253
22787WAT      O68602   8.058   4.176   7.420
22787WAT     H168603   8.007   4.138   7.342
22787WAT     H268604   7.996   4.193   7.496
22788WAT      O68605   8.986   5.998   3.348
22788WAT     H168606   9.053   5.930   3.318
22788WAT     H268607   9.026   6.055   3.420
22789WAT      O68608   4.833   7.011   0.900
22789WAT     H168609   4.892   7.086   0.931
22789WAT     H268610   4.859   6.927   0.947
22790WAT      O68611   5.870   4.238   3.192
22790WAT     H168612   5.781   4.245   3.239
22790WAT     H268613   5.861   4.177   3.113
22791WAT      O68614   6.769   5.742   1.235
22791WAT     H168615   6.759   5.677   1.159
22791WAT     H268616   6.795   5.693   1.318
22792WAT      O68617   6.542   3.625   3.405
22792WAT     H168618   6.473   3.697   3.403
22792WAT     H268619   6.564   3.598   3.311
22793WAT      O68620   2.988   6.009   2.666
22793WAT     H168621   2.924   5.933   2.652
22793WAT     H268622   3.077   5.973   2.691
22794WAT      O68623   4.810   6.032   9.340
22794WAT     H168624   4.761   6.065   9.421
22794WAT     H268625   4.899   5.996   9.367
22795WAT      O68626   2.201   2.375   6.868
22795WAT     H168627   2.184   2.453   6.928
22795WAT     H268628   2.125   2.364   6.805
22796WAT      O68629   1.755   8.444   8.201
22796WAT     H168630   1.727   8.485   8.288
22796WAT     H268631   1.770   8.346   8.214
22797WAT      O68632   1.180   4.984   0.049
22797WAT     H168633   1.275   4.976   0.078
22797WAT     H268634   1.121   4.991   0.130
22798WAT      O68635   5.835   8.360   1.431
22798WAT     H168636   5.818   8.287   1.365
22798WAT     H268637   5.864   8.320   1.518
22799WAT      O68638   2.639   9.474   1.604
22799WAT     H168639   2.557   9.497   1.551
22799WAT     H268640   2.686   9.398   1.560
22800WAT      O68641   8.034   2.058   0.177
22800WAT     H168642   7.958   2.120   0.161
22800WAT     H268643   8.111   2.109   0.215
22801WAT      O68644   9.889   5.140   9.222
22801WAT     H168645   9.810   5.198   9.201
22801WAT     H268646   9.858   5.045   9.233
22802WAT      O68647   4.662   8.396   7.178
22802WAT     H168648   4.720   8.430   7.252
22802WAT     H268649   4.719   8.367   7.101
22803WAT      O68650   0.659   1.686   9.805
22803WAT     H168651   0.609   1.681   9.718
22803WAT     H268652   0.720   1.607   9.812
22804WAT      O68653   7.704   2.660   6.639
22804WAT     H168654   7.698   2.572   6.686
22804WAT     H268655   7.799   2.688   6.633
22805WAT      O68656   7.477   6.331   1.851
22805WAT     H168657   7.413   6.256   1.865
22805WAT     H268658   7.483   6.353   1.753
22806WAT      O68659   0.152   9.733   7.740
22806WAT     H168660   0.169   9.724   7.642
22806WAT     H268661   0.233   9.771   7.784
22807WAT      O68662   8.575   0.275   4.092
22807WAT     H168663   8.517   0.349   4.060
22807WAT     H268664   8.549   0.249   4.185
22808WAT      O68665   7.630   5.998   4.730
22808WAT     H168666   7.662   5.946   4.651
22808WAT     H268667   7.671   5.960   4.813
22809WAT      O68668   3.600   4.876   0.633
22809WAT     H168669   3.562   4.786   0.654
22809WAT     H268670   3.618   4.926   0.718
22810WAT      O68671   3.397   5.735   8.478
22810WAT     H168672   3.339   5.759   8.400
22810WAT     H268673   3.370   5.789   8.558
22811WAT      O68674   5.640   3.614   3.491
22811WAT     H168675   5.586   3.686   3.447
22811WAT     H268676   5.578   3.546   3.532
22812WAT      O68677   0.498   4.636   2.416
22812WAT     H168678   0.506   4.538   2.398
22812WAT     H268679   0.574   4.665   2.474
22813WAT      O68680   1.016   1.990   1.796
22813WAT     H168681   0.931   1.973   1.746
22813WAT     H268682   0.995   1.996   1.894
22814WAT      O68683   7.614   2.311   3.137
22814WAT     H168684   7.667   2.281   3.217
22814WAT     H268685   7.517   2.306   3.158
22815WAT      O68686   7.708   6.991   6.857
22815WAT     H168687   7.719   7.037   6.770
22815WAT     H268688   7.779   6.921   6.868
22816WAT      O68689   4.511   7.917   2.032
22816WAT     H168690   4.521   7.830   2.081
22816WAT     H268691   4.561   7.912   1.945
22817WAT      O68692   0.008   8.173   8.884
22817WAT     H168693  -0.026   8.179   8.978
22817WAT     H268694  -0.067   8.194   8.820
22818WAT      O68695   4.186   3.881   8.839
22818WAT     H168696   4.185   3.843   8.747
22818WAT     H268697   4.131   3.965   8.840
22819WAT      O68698   6.894   7.613   4.950
22819WAT     H168699   6.862   7.525   4.916
22819WAT     H268700   6.816   7.671   4.973
22820WAT      O68701   9.280   1.016   3.762
22820WAT     H168702   9.354   1.080   3.741
22820WAT     H268703   9.281   0.940   3.697
22821WAT      O68704   7.144   2.236   1.718
22821WAT     H168705   7.200   2.288   1.654
22821WAT     H268706   7.068   2.292   1.750
22822WAT      O68707   5.544   5.829   1.557
22822WAT     H168708   5.600   5.857   1.635
22822WAT     H268709   5.538   5.904   1.491
22823WAT      O68710   3.107   4.872   8.946
22823WAT     H168711   3.109   4.919   9.034
22823WAT     H268712   3.039   4.799   8.948
22824WAT      O68713   0.262   1.600   5.382
22824WAT     H168714   0.181   1.617   5.437
22824WAT     H268715   0.344   1.609   5.439
22825WAT      O68716   7.143   7.581   4.256
22825WAT     H168717   7.148   7.597   4.157
22825WAT     H268718   7.144   7.669   4.304
22826WAT      O68719   3.483   8.100   2.577
22826WAT     H168720   3.491   8.199   2.565
22826WAT     H268721   3.446   8.079   2.667
22827WAT      O68722   0.304   0.341   8.157
22827WAT     H168723   0.270   0.309   8.069
22827WAT     H268724   0.275   0.279   8.230
22828WAT      O68725   1.385   9.785   0.631
22828WAT     H168726   1.368   9.719   0.559
22828WAT     H268727   1.404   9.875   0.591
22829WAT      O68728   9.190   3.185   8.000
22829WAT     H168729   9.245   3.182   8.084
22829WAT     H268730   9.114   3.249   8.012
22830WAT      O68731   3.733   3.089   5.980
22830WAT     H168732   3.782   3.020   5.928
22830WAT     H268733   3.675   3.143   5.918
22831WAT      O68734   9.324   8.050   1.144
22831WAT     H168735   9.289   7.966   1.103
22831WAT     H268736   9.334   8.037   1.243
22832WAT      O68737   2.723   5.385   8.896
22832WAT     H168738   2.813   5.418   8.923
22832WAT     H268739   2.660   5.392   8.973
22833WAT      O68740   9.291   2.812   3.076
22833WAT     H168741   9.312   2.787   2.982
22833WAT     H268742   9.363   2.779   3.137
22834WAT      O68743   8.585   3.747   4.664
22834WAT     H168744   8.547   3.833   4.697
22834WAT     H268745   8.672   3.764   4.618
22835WAT      O68746   5.074   5.885   8.357
22835WAT     H168747   5.075   5.822   8.435
22835WAT     H268748   5.160   5.937   8.355
22836WAT      O68749   5.668   6.659   2.219
22836WAT     H168750   5.651   6.722   2.143
22836WAT     H268751   5.643   6.566   2.192
22837WAT      O68752   8.751   3.247   5.210
22837WAT     H168753   8.787   3.185   5.141
22837WAT     H268754   8.674   3.205   5.257
22838WAT      O68755   0.651   6.739   0.365
22838WAT     H168756   0.734   6.692   0.334
22838WAT     H268757   0.660   6.837   0.348
22839WAT      O68758   3.409   2.769   7.334
22839WAT     H168759   3.447   2.795   7.423
22839WAT     H268760   3.441   2.678   7.308
22840WAT      O68761   3.604   6.818   2.870
22840WAT     H168762   3.539   6.841   2.942
22840WAT     H268763   3.637   6.903   2.826
22841WAT      O68764   7.509   9.081   3.941
22841WAT     H168765   7.438   9.033   3.993
22841WAT     H268766   7.477   9.097   3.848
22842WAT      O68767   3.817   9.150   2.384
22842WAT     H168768   3.742   9.156   2.318
22842WAT     H268769   3.795   9.206   2.464
22843WAT      O68770   4.752   2.920   0.950
22843WAT     H168771   4.717   2.860   0.878
22843WAT     H268772   4.723   2.884   1.039
22844WAT      O68773   6.335   6.066   3.676
22844WAT     H168774   6.280   6.025   3.603
22844WAT     H268775   6.432   6.057   3.653
22845WAT      O68776   2.720   0.200   1.377
22845WAT     H168777   2.801   0.147   1.402
22845WAT     H268778   2.745   0.296   1.369
22846WAT      O68779   7.645   3.977   7.189
22846WAT     H168780   7.676   3.884   7.169
22846WAT     H268781   7.694   4.011   7.270
22847WAT      O68782   4.098   2.930   1.704
22847WAT     H168783   4.093   2.834   1.677
22847WAT     H268784   4.093   2.988   1.622
22848WAT      O68785   2.442   4.256   3.667
22848WAT     H168786   2.538   4.231   3.673
22848WAT     H268787   2.430   4.352   3.692
22849WAT      O68788   7.226   8.089   0.250
22849WAT     H168789   7.155   8.155   0.273
22849WAT     H268790   7.236   8.024   0.326
22850WAT      O68791   9.074   7.574   4.726
22850WAT     H168792   9.136   7.641   4.684
22850WAT     H268793   9.101   7.482   4.699
22851WAT      O68794   9.463   6.609   0.910
22851WAT     H168795   9.386   6.580   0.853
22851WAT     H268796   9.486   6.704   0.889
22852WAT      O68797   0.595   5.500   2.210
22852WAT     H168798   0.690   5.501   2.242
22852WAT     H268799   0.562   5.594   2.201
22853WAT      O68800   2.473   5.112   1.465
22853WAT     H168801   2.515   5.086   1.552
22853WAT     H268802   2.512   5.198   1.433
22854WAT      O68803   9.050   0.949   1.491
22854WAT     H168804   8.980   0.955   1.562
22854WAT     H268805   9.020   0.885   1.420
22855WAT      O68806   6.142   9.550   5.722
22855WAT     H168807   6.154   9.646   5.694
22855WAT     H268808   6.205   9.492   5.670
22856WAT      O68809   9.395   7.778   1.807
22856WAT     H168810   9.398   7.680   1.830
22856WAT     H268811   9.348   7.828   1.880
22857WAT      O68812   9.562   2.898   9.222
22857WAT     H168813   9.644   2.947   9.189
22857WAT     H268814   9.486   2.915   9.159
22858WAT      O68815   7.008   6.726   7.071
22858WAT     H168816   7.063   6.804   7.100
22858WAT     H268817   7.064   6.662   7.019
22859WAT      O68818   3.047   2.298   6.922
22859WAT     H168819   2.984   2.256   6.856
22859WAT     H268820   3.117   2.351   6.873
22860WAT      O68821   0.791   3.294   8.752
22860WAT     H168822   0.751   3.338   8.671
22860WAT     H268823   0.874   3.246   8.726
22861WAT      O68824   3.434   8.576   1.108
22861WAT     H168825   3.424   8.518   1.026
22861WAT     H268826   3.531   8.586   1.129
22862WAT      O68827   4.151   5.402   7.572
22862WAT     H168828   4.232   5.369   7.620
22862WAT     H268829   4.109   5.476   7.625
22863WAT      O68830   3.148   5.665   0.676
22863WAT     H168831   3.221   5.665   0.607
22863WAT     H268832   3.149   5.578   0.725
22864WAT      O68833   2.987   4.985   4.575
22864WAT     H168834   3.040   4.928   4.511
22864WAT     H268835   2.895   4.947   4.585
22865WAT      O68836   6.553   6.750   4.376
22865WAT     H168837   6.508   6.727   4.463
22865WAT     H268838   6.489   6.795   4.316
22866WAT      O68839   9.650   3.942   9.114
22866WAT     H168840   9.700   3.916   9.032
22866WAT     H268841   9.637   3.861   9.172
22867WAT      O68842   0.441   8.696   0.315
22867WAT     H168843   0.365   8.697   0.250
22867WAT     H268844   0.407   8.670   0.406
22868WAT      O68845   9.637   8.091   0.793
22868WAT     H168846   9.545   8.122   0.817
22868WAT     H268847   9.631   8.007   0.740
22869WAT      O68848   8.025   3.244   8.046
22869WAT     H168849   7.990   3.213   8.134
22869WAT     H268850   8.006   3.342   8.036
22870WAT      O68851   4.270   9.043   5.578
22870WAT     H168852   4.338   9.020   5.508
22870WAT     H268853   4.220   8.961   5.604
22871WAT      O68854   7.706   9.722   5.507
22871WAT     H168855   7.737   9.631   5.480
22871WAT     H268856   7.645   9.714   5.586
22872WAT      O68857   6.508   4.257   3.006
22872WAT     H168858   6.437   4.266   3.076
22872WAT     H268859   6.537   4.347   2.977
22873WAT      O68860   0.976   9.450   8.170
22873WAT     H168861   0.936   9.358   8.178
22873WAT     H268862   0.903   9.518   8.176
22874WAT      O68863   3.857   2.084   7.176
22874WAT     H168864   3.841   2.001   7.229
22874WAT     H268865   3.901   2.061   7.090
22875WAT      O68866   6.175   5.360   4.862
22875WAT     H168867   6.255   5.346   4.804
22875WAT     H268868   6.182   5.450   4.907
22876WAT      O68869   1.802   0.066   4.526
22876WAT     H168870   1.770   0.006   4.599
22876WAT     H268871   1.734   0.068   4.453
22877WAT      O68872   9.520   6.871   0.916
22877WAT     H168873   9.550   6.877   0.820
22877WAT     H268874   9.542   6.956   0.963
22878WAT      O68875   4.234   1.320   8.400
22878WAT     H168876   4.246   1.252   8.327
22878WAT     H268877   4.282   1.289   8.482
22879WAT      O68878   6.654   1.896   6.211
22879WAT     H168879   6.561   1.933   6.207
22879WAT     H268880   6.720   1.969   6.190
22880WAT      O68881   7.290   4.863   7.591
22880WAT     H168882   7.220   4.827   7.530
22880WAT     H268883   7.248   4.889   7.678
22881WAT      O68884   6.031   1.885   4.809
22881WAT     H168885   6.009   1.791   4.784
22881WAT     H268886   5.969   1.916   4.881
22882WAT      O68887   0.827   0.212   3.456
22882WAT     H168888   0.773   0.200   3.372
22882WAT     H268889   0.862   0.305   3.460
22883WAT      O68890   6.616   7.085   8.637
22883WAT     H168891   6.651   6.993   8.620
22883WAT     H268892   6.628   7.108   8.734
22884WAT      O68893   3.667   2.553   4.192
22884WAT     H168894   3.746   2.492   4.177
22884WAT     H268895   3.585   2.497   4.203
22885WAT      O68896   3.878   4.519   2.409
22885WAT     H168897   3.877   4.434   2.357
22885WAT     H268898   3.951   4.516   2.477
22886WAT      O68899   7.935   8.151   8.935
22886WAT     H168900   7.838   8.126   8.930
22886WAT     H268901   7.991   8.069   8.921
22887WAT      O68902   7.179   0.861   7.852
22887WAT     H168903   7.165   0.952   7.892
22887WAT     H268904   7.169   0.792   7.923
22888WAT      O68905   5.445   8.291   4.009
22888WAT     H168906   5.496   8.227   4.065
22888WAT     H268907   5.350   8.295   4.041
22889WAT      O68908   7.510   2.863   4.701
22889WAT     H168909   7.540   2.926   4.630
22889WAT     H268910   7.558   2.776   4.691
22890WAT      O68911   2.512   5.739   5.148
22890WAT     H168912   2.490   5.763   5.053
22890WAT     H268913   2.588   5.795   5.180
22891WAT      O68914   2.406   7.780   1.946
22891WAT     H168915   2.496   7.764   1.904
22891WAT     H268916   2.335   7.740   1.889
22892WAT      O68917   3.866   9.711   9.707
22892WAT     H168918   3.873   9.786   9.772
22892WAT     H268919   3.843   9.627   9.755
22893WAT      O68920   7.331   3.222   0.679
22893WAT     H168921   7.420   3.186   0.651
22893WAT     H268922   7.321   3.214   0.778
22894WAT      O68923   8.179   3.103   9.681
22894WAT     H168924   8.128   3.168   9.738
22894WAT     H268925   8.199   3.145   9.592
22895WAT      O68926   7.847   9.705   1.645
22895WAT     H168927   7.808   9.712   1.737
22895WAT     H268928   7.932   9.757   1.641
22896WAT      O68929   0.969   6.565   5.418
22896WAT     H168930   0.999   6.476   5.386
22896WAT     H268931   0.998   6.578   5.513
22897WAT      O68932   7.172   9.806   3.108
22897WAT     H168933   7.155   9.901   3.083
22897WAT     H268934   7.086   9.761   3.130
22898WAT      O68935   5.904   1.130   4.437
22898WAT     H168936   5.812   1.150   4.469
22898WAT     H268937   5.914   1.159   4.341
22899WAT      O68938   3.366   4.762   7.593
22899WAT     H168939   3.346   4.811   7.678
22899WAT     H268940   3.432   4.689   7.611
22900WAT      O68941   3.136   5.659   3.451
22900WAT     H168942   3.143   5.567   3.489
22900WAT     H268943   3.040   5.683   3.439
22901WAT      O68944   0.570   0.772   8.041
22901WAT     H168945   0.566   0.818   8.130
22901WAT     H268946   0.513   0.823   7.976
22902WAT      O68947   2.953   5.698   6.049
22902WAT     H168948   2.855   5.716   6.058
22902WAT     H268949   2.994   5.696   6.140
22903WAT      O68950   1.675   7.321   4.635
22903WAT     H168951   1.757   7.344   4.689
22903WAT     H268952   1.627   7.245   4.678
22904WAT      O68953   2.433   1.411   9.885
22904WAT     H168954   2.366   1.481   9.857
22904WAT     H268955   2.392   1.320   9.874
22905WAT      O68956   3.218   2.857   7.489
22905WAT     H168957   3.214   2.956   7.479
22905WAT     H268958   3.266   2.817   7.411
22906WAT      O68959   0.093   9.247   1.089
22906WAT     H168960   0.007   9.231   1.137
22906WAT     H268961   0.080   9.231   0.991
22907WAT      O68962   3.607   6.090   2.579
22907WAT     H168963   3.692   6.130   2.614
22907WAT     H268964   3.529   6.127   2.630
22908WAT      O68965   6.620   1.349   9.782
22908WAT     H168966   6.652   1.275   9.841
22908WAT     H268967   6.535   1.321   9.737
22909WAT      O68968   1.566   7.116   1.773
22909WAT     H168969   1.570   7.184   1.846
22909WAT     H268970   1.473   7.113   1.736
22910WAT      O68971   2.218   9.079   7.248
22910WAT     H168972   2.189   9.099   7.155
22910WAT     H268973   2.310   9.040   7.247
22911WAT      O68974   3.032   8.000   6.659
22911WAT     H168975   3.069   8.066   6.594
22911WAT     H268976   2.940   8.029   6.687
22912WAT      O68977   4.295   8.893   4.846
22912WAT     H168978   4.368   8.828   4.824
22912WAT     H268979   4.308   8.926   4.939
22913WAT      O68980   1.035   0.733   7.903
22913WAT     H168981   1.000   0.824   7.925
22913WAT     H268982   1.129   0.724   7.937
22914WAT      O68983   7.240   5.451   3.577
22914WAT     H168984   7.250   5.550   3.587
22914WAT     H268985   7.195   5.430   3.490
22915WAT      O68986   2.798   9.399   4.686
22915WAT     H168987   2.799   9.312   4.635
22915WAT     H268988   2.846   9.386   4.773
22916WAT      O68989   2.665   9.149   7.199
22916WAT     H168990   2.731   9.113   7.134
22916WAT     H268991   2.599   9.207   7.151
22917WAT      O68992   7.175   8.922   7.061
22917WAT     H168993   7.130   8.838   7.029
22917WAT     H268994   7.254   8.942   7.003
22918WAT      O68995   0.398   6.170   6.758
22918WAT     H168996   0.342   6.118   6.823
22918WAT     H268997   0.484   6.121   6.742
22919WAT      O68998   9.759   1.148   0.657
22919WAT     H168999   9.734   1.107   0.745
22919WAT     H269000   9.837   1.098   0.618
22920WAT      O69001   5.612   2.168   0.433
22920WAT     H169002   5.587   2.078   0.469
22920WAT     H269003   5.671   2.157   0.352
22921WAT      O69004   5.633   7.974   2.951
22921WAT     H169005   5.622   7.875   2.936
22921WAT     H269006   5.566   8.023   2.895
22922WAT      O69007   3.686   0.784   5.772
22922WAT     H169008   3.668   0.719   5.698
22922WAT     H269009   3.610   0.781   5.837
22923WAT      O69010   8.202   8.304   3.122
22923WAT     H169011   8.302   8.314   3.126
22923WAT     H269012   8.159   8.391   3.148
22924WAT      O69013   4.380   1.086   2.769
22924WAT     H169014   4.477   1.075   2.749
22924WAT     H269015   4.326   1.037   2.700
22925WAT      O69016   2.042   3.948   0.185
22925WAT     H169017   2.005   3.862   0.151
22925WAT     H269018   2.030   3.952   0.285
22926WAT      O69019   7.809   7.881   7.526
22926WAT     H169020   7.796   7.974   7.492
22926WAT     H269021   7.794   7.816   7.452
22927WAT      O69022   6.640   2.006   8.156
22927WAT     H169023   6.563   1.948   8.184
22927WAT     H269024   6.721   1.982   8.210
22928WAT      O69025   6.998   7.896   8.048
22928WAT     H169026   7.000   7.953   7.965
22928WAT     H269027   7.050   7.941   8.120
22929WAT      O69028   7.379   8.953   7.918
22929WAT     H169029   7.345   9.028   7.974
22929WAT     H269030   7.332   8.869   7.943
22930WAT      O69031   8.806   8.971   3.491
22930WAT     H169032   8.815   8.871   3.496
22930WAT     H269033   8.810   8.999   3.395
22931WAT      O69034   8.704   3.927   2.775
22931WAT     H169035   8.787   3.871   2.772
22931WAT     H269036   8.627   3.872   2.807
22932WAT      O69037   2.567   2.393   3.524
22932WAT     H169038   2.552   2.462   3.453
22932WAT     H269039   2.486   2.387   3.583
22933WAT      O69040   4.936   1.912   8.035
22933WAT     H169041   4.840   1.898   8.059
22933WAT     H269042   4.975   1.826   8.002
22934WAT      O69043   5.588   3.869   5.727
22934WAT     H169044   5.519   3.933   5.691
22934WAT     H269045   5.639   3.829   5.651
22935WAT      O69046   6.283   7.195   9.056
22935WAT     H169047   6.235   7.280   9.077
22935WAT     H269048   6.380   7.214   9.044
22936WAT      O69049   1.604   7.033   9.639
22936WAT     H169050   1.566   6.989   9.558
22936WAT     H269051   1.647   6.965   9.698
22937WAT      O69052   5.238   6.204   7.729
22937WAT     H169053   5.267   6.262   7.805
22937WAT     H269054   5.306   6.207   7.656
22938WAT      O69055   4.631   5.821   8.801
22938WAT     H169056   4.730   5.825   8.817
22938WAT     H269057   4.614   5.808   8.703
22939WAT      O69058   3.129   6.819   5.264
22939WAT     H169059   3.219   6.823   5.307
22939WAT     H269060   3.140   6.819   5.164
22940WAT      O69061   4.651   7.025   7.813
22940WAT     H169062   4.667   6.933   7.848
22940WAT     H269063   4.739   7.073   7.803
22941WAT      O69064   8.489   0.011   9.520
22941WAT     H169065   8.475  -0.035   9.608
22941WAT     H269066   8.402   0.011   9.469
22942WAT      O69067   7.451   7.293   3.629
22942WAT     H169068   7.461   7.293   3.728
22942WAT     H269069   7.527   7.242   3.588
22943WAT      O69070   2.510   4.133   2.853
22943WAT     H169071   2.548   4.114   2.944
22943WAT     H269072   2.410   4.131   2.858
22944WAT      O69073   7.544   2.865   9.397
22944WAT     H169074   7.578   2.816   9.477
22944WAT     H269075   7.522   2.960   9.423
22945WAT      O69076   9.140   2.318   4.055
22945WAT     H169077   9.061   2.270   4.094
22945WAT     H269078   9.149   2.294   3.959
22946WAT      O69079   1.871   3.811   0.991
22946WAT     H169080   1.813   3.891   1.007
22946WAT     H269081   1.922   3.823   0.906
22947WAT      O69082   8.088   5.739   3.968
22947WAT     H169083   8.149   5.727   4.046
22947WAT     H269084   8.143   5.746   3.884
22948WAT      O69085   4.662   7.005   4.912
22948WAT     H169086   4.646   6.976   4.817
22948WAT     H269087   4.748   6.966   4.944
22949WAT      O69088   2.939   8.127   2.248
22949WAT     H169089   2.929   8.219   2.209
22949WAT     H269090   2.907   8.128   2.343
22950WAT      O69091   7.903   3.028   6.221
22950WAT     H169092   7.860   3.118   6.210
22950WAT     H269093   7.831   2.958   6.230
22951WAT      O69094   7.085   0.342   9.153
22951WAT     H169095   7.053   0.326   9.246
22951WAT     H269096   7.184   0.332   9.149
22952WAT      O69097   6.450   3.998   0.227
22952WAT     H169098   6.523   3.979   0.160
22952WAT     H269099   6.470   4.083   0.274
22953WAT      O69100   5.010   0.277   5.758
22953WAT     H169101   5.015   0.376   5.751
22953WAT     H269102   5.015   0.250   5.854
22954WAT      O69103   1.373   7.251   6.300
22954WAT     H169104   1.420   7.305   6.230
22954WAT     H269105   1.322   7.311   6.361
22955WAT      O69106   3.969   0.053   8.557
22955WAT     H169107   3.878   0.089   8.579
22955WAT     H269108   4.035   0.088   8.623
22956WAT      O69109   1.343   0.377   5.943
22956WAT     H169110   1.424   0.367   5.884
22956WAT     H269111   1.280   0.442   5.903
22957WAT      O69112   8.676   9.290   6.001
22957WAT     H169113   8.700   9.198   6.031
22957WAT     H269114   8.759   9.341   5.981
22958WAT      O69115   0.854   1.259   1.205
22958WAT     H169116   0.872   1.182   1.144
22958WAT     H269117   0.868   1.344   1.155
22959WAT      O69118   3.356   2.666   8.897
22959WAT     H169119   3.352   2.610   8.814
22959WAT     H269120   3.446   2.656   8.939
22960WAT      O69121   4.017   7.335   8.568
22960WAT     H169122   4.002   7.300   8.660
22960WAT     H269123   3.933   7.380   8.536
22961WAT      O69124   6.692   5.586   6.611
22961WAT     H169125   6.709   5.488   6.611
22961WAT     H269126   6.703   5.622   6.704
22962WAT      O69127   8.829   0.867   0.256
22962WAT     H169128   8.818   0.942   0.320
22962WAT     H269129   8.836   0.781   0.307
22963WAT      O69130   7.383   4.075   7.198
22963WAT     H169131   7.383   4.146   7.128
22963WAT     H269132   7.475   4.040   7.210
22964WAT      O69133   4.096   3.974   3.823
22964WAT     H169134   4.136   4.056   3.864
22964WAT     H269135   3.998   3.988   3.811
22965WAT      O69136   0.966   3.012   0.263
22965WAT     H169137   0.888   3.025   0.323
22965WAT     H269138   0.960   3.075   0.185
22966WAT      O69139   3.711   4.681   2.273
22966WAT     H169140   3.758   4.613   2.328
22966WAT     H269141   3.771   4.712   2.199
22967WAT      O69142   3.845   7.341   7.573
22967WAT     H169143   3.871   7.276   7.644
22967WAT     H269144   3.838   7.433   7.613
22968WAT      O69145   6.209   8.943   8.203
22968WAT     H169146   6.278   8.909   8.139
22968WAT     H269147   6.184   8.869   8.266
22969WAT      O69148   8.332   0.684   7.987
22969WAT     H169149   8.245   0.644   8.015
22969WAT     H269150   8.377   0.726   8.066
22970WAT      O69151   2.751   6.328   0.312
22970WAT     H169152   2.831   6.270   0.298
22970WAT     H269153   2.668   6.274   0.301
22971WAT      O69154   2.938   5.539   4.459
22971WAT     H169155   2.955   5.629   4.419
22971WAT     H269156   2.841   5.531   4.483
22972WAT      O69157   2.308   5.922   5.344
22972WAT     H169158   2.208   5.918   5.332
22972WAT     H269159   2.350   5.953   5.259
22973WAT      O69160   0.360   0.010   7.911
22973WAT     H169161   0.449   0.055   7.914
22973WAT     H269162   0.288   0.079   7.911
22974WAT      O69163   3.527   8.989   0.093
22974WAT     H169164   3.456   9.016   0.028
22974WAT     H269165   3.614   9.029   0.066
22975WAT      O69166   3.759   6.196   3.706
22975WAT     H169167   3.683   6.260   3.718
22975WAT     H269168   3.812   6.221   3.625
22976WAT      O69169   4.491   6.126   7.404
22976WAT     H169170   4.525   6.036   7.376
22976WAT     H269171   4.395   6.119   7.430
22977WAT      O69172   6.659   2.947   3.939
22977WAT     H169173   6.641   2.947   4.037
22977WAT     H269174   6.758   2.942   3.923
22978WAT      O69175   1.978   6.420   5.758
22978WAT     H169176   1.905   6.478   5.795
22978WAT     H269177   1.977   6.424   5.658
22979WAT      O69178   7.961   2.668   2.468
22979WAT     H169179   7.966   2.721   2.553
22979WAT     H269180   8.012   2.583   2.478
22980WAT      O69181   0.460   1.852   6.898
22980WAT     H169182   0.553   1.890   6.904
22980WAT     H269183   0.464   1.753   6.911
22981WAT      O69184   3.306   2.424   4.745
22981WAT     H169185   3.398   2.396   4.720
22981WAT     H269186   3.251   2.437   4.663
22982WAT      O69187   3.333   8.752   1.492
22982WAT     H169188   3.327   8.666   1.442
22982WAT     H269189   3.411   8.749   1.555
22983WAT      O69190   1.269   7.618   6.928
22983WAT     H169191   1.273   7.652   6.834
22983WAT     H269192   1.360   7.585   6.955
22984WAT      O69193   2.854   8.847   2.440
22984WAT     H169194   2.809   8.815   2.357
22984WAT     H269195   2.946   8.879   2.418
22985WAT      O69196   1.257   3.878   8.752
22985WAT     H169197   1.256   3.868   8.652
22985WAT     H269198   1.173   3.839   8.790
22986WAT      O69199   3.296   1.630   7.427
22986WAT     H169200   3.326   1.543   7.465
22986WAT     H269201   3.342   1.705   7.474
22987WAT      O69202   9.882   4.067   7.035
22987WAT     H169203   9.942   4.109   6.967
22987WAT     H269204   9.916   3.976   7.059
22988WAT      O69205   2.707   3.551   2.473
22988WAT     H169206   2.797   3.536   2.513
22988WAT     H269207   2.641   3.574   2.545
22989WAT      O69208   1.148   2.673   4.787
22989WAT     H169209   1.074   2.692   4.723
22989WAT     H269210   1.161   2.752   4.847
22990WAT      O69211   2.867   8.683   8.346
22990WAT     H169212   2.775   8.722   8.333
22990WAT     H269213   2.862   8.583   8.344
22991WAT      O69214   0.270   4.922   7.023
22991WAT     H169215   0.273   4.891   7.118
22991WAT     H269216   0.292   4.846   6.962
22992WAT      O69217   5.405   8.301   6.580
22992WAT     H169218   5.464   8.316   6.660
22992WAT     H269219   5.410   8.205   6.552
22993WAT      O69220   7.600   4.193   1.300
22993WAT     H169221   7.522   4.152   1.253
22993WAT     H269222   7.570   4.228   1.389
22994WAT      O69223   5.100   8.026   2.262
22994WAT     H169224   5.145   7.949   2.308
22994WAT     H269225   5.149   8.047   2.177
22995WAT      O69226   0.356   9.312   0.256
22995WAT     H169227   0.333   9.292   0.351
22995WAT     H269228   0.444   9.271   0.233
22996WAT      O69229   1.616   5.144   0.373
22996WAT     H169230   1.663   5.057   0.356
22996WAT     H269231   1.648   5.212   0.307
22997WAT      O69232   3.073   3.054   5.601
22997WAT     H169233   2.977   3.071   5.577
22997WAT     H269234   3.086   3.071   5.699
22998WAT      O69235   1.712   5.477   1.574
22998WAT     H169236   1.799   5.494   1.529
22998WAT     H269237   1.700   5.543   1.649
22999WAT      O69238   5.142   8.971   8.992
22999WAT     H169239   5.147   8.972   8.892
22999WAT     H269240   5.234   8.974   9.030
23000WAT      O69241   4.201   0.626   5.796
23000WAT     H169242   4.281   0.606   5.739
23000WAT     H269243   4.228   0.627   5.892
23001WAT      O69244   2.492   9.723   4.558
23001WAT     H169245   2.399   9.704   4.589
23001WAT     H269246   2.490   9.767   4.469
23002WAT      O69247   2.614   9.136   2.835
23002WAT     H169248   2.555   9.084   2.897
23002WAT     H269249   2.607   9.098   2.743
23003WAT      O69250   4.520   7.562   9.376
23003WAT     H169251   4.431   7.535   9.341
23003WAT     H269252   4.509   7.636   9.443
23004WAT      O69253   9.845   9.642   9.810
23004WAT     H169254   9.855   9.724   9.867
23004WAT     H269255   9.767   9.652   9.749
23005WAT      O69256   8.084   0.466   3.913
23005WAT     H169257   7.993   0.458   3.953
23005WAT     H269258   8.095   0.558   3.874
23006WAT      O69259   6.346   0.866   8.697
23006WAT     H169260   6.277   0.934   8.672
23006WAT     H269261   6.433   0.911   8.715
23007WAT      O69262   2.109   0.128   0.053
23007WAT     H169263   2.066   0.129  -0.037
23007WAT     H269264   2.039   0.135   0.124
23008WAT      O69265   7.497   1.649   6.191
23008WAT     H169266   7.493   1.683   6.285
23008WAT     H269267   7.465   1.554   6.189
23009WAT      O69268   8.039   1.493   5.063
23009WAT     H169269   8.025   1.546   5.146
23009WAT     H269270   8.119   1.527   5.014
23010WAT      O69271   0.455   3.622   8.061
23010WAT     H169272   0.433   3.583   7.971
23010WAT     H269273   0.535   3.681   8.054
23011WAT      O69274   4.547   5.256   3.655
23011WAT     H169275   4.573   5.199   3.577
23011WAT     H269276   4.619   5.251   3.725
23012WAT      O69277   8.587   1.102   2.013
23012WAT     H169278   8.554   1.141   1.927
23012WAT     H269279   8.683   1.079   2.005
23013WAT      O69280   0.083   2.411   3.434
23013WAT     H169281   0.084   2.401   3.335
23013WAT     H269282   0.018   2.483   3.460
23014WAT      O69283   7.941   7.752   8.560
23014WAT     H169284   8.020   7.782   8.506
23014WAT     H269285   7.880   7.830   8.576
23015WAT      O69286   9.395   2.773   1.271
23015WAT     H169287   9.371   2.870   1.265
23015WAT     H269288   9.348   2.733   1.350
23016WAT      O69289   3.466   9.704   2.511
23016WAT     H169290   3.391   9.745   2.458
23016WAT     H269291   3.537   9.773   2.526
23017WAT      O69292   2.053   4.723   6.314
23017WAT     H169293   1.991   4.708   6.391
23017WAT     H269294   2.106   4.806   6.329
23018WAT      O69295   0.626   0.579   7.094
23018WAT     H169296   0.701   0.636   7.129
23018WAT     H269297   0.622   0.587   6.995
23019WAT      O69298   4.782   1.552   2.594
23019WAT     H169299   4.791   1.530   2.497
23019WAT     H269300   4.720   1.630   2.605
23020WAT      O69301   2.946   4.622   1.303
23020WAT     H169302   2.885   4.640   1.379
23020WAT     H269303   2.952   4.703   1.244
23021WAT      O69304   4.700   3.784   1.086
23021WAT     H169305   4.649   3.867   1.064
23021WAT     H269306   4.639   3.705   1.083
23022WAT      O69307   7.245   9.331   4.387
23022WAT     H169308   7.310   9.290   4.451
23022WAT     H269309   7.296   9.377   4.314
23023WAT      O69310   5.620   5.798   2.444
23023WAT     H169311   5.700   5.824   2.389
23023WAT     H269312   5.590   5.877   2.498
23024WAT      O69313   6.819   3.368   1.076
23024WAT     H169314   6.841   3.456   1.118
23024WAT     H269315   6.880   3.298   1.113
23025WAT      O69316   6.043   2.510   4.737
23025WAT     H169317   6.049   2.420   4.693
23025WAT     H269318   5.987   2.503   4.819
23026WAT      O69319   4.329   8.966   3.201
23026WAT     H169320   4.338   8.914   3.286
23026WAT     H269321   4.322   9.063   3.222
23027WAT      O69322   5.901   1.970   8.305
23027WAT     H169323   5.865   1.988   8.214
23027WAT     H269324   5.873   2.044   8.367
23028WAT      O69325   3.191   4.631   5.784
23028WAT     H169326   3.248   4.614   5.864
23028WAT     H269327   3.095   4.632   5.812
23029WAT      O69328   1.885   4.924   7.016
23029WAT     H169329   1.900   4.969   6.928
23029WAT     H269330   1.939   4.839   7.019
23030WAT      O69331   9.193   5.312   3.157
23030WAT     H169332   9.099   5.278   3.168
23030WAT     H269333   9.250   5.275   3.231
23031WAT      O69334   0.464   3.044   8.880
23031WAT     H169335   0.522   3.011   8.806
23031WAT     H269336   0.387   3.096   8.842
23032WAT      O69337   3.259   9.033   2.599
23032WAT     H169338   3.238   9.035   2.697
23032WAT     H269339   3.352   9.000   2.585
23033WAT      O69340   0.478   1.940   4.091
23033WAT     H169341   0.383   1.957   4.062
23033WAT     H269342   0.540   1.992   4.033
23034WAT      O69343   4.023   5.288   8.583
23034WAT     H169344   4.020   5.385   8.562
23034WAT     H269345   3.960   5.268   8.658
23035WAT      O69346   8.540   6.245   4.737
23035WAT     H169347   8.453   6.241   4.787
23035WAT     H269348   8.580   6.154   4.732
23036WAT      O69349   3.269   7.028   0.555
23036WAT     H169350   3.346   6.996   0.610
23036WAT     H269351   3.219   6.950   0.517
23037WAT      O69352   2.983   2.544   5.200
23037WAT     H169353   2.985   2.550   5.100
23037WAT     H269354   2.897   2.503   5.230
23038WAT      O69355   7.494   8.857   4.706
23038WAT     H169356   7.552   8.939   4.707
23038WAT     H269357   7.455   8.845   4.614
23039WAT      O69358   8.736   0.030   9.420
23039WAT     H169359   8.757  -0.063   9.388
23039WAT     H269360   8.646   0.031   9.463
23040WAT      O69361   8.700   3.389   3.307
23040WAT     H169362   8.794   3.355   3.313
23040WAT     H269363   8.637   3.312   3.295
23041WAT      O69364   3.658   3.040   7.562
23041WAT     H169365   3.746   3.005   7.531
23041WAT     H269366   3.608   2.968   7.611
23042WAT      O69367   8.497   5.187   0.803
23042WAT     H169368   8.462   5.094   0.804
23042WAT     H269369   8.516   5.217   0.897
23043WAT      O69370   7.267   4.692   3.921
23043WAT     H169371   7.358   4.654   3.906
23043WAT     H269372   7.268   4.790   3.902
23044WAT      O69373   5.497   0.175   5.924
23044WAT     H169374   5.568   0.120   5.967
23044WAT     H269375   5.427   0.116   5.884
23045WAT      O69376   5.272   8.208   6.098
23045WAT     H169377   5.325   8.130   6.131
23045WAT     H269378   5.281   8.214   5.999
23046WAT      O69379   5.777   1.240   7.720
23046WAT     H169380   5.714   1.163   7.723
23046WAT     H269381   5.839   1.230   7.642
23047WAT      O69382   2.376   4.389   1.331
23047WAT     H169383   2.282   4.375   1.362
23047WAT     H269384   2.383   4.476   1.283
23048WAT      O69385   8.657   4.413   7.526
23048WAT     H169386   8.613   4.340   7.580
23048WAT     H269387   8.643   4.394   7.429
23049WAT      O69388   6.807   8.757   4.610
23049WAT     H169389   6.760   8.678   4.569
23049WAT     H269390   6.742   8.832   4.622
23050WAT      O69391   3.352   0.048   0.847
23050WAT     H169392   3.445   0.085   0.835
23050WAT     H269393   3.348  -0.004   0.932
23051WAT      O69394   7.240   7.348   5.914
23051WAT     H169395   7.277   7.421   5.971
23051WAT     H269396   7.243   7.262   5.965
23052WAT      O69397   9.128   2.699   1.126
23052WAT     H169398   9.193   2.749   1.183
23052WAT     H269399   9.155   2.706   1.030
23053WAT      O69400   6.869   5.564   2.726
23053WAT     H169401   6.796   5.618   2.767
23053WAT     H269402   6.849   5.467   2.736
23054WAT      O69403   5.500   2.309   7.389
23054WAT     H169404   5.421   2.253   7.414
23054WAT     H269405   5.504   2.317   7.289
23055WAT      O69406   3.616   3.260   7.162
23055WAT     H169407   3.559   3.272   7.244
23055WAT     H269408   3.699   3.315   7.171
23056WAT      O69409   1.963   3.842   9.694
23056WAT     H169410   1.891   3.853   9.625
23056WAT     H269411   1.943   3.761   9.749
23057WAT      O69412   1.816   6.973   3.618
23057WAT     H169413   1.758   6.969   3.699
23057WAT     H269414   1.769   7.023   3.545
23058WAT      O69415   7.030   2.237   4.292
23058WAT     H169416   6.951   2.283   4.252
23058WAT     H269417   7.068   2.172   4.226
23059WAT      O69418   8.099   0.447   5.605
23059WAT     H169419   8.124   0.415   5.697
23059WAT     H269420   8.103   0.370   5.541
23060WAT      O69421   0.391   0.427   5.637
23060WAT     H169422   0.477   0.465   5.604
23060WAT     H269423   0.410   0.348   5.695
23061WAT      O69424   5.125   9.389   1.723
23061WAT     H169425   5.215   9.411   1.685
23061WAT     H269426   5.133   9.379   1.822
23062WAT      O69427   3.893   1.321   7.237
23062WAT     H169428   3.896   1.401   7.178
23062WAT     H269429   3.986   1.288   7.253
23063WAT      O69430   5.118   0.944   0.153
23063WAT     H169431   5.076   0.952   0.063
23063WAT     H269432   5.160   0.853   0.162
23064WAT      O69433   3.684   6.722   4.483
23064WAT     H169434   3.639   6.803   4.521
23064WAT     H269435   3.663   6.642   4.539
23065WAT      O69436   2.534   5.950   9.830
23065WAT     H169437   2.622   5.904   9.821
23065WAT     H269438   2.495   5.932   9.921
23066WAT      O69439   0.041   3.845   7.900
23066WAT     H169440   0.028   3.934   7.943
23066WAT     H269441  -0.048   3.807   7.875
23067WAT      O69442   9.505   6.464   0.510
23067WAT     H169443   9.505   6.429   0.603
23067WAT     H269444   9.512   6.387   0.446
23068WAT      O69445   4.593   8.098   3.971
23068WAT     H169446   4.521   8.073   3.907
23068WAT     H269447   4.561   8.172   4.030
23069WAT      O69448   8.681   1.560   0.156
23069WAT     H169449   8.597   1.598   0.194
23069WAT     H269450   8.658   1.485   0.093
23070WAT      O69451   2.562   2.453   5.899
23070WAT     H169452   2.514   2.418   5.979
23070WAT     H269453   2.531   2.405   5.818
23071WAT      O69454   0.648   6.355   6.956
23071WAT     H169455   0.613   6.366   6.863
23071WAT     H269456   0.628   6.263   6.988
23072WAT      O69457   5.937   3.560   5.758
23072WAT     H169458   5.865   3.519   5.813
23072WAT     H269459   5.962   3.498   5.683
23073WAT      O69460   5.662   2.804   6.574
23073WAT     H169461   5.595   2.730   6.568
23073WAT     H269462   5.754   2.766   6.579
23074WAT      O69463   0.073   8.963   6.897
23074WAT     H169464   0.059   8.934   6.802
23074WAT     H269465   0.147   8.909   6.937
23075WAT      O69466   2.179   6.050   4.824
23075WAT     H169467   2.218   6.142   4.838
23075WAT     H269468   2.088   6.046   4.864
23076WAT      O69469   3.233   2.559   0.102
23076WAT     H169470   3.299   2.583   0.173
23076WAT     H269471   3.180   2.479   0.130
23077WAT      O69472   9.077   0.268   4.291
23077WAT     H169473   8.989   0.311   4.313
23077WAT     H269474   9.151   0.322   4.330
23078WAT      O69475   5.689   7.225   9.575
23078WAT     H169476   5.780   7.267   9.578
23078WAT     H269477   5.637   7.253   9.656
23079WAT      O69478   6.671   8.454   6.438
23079WAT     H169479   6.763   8.421   6.416
23079WAT     H269480   6.634   8.401   6.514
23080WAT      O69481   6.364   1.583   4.403
23080WAT     H169482   6.278   1.622   4.371
23080WAT     H269483   6.422   1.560   4.325
23081WAT      O69484   8.502   7.125   8.201
23081WAT     H169485   8.597   7.148   8.223
23081WAT     H269486   8.454   7.099   8.284
23082WAT      O69487   9.194   5.151   3.562
23082WAT     H169488   9.103   5.173   3.527
23082WAT     H269489   9.185   5.106   3.651
23083WAT      O69490   8.663   8.381   0.173
23083WAT     H169491   8.613   8.443   0.113
23083WAT     H269492   8.759   8.408   0.176
23084WAT      O69493   7.906   5.383   5.456
23084WAT     H169494   7.969   5.356   5.529
23084WAT     H269495   7.823   5.422   5.496
23085WAT      O69496   0.658   1.806   7.734
23085WAT     H169497   0.654   1.753   7.819
23085WAT     H269498   0.701   1.750   7.663
23086WAT      O69499   8.748   7.191   5.075
23086WAT     H169500   8.820   7.193   5.145
23086WAT     H269501   8.659   7.183   5.119
23087WAT      O69502   2.430   0.697   5.439
23087WAT     H169503   2.399   0.636   5.366
23087WAT     H269504   2.412   0.792   5.412
23088WAT      O69505   6.409   2.663   5.503
23088WAT     H169506   6.479   2.604   5.544
23088WAT     H269507   6.440   2.692   5.412
23089WAT      O69508   6.056   0.980   1.226
23089WAT     H169509   6.028   1.057   1.169
23089WAT     H269510   6.138   0.938   1.187
23090WAT      O69511   2.561   6.120   5.617
23090WAT     H169512   2.569   6.027   5.580
23090WAT     H269513   2.576   6.186   5.544
23091WAT      O69514   6.123   0.539   7.819
23091WAT     H169515   6.153   0.635   7.820
23091WAT     H269516   6.182   0.486   7.759
23092WAT      O69517   8.668   0.949   3.901
23092WAT     H169518   8.675   0.849   3.909
23092WAT     H269519   8.718   0.979   3.820
23093WAT      O69520   8.640   8.387   2.096
23093WAT     H169521   8.541   8.379   2.107
23093WAT     H269522   8.677   8.298   2.068
23094WAT      O69523   0.560   7.582   5.289
23094WAT     H169524   0.659   7.585   5.273
23094WAT     H269525   0.536   7.653   5.355
23095WAT      O69526   9.736   2.360   1.569
23095WAT     H169527   9.750   2.382   1.473
23095WAT     H269528   9.771   2.435   1.626
23096WAT      O69529   3.548   9.200   8.256
23096WAT     H169530   3.553   9.299   8.267
23096WAT     H269531   3.569   9.156   8.344
23097WAT      O69532   7.912   7.213   9.232
23097WAT     H169533   8.004   7.187   9.202
23097WAT     H269534   7.918   7.273   9.312
23098WAT      O69535   5.122   9.655   9.300
23098WAT     H169536   5.082   9.565   9.315
23098WAT     H269537   5.064   9.725   9.341
23099WAT      O69538   3.852   1.650   3.209
23099WAT     H169539   3.904   1.718   3.261
23099WAT     H269540   3.768   1.627   3.259
23100WAT      O69541   5.425   7.322   5.047
23100WAT     H169542   5.409   7.223   5.042
23100WAT     H269543   5.503   7.339   5.107
23101WAT      O69544   3.805   8.448   4.560
23101WAT     H169545   3.859   8.416   4.638
23101WAT     H269546   3.708   8.451   4.586
23102WAT      O69547   5.482   2.727   2.264
23102WAT     H169548   5.568   2.776   2.249
23102WAT     H269549   5.458   2.730   2.361
23103WAT      O69550   6.351   5.049   0.980
23103WAT     H169551   6.413   5.090   1.047
23103WAT     H269552   6.329   5.117   0.910
23104WAT      O69553   5.312   4.113   6.597
23104WAT     H169554   5.339   4.081   6.688
23104WAT     H269555   5.391   4.153   6.551
23105WAT      O69556   8.601   0.790   3.535
23105WAT     H169557   8.516   0.841   3.527
23105WAT     H269558   8.670   0.846   3.580
23106WAT      O69559   1.247   5.791   3.750
23106WAT     H169560   1.182   5.771   3.677
23106WAT     H269561   1.231   5.883   3.786
23107WAT      O69562   8.083   7.804   1.287
23107WAT     H169563   8.110   7.860   1.365
23107WAT     H269564   8.142   7.723   1.282
23108WAT      O69565   0.054   3.815   6.798
23108WAT     H169566   0.145   3.823   6.758
23108WAT     H269567  -0.000   3.895   6.775
23109WAT      O69568   9.723   8.462   4.571
23109WAT     H169569   9.660   8.457   4.493
23109WAT     H269570   9.672   8.448   4.655
23110WAT      O69571   2.294   5.926   7.567
23110WAT     H169572   2.375   5.946   7.510
23110WAT     H269573   2.234   6.006   7.568
23111WAT      O69574   8.783   6.145   2.646
23111WAT     H169575   8.813   6.149   2.550
23111WAT     H269576   8.787   6.237   2.685
23112WAT      O69577   9.538   2.628   5.796
23112WAT     H169578   9.507   2.610   5.702
23112WAT     H269579   9.620   2.575   5.815
23113WAT      O69580   3.582   9.427   1.449
23113WAT     H169581   3.491   9.467   1.443
23113WAT     H269582   3.651   9.498   1.430
23114WAT      O69583   9.465   1.466   7.801
23114WAT     H169584   9.543   1.423   7.755
23114WAT     H269585   9.489   1.481   7.897
23115WAT      O69586   6.171   0.359   8.271
23115WAT     H169587   6.194   0.326   8.180
23115WAT     H269588   6.126   0.286   8.323
23116WAT      O69589   6.013   1.764   8.445
23116WAT     H169590   6.021   1.795   8.540
23116WAT     H269591   5.989   1.842   8.387
23117WAT      O69592   8.341   8.067   7.029
23117WAT     H169593   8.385   8.124   6.960
23117WAT     H269594   8.399   7.989   7.051
23118WAT      O69595   4.621   6.372   9.674
23118WAT     H169596   4.581   6.339   9.760
23118WAT     H269597   4.694   6.437   9.695
23119WAT      O69598   1.513   7.352   9.269
23119WAT     H169599   1.427   7.309   9.297
23119WAT     H269600   1.561   7.386   9.349
23120WAT      O69601   9.582   1.925   5.307
23120WAT     H169602   9.494   1.971   5.298
23120WAT     H269603   9.655   1.989   5.285
23121WAT      O69604   9.537   8.753   8.864
23121WAT     H169605   9.461   8.706   8.908
23121WAT     H269606   9.575   8.694   8.792
23122WAT      O69607   3.547   7.219   4.331
23122WAT     H169608   3.481   7.250   4.399
23122WAT     H269609   3.551   7.285   4.256
23123WAT      O69610   1.433   2.111   4.236
23123WAT     H169611   1.375   2.149   4.308
23123WAT     H269612   1.529   2.114   4.267
23124WAT      O69613   4.280   2.624   1.635
23124WAT     H169614   4.335   2.698   1.673
23124WAT     H269615   4.232   2.578   1.710
23125WAT      O69616   9.577   8.294   7.735
23125WAT     H169617   9.541   8.367   7.793
23125WAT     H269618   9.560   8.316   7.639
23126WAT      O69619   7.355   5.094   1.930
23126WAT     H169620   7.368   4.997   1.950
23126WAT     H269621   7.442   5.142   1.938
23127WAT      O69622   7.194   8.430   9.206
23127WAT     H169623   7.243   8.512   9.234
23127WAT     H269624   7.122   8.409   9.272
23128WAT      O69625   4.052   3.621   9.690
23128WAT     H169626   4.143   3.583   9.703
23128WAT     H269627   3.984   3.554   9.721
23129WAT      O69628   4.321   4.963   0.800
23129WAT     H169629   4.309   4.958   0.701
23129WAT     H269630   4.348   4.874   0.836
23130WAT      O69631   9.048   8.550   8.568
23130WAT     H169632   8.971   8.496   8.603
23130WAT     H269633   9.017   8.643   8.548
23131WAT      O69634   2.529   5.228   7.796
23131WAT     H169635   2.471   5.147   7.800
23131WAT     H269636   2.530   5.273   7.885
23132WAT      O69637   4.215   5.759   0.814
23132WAT     H169638   4.268   5.738   0.896
23132WAT     H269639   4.144   5.690   0.801
23133WAT      O69640   7.790   3.861   5.016
23133WAT     H169641   7.709   3.810   5.045
23133WAT     H269642   7.791   3.950   5.062
23134WAT      O69643   6.075   6.695   1.292
23134WAT     H169644   6.100   6.683   1.388
23134WAT     H269645   5.995   6.640   1.271
23135WAT      O69646   4.711   0.061   0.552
23135WAT     H169647   4.792   0.095   0.600
23135WAT     H269648   4.635   0.124   0.567
23136WAT      O69649   7.005   5.592   6.797
23136WAT     H169650   7.050   5.664   6.744
23136WAT     H269651   6.916   5.624   6.830
23137WAT      O69652   0.879   9.625   0.733
23137WAT     H169653   0.857   9.715   0.772
23137WAT     H269654   0.931   9.572   0.800
23138WAT      O69655   8.521   6.904   5.310
23138WAT     H169656   8.499   6.950   5.396
23138WAT     H269657   8.620   6.911   5.294
23139WAT      O69658   8.680   8.001   0.878
23139WAT     H169659   8.715   7.949   0.801
23139WAT     H269660   8.601   7.953   0.918
23140WAT      O69661   9.662   7.140   4.033
23140WAT     H169662   9.689   7.080   4.109
23140WAT     H269663   9.712   7.226   4.039
23141WAT      O69664   6.735   6.361   0.087
23141WAT     H169665   6.758   6.333  -0.007
23141WAT     H269666   6.813   6.410   0.126
23142WAT      O69667   8.734   5.804   4.574
23142WAT     H169668   8.818   5.770   4.531
23142WAT     H269669   8.696   5.733   4.633
23143WAT      O69670   3.957   5.801   6.280
23143WAT     H169671   4.055   5.815   6.267
23143WAT     H269672   3.941   5.709   6.314
23144WAT      O69673   1.887   7.733   6.747
23144WAT     H169674   1.984   7.727   6.770
23144WAT     H269675   1.868   7.822   6.706
23145WAT      O69676   0.599   1.866   1.328
23145WAT     H169677   0.609   1.892   1.232
23145WAT     H269678   0.680   1.814   1.357
23146WAT      O69679   8.063   4.875   5.437
23146WAT     H169680   8.136   4.897   5.372
23146WAT     H269681   8.029   4.960   5.477
23147WAT      O69682   1.629   0.289   2.676
23147WAT     H169683   1.598   0.194   2.675
23147WAT     H269684   1.582   0.340   2.604
23148WAT      O69685   7.524   6.944   0.093
23148WAT     H169686   7.505   6.898   0.180
23148WAT     H269687   7.471   6.900   0.020
23149WAT      O69688   3.249   9.420   2.417
23149WAT     H169689   3.289   9.443   2.328
23149WAT     H269690   3.205   9.331   2.412
23150WAT      O69691   0.834   4.119   5.737
23150WAT     H169692   0.735   4.110   5.729
23150WAT     H269693   0.868   4.174   5.660
23151WAT      O69694   3.586   4.816   4.509
23151WAT     H169695   3.682   4.817   4.481
23151WAT     H269696   3.565   4.902   4.557
23152WAT      O69697   9.125   6.856   5.633
23152WAT     H169698   9.119   6.947   5.672
23152WAT     H269699   9.092   6.788   5.699
23153WAT      O69700   8.049   9.830   6.297
23153WAT     H169701   8.062   9.905   6.233
23153WAT     H269702   8.073   9.860   6.390
23154WAT      O69703   4.327   8.203   9.024
23154WAT     H169704   4.353   8.279   8.964
23154WAT     H269705   4.245   8.158   8.988
23155WAT      O69706   3.124   2.520   5.412
23155WAT     H169707   3.059   2.504   5.487
23155WAT     H269708   3.074   2.524   5.326
23156WAT      O69709   5.230   7.521   6.186
23156WAT     H169710   5.329   7.533   6.189
23156WAT     H269711   5.185   7.604   6.219
23157WAT      O69712   0.629   0.075   4.686
23157WAT     H169713   0.660   0.053   4.593
23157WAT     H269714   0.591  -0.007   4.729
23158WAT      O69715   8.244   2.856   4.774
23158WAT     H169716   8.307   2.785   4.806
23158WAT     H269717   8.218   2.837   4.680
23159WAT      O69718   9.476   7.443   6.634
23159WAT     H169719   9.410   7.517   6.619
23159WAT     H269720   9.518   7.417   6.547
23160WAT      O69721   0.169   7.342   7.988
23160WAT     H169722   0.161   7.261   8.046
23160WAT     H269723   0.246   7.330   7.925
23161WAT      O69724   7.617   7.997   0.045
23161WAT     H169725   7.671   7.913   0.042
23161WAT     H269726   7.571   8.003   0.134
23162WAT      O69727   0.673   2.944   5.334
23162WAT     H169728   0.574   2.944   5.324
23162WAT     H269729   0.702   2.866   5.389
23163WAT      O69730   4.592   6.755   5.116
23163WAT     H169731   4.552   6.749   5.025
23163WAT     H269732   4.570   6.843   5.157
23164WAT      O69733   2.857   7.236   9.600
23164WAT     H169734   2.952   7.260   9.618
23164WAT     H269735   2.824   7.288   9.521
23165WAT      O69736   4.506   9.149   1.335
23165WAT     H169737   4.579   9.125   1.271
23165WAT     H269738   4.493   9.248   1.335
23166WAT      O69739   9.181   5.835   6.732
23166WAT     H169740   9.234   5.879   6.659
23166WAT     H269741   9.238   5.766   6.776
23167WAT      O69742   2.383   5.565   1.272
23167WAT     H169743   2.296   5.597   1.235
23167WAT     H269744   2.386   5.583   1.371
23168WAT      O69745   7.597   2.520   8.499
23168WAT     H169746   7.656   2.445   8.528
23168WAT     H269747   7.553   2.497   8.413
23169WAT      O69748   8.473   9.236   1.054
23169WAT     H169749   8.397   9.298   1.038
23169WAT     H269750   8.558   9.279   1.022
23170WAT      O69751   4.047   4.221   4.752
23170WAT     H169752   4.145   4.210   4.770
23170WAT     H269753   4.012   4.138   4.708
23171WAT      O69754   8.970   7.242   8.372
23171WAT     H169755   8.996   7.198   8.458
23171WAT     H269756   8.904   7.314   8.389
23172WAT      O69757   7.573   7.017   9.229
23172WAT     H169758   7.593   6.949   9.299
23172WAT     H269759   7.474   7.028   9.220
23173WAT      O69760   3.272   7.860   7.888
23173WAT     H169761   3.334   7.799   7.938
23173WAT     H269762   3.267   7.948   7.934
23174WAT      O69763   8.916   8.193   1.326
23174WAT     H169764   8.965   8.230   1.247
23174WAT     H269765   8.853   8.262   1.362
23175WAT      O69766   0.640   4.330   1.756
23175WAT     H169767   0.595   4.261   1.700
23175WAT     H269768   0.588   4.415   1.752
23176WAT      O69769   2.054   3.723   2.883
23176WAT     H169770   2.154   3.723   2.886
23176WAT     H269771   2.019   3.650   2.942
23177WAT      O69772   4.361   1.883   3.051
23177WAT     H169773   4.384   1.818   3.123
23177WAT     H269774   4.432   1.953   3.044
23178WAT      O69775   4.732   2.405   8.979
23178WAT     H169776   4.728   2.434   9.075
23178WAT     H269777   4.639   2.390   8.945
23179WAT      O69778   8.717   4.664   0.811
23179WAT     H169779   8.816   4.648   0.815
23179WAT     H269780   8.697   4.724   0.734
23180WAT      O69781   9.677   5.440   0.218
23180WAT     H169782   9.593   5.390   0.241
23180WAT     H269783   9.747   5.419   0.286
23181WAT      O69784   2.441   6.739   6.904
23181WAT     H169785   2.450   6.703   6.996
23181WAT     H269786   2.349   6.775   6.891
23182WAT      O69787   4.010   3.046   2.992
23182WAT     H169788   4.096   2.995   2.997
23182WAT     H269789   4.023   3.139   3.026
23183WAT      O69790   2.514   6.485   6.797
23183WAT     H169791   2.481   6.571   6.837
23183WAT     H269792   2.500   6.487   6.698
23184WAT      O69793   5.059   9.759   6.000
23184WAT     H169794   5.082   9.716   6.087
23184WAT     H269795   4.962   9.784   6.000
23185WAT      O69796   0.216   1.865   7.801
23185WAT     H169797   0.275   1.849   7.722
23185WAT     H269798   0.133   1.810   7.793
23186WAT      O69799   8.382   9.153   3.525
23186WAT     H169800   8.342   9.238   3.490
23186WAT     H269801   8.479   9.168   3.546
23187WAT      O69802   0.197   3.176   6.426
23187WAT     H169803   0.137   3.110   6.381
23187WAT     H269804   0.201   3.156   6.524
23188WAT      O69805   0.491   3.563   5.393
23188WAT     H169806   0.508   3.466   5.378
23188WAT     H269807   0.451   3.604   5.311
23189WAT      O69808   7.162   6.534   6.925
23189WAT     H169809   7.189   6.441   6.953
23189WAT     H269810   7.243   6.591   6.915
23190WAT      O69811   1.704   2.503   4.441
23190WAT     H169812   1.753   2.420   4.468
23190WAT     H269813   1.760   2.556   4.377
23191WAT      O69814   9.673   5.047   2.827
23191WAT     H169815   9.715   5.097   2.751
23191WAT     H269816   9.600   5.102   2.867
23192WAT      O69817   3.972   7.627   8.257
23192WAT     H169818   4.025   7.543   8.271
23192WAT     H269819   4.013   7.680   8.183
23193WAT      O69820   5.273   8.498   1.338
23193WAT     H169821   5.353   8.438   1.339
23193WAT     H269822   5.236   8.507   1.430
23194WAT      O69823   6.425   5.321   5.944
23194WAT     H169824   6.486   5.251   5.979
23194WAT     H269825   6.347   5.331   6.005
23195WAT      O69826   0.578   2.561   6.562
23195WAT     H169827   0.615   2.616   6.637
23195WAT     H269828   0.613   2.468   6.569
23196WAT      O69829   2.830   3.731   7.149
23196WAT     H169830   2.894   3.724   7.225
23196WAT     H269831   2.852   3.811   7.093
23197WAT      O69832   5.441   8.762   3.738
23197WAT     H169833   5.346   8.791   3.727
23197WAT     H269834   5.443   8.670   3.778
23198WAT      O69835   1.074   5.518   6.680
23198WAT     H169836   1.045   5.479   6.767
23198WAT     H269837   1.059   5.452   6.606
23199WAT      O69838   6.113   6.843   5.412
23199WAT     H169839   6.122   6.755   5.366
23199WAT     H269840   6.192   6.900   5.390
23200WAT      O69841   6.150   1.840   5.268
23200WAT     H169842   6.106   1.919   5.226
23200WAT     H269843   6.102   1.815   5.352
23201WAT      O69844   2.892   4.224   1.032
23201WAT     H169845   2.948   4.263   1.105
23201WAT     H269846   2.796   4.245   1.049
23202WAT      O69847   8.551   6.095   1.011
23202WAT     H169848   8.559   6.161   0.937
23202WAT     H269849   8.454   6.072   1.025
23203WAT      O69850   8.627   5.736   4.948
23203WAT     H169851   8.656   5.717   5.042
23203WAT     H269852   8.538   5.783   4.950
23204WAT      O69853   7.010   4.595   6.862
23204WAT     H169854   7.048   4.513   6.905
23204WAT     H269855   7.071   4.627   6.790
23205WAT      O69856   7.815   3.931   3.314
23205WAT     H169857   7.911   3.938   3.285
23205WAT     H269858   7.768   4.016   3.292
23206WAT      O69859   1.656   5.998   4.019
23206WAT     H169860   1.717   5.956   4.085
23206WAT     H269861   1.578   6.039   4.066
23207WAT      O69862   6.731   2.047   5.390
23207WAT     H169863   6.692   2.012   5.305
23207WAT     H269864   6.770   1.972   5.442
23208WAT      O69865   6.836   7.392   7.937
23208WAT     H169866   6.843   7.297   7.966
23208WAT     H269867   6.886   7.450   8.001
23209WAT      O69868   9.654   4.742   0.743
23209WAT     H169869   9.739   4.758   0.693
23209WAT     H269870   9.674   4.731   0.840
23210WAT      O69871   4.996   7.019   7.628
23210WAT     H169872   4.963   6.925   7.620
23210WAT     H269873   4.982   7.066   7.541
23211WAT      O69874   5.591   1.091   3.739
23211WAT     H169875   5.636   1.002   3.747
23211WAT     H269876   5.621   1.150   3.814
23212WAT      O69877   6.720   4.518   6.789
23212WAT     H169878   6.709   4.591   6.856
23212WAT     H269879   6.665   4.538   6.708
23213WAT      O69880   4.792   9.240   3.570
23213WAT     H169881   4.874   9.292   3.590
23213WAT     H269882   4.812   9.171   3.500
23214WAT      O69883   1.260   9.323   1.193
23214WAT     H169884   1.289   9.313   1.098
23214WAT     H269885   1.225   9.236   1.227
23215WAT      O69886   7.942   9.155   0.028
23215WAT     H169887   8.002   9.087   0.069
23215WAT     H269888   7.924   9.130  -0.067
23216WAT      O69889   7.830   2.855   0.352
23216WAT     H169890   7.876   2.771   0.323
23216WAT     H269891   7.743   2.833   0.395
23217WAT      O69892   3.283   6.741   0.775
23217WAT     H169893   3.267   6.747   0.676
23217WAT     H269894   3.358   6.802   0.800
23218WAT      O69895   9.471   7.087   3.191
23218WAT     H169896   9.438   7.009   3.245
23218WAT     H269897   9.440   7.172   3.233
23219WAT      O69898   2.277   7.741   4.499
23219WAT     H169899   2.264   7.643   4.517
23219WAT     H269900   2.219   7.768   4.422
23220WAT      O69901   5.033   6.908   4.026
23220WAT     H169902   4.980   6.987   4.055
23220WAT     H269903   4.986   6.824   4.054
23221WAT      O69904   3.445   2.207   2.199
23221WAT     H169905   3.438   2.223   2.297
23221WAT     H269906   3.365   2.245   2.153
23222WAT      O69907   3.176   0.851   5.085
23222WAT     H169908   3.156   0.777   5.021
23222WAT     H269909   3.130   0.935   5.055
23223WAT      O69910   2.056   2.890   0.188
23223WAT     H169911   2.084   2.927   0.277
23223WAT     H269912   2.112   2.811   0.166
23224WAT      O69913   9.173   2.516   3.110
23224WAT     H169914   9.267   2.534   3.140
23224WAT     H269915   9.112   2.585   3.149
23225WAT      O69916   7.441   8.718   5.999
23225WAT     H169917   7.439   8.774   6.082
23225WAT     H269918   7.367   8.651   6.002
23226WAT      O69919   4.376   6.320   1.143
23226WAT     H169920   4.375   6.233   1.194
23226WAT     H269921   4.443   6.315   1.070
23227WAT      O69922   0.394   9.355   5.590
23227WAT     H169923   0.488   9.328   5.569
23227WAT     H269924   0.333   9.277   5.577
23228WAT      O69925   5.898   6.211   9.457
23228WAT     H169926   5.969   6.227   9.525
23228WAT     H269927   5.937   6.218   9.365
23229WAT      O69928   3.017   1.916   0.599
23229WAT     H169929   3.046   1.942   0.692
23229WAT     H269930   3.096   1.917   0.539
23230WAT      O69931   1.816   3.312   0.926
23230WAT     H169932   1.867   3.262   0.997
23230WAT     H269933   1.881   3.361   0.867
23231WAT      O69934   6.119   3.282   6.850
23231WAT     H169935   6.107   3.352   6.779
23231WAT     H269936   6.142   3.195   6.806
23232WAT      O69937   3.326   2.376   9.812
23232WAT     H169938   3.321   2.452   9.878
23232WAT     H269939   3.341   2.413   9.721
23233WAT      O69940   4.029   5.031   2.660
23233WAT     H169941   3.966   4.953   2.657
23233WAT     H269942   4.122   4.998   2.677
23234WAT      O69943   2.078   6.313   0.219
23234WAT     H169944   2.096   6.225   0.174
23234WAT     H269945   1.979   6.327   0.224
23235WAT      O69946   5.924   2.238   1.778
23235WAT     H169947   6.011   2.199   1.748
23235WAT     H269948   5.849   2.177   1.752
23236WAT      O69949   4.661   6.252   2.168
23236WAT     H169950   4.709   6.168   2.191
23236WAT     H269951   4.707   6.296   2.091
23237WAT      O69952   1.171   7.383   5.157
23237WAT     H169953   1.178   7.402   5.059
23237WAT     H269954   1.186   7.285   5.173
23238WAT      O69955   8.782   4.920   4.518
23238WAT     H169956   8.881   4.923   4.503
23238WAT     H269957   8.740   5.002   4.479
23239WAT      O69958   3.306   1.301   0.349
23239WAT     H169959   3.227   1.240   0.344
23239WAT     H269960   3.296   1.362   0.428
23240WAT      O69961   7.864   4.370   0.109
23240WAT     H169962   7.883   4.356   0.012
23240WAT     H269963   7.773   4.411   0.120
23241WAT      O69964   6.458   2.868   2.130
23241WAT     H169965   6.405   2.797   2.084
23241WAT     H269966   6.437   2.957   2.088
23242WAT      O69967   3.032   9.719   3.389
23242WAT     H169968   3.081   9.789   3.440
23242WAT     H269969   2.961   9.679   3.447
23243WAT      O69970   6.672   0.922   9.061
23243WAT     H169971   6.702   0.982   9.135
23243WAT     H269972   6.645   0.976   8.982
23244WAT      O69973   0.336   4.617   9.410
23244WAT     H169974   0.429   4.648   9.387
23244WAT     H269975   0.326   4.613   9.510
23245WAT      O69976   7.038   7.430   5.440
23245WAT     H169977   7.043   7.514   5.494
23245WAT     H269978   7.065   7.448   5.346
23246WAT      O69979   5.630   5.413   1.618
23246WAT     H169980   5.629   5.321   1.579
23246WAT     H269981   5.619   5.407   1.717
23247WAT      O69982   9.838   2.059   9.166
23247WAT     H169983   9.878   2.149   9.181
23247WAT     H269984   9.812   2.019   9.255
23248WAT      O69985   0.723   6.534   9.082
23248WAT     H169986   0.790   6.464   9.056
23248WAT     H269987   0.755   6.624   9.052
23249WAT      O69988   5.805   9.848   4.074
23249WAT     H169989   5.788   9.810   4.165
23249WAT     H269990   5.790   9.777   4.005
23250WAT      O69991   2.795   4.010   0.899
23250WAT     H169992   2.744   3.959   0.969
23250WAT     H269993   2.821   4.100   0.935
23251WAT      O69994   6.279   6.352   0.698
23251WAT     H169995   6.187   6.325   0.671
23251WAT     H269996   6.274   6.420   0.771
23252WAT      O69997   3.032   9.307   3.538
23252WAT     H169998   3.025   9.278   3.633
23252WAT     H269999   2.946   9.350   3.509
23253WAT      O70000   4.900   3.305   9.474
23253WAT     H170001   4.805   3.281   9.454
23253WAT     H270002   4.926   3.384   9.419
23254WAT      O70003   1.011   9.431   5.359
23254WAT     H170004   0.979   9.423   5.454
23254WAT     H270005   1.085   9.366   5.344
23255WAT      O70006   5.060   2.745   0.663
23255WAT     H170007   5.045   2.842   0.684
23255WAT     H270008   5.150   2.717   0.697
23256WAT      O70009   4.833   3.822   2.745
23256WAT     H170010   4.850   3.918   2.767
23256WAT     H270011   4.920   3.777   2.722
23257WAT      O70012   6.954   3.405   3.019
23257WAT     H170013   6.931   3.453   3.104
23257WAT     H270014   7.029   3.453   2.973
23258WAT      O70015   5.072   0.474   6.643
23258WAT     H170016   5.071   0.386   6.690
23258WAT     H270017   5.023   0.542   6.698
23259WAT      O70018   8.716   9.796   4.636
23259WAT     H170019   8.638   9.739   4.610
23259WAT     H270020   8.715   9.812   4.734
23260WAT      O70021   4.869   1.568   7.017
23260WAT     H170022   4.794   1.632   7.033
23260WAT     H270023   4.854   1.521   6.930
23261WAT      O70024   0.771   5.244   4.999
23261WAT     H170025   0.746   5.188   5.078
23261WAT     H270026   0.703   5.233   4.927
23262WAT      O70027   4.606   1.757   9.637
23262WAT     H170028   4.610   1.743   9.736
23262WAT     H270029   4.695   1.789   9.604
23263WAT      O70030   1.526   9.544   7.741
23263WAT     H170031   1.537   9.471   7.809
23263WAT     H270032   1.460   9.611   7.775
23264WAT      O70033   3.877   6.783   0.926
23264WAT     H170034   3.944   6.749   0.992
23264WAT     H270035   3.803   6.830   0.974
23265WAT      O70036   2.799   2.818   4.695
23265WAT     H170037   2.857   2.737   4.706
23265WAT     H270038   2.760   2.819   4.604
23266WAT      O70039   5.887   8.698   3.027
23266WAT     H170040   5.919   8.603   3.023
23266WAT     H270041   5.796   8.701   3.068
23267WAT      O70042   8.646   9.835   4.001
23267WAT     H170043   8.654   9.865   4.096
23267WAT     H270044   8.736   9.813   3.965
23268WAT      O70045   2.408   1.268   5.767
23268WAT     H170046   2.406   1.330   5.845
23268WAT     H270047   2.497   1.221   5.763
23269WAT      O70048   7.532   7.035   2.815
23269WAT     H170049   7.528   6.963   2.746
23269WAT     H270050   7.495   7.001   2.901
23270WAT      O70051   7.298   7.840   7.946
23270WAT     H170052   7.218   7.809   7.896
23270WAT     H270053   7.304   7.940   7.940
23271WAT      O70054   3.387   0.875   1.831
23271WAT     H170055   3.450   0.953   1.824
23271WAT     H270056   3.339   0.878   1.918
23272WAT      O70057   7.192   8.524   9.562
23272WAT     H170058   7.240   8.579   9.494
23272WAT     H270059   7.146   8.448   9.518
23273WAT      O70060   1.269   4.909   7.370
23273WAT     H170061   1.365   4.930   7.389
23273WAT     H270062   1.210   4.968   7.425
23274WAT      O70063   7.833   5.472   1.609
23274WAT     H170064   7.839   5.372   1.618
23274WAT     H270065   7.854   5.514   1.697
23275WAT      O70066   4.483   8.849   6.709
23275WAT     H170067   4.571   8.816   6.674
23275WAT     H270068   4.431   8.772   6.746
23276WAT      O70069   7.605   3.733   1.581
23276WAT     H170070   7.660   3.813   1.557
23276WAT     H270071   7.522   3.762   1.628
23277WAT      O70072   7.226   1.941   5.940
23277WAT     H170073   7.262   1.848   5.937
23277WAT     H270074   7.198   1.964   6.033
23278WAT      O70075   7.092   6.507   0.812
23278WAT     H170076   7.100   6.604   0.833
23278WAT     H270077   7.123   6.453   0.891
23279WAT      O70078   3.304   4.518   8.935
23279WAT     H170079   3.299   4.523   8.836
23279WAT     H270080   3.219   4.479   8.972
23280WAT      O70081   0.238   0.499   9.333
23280WAT     H170082   0.204   0.591   9.313
23280WAT     H270083   0.197   0.433   9.270
23281WAT      O70084   9.158   7.128   0.389
23281WAT     H170085   9.157   7.030   0.369
23281WAT     H270086   9.105   7.177   0.320
23282WAT      O70087   8.932   3.018   4.248
23282WAT     H170088   8.990   2.980   4.319
23282WAT     H270089   8.952   2.974   4.160
23283WAT      O70090   9.030   2.310   5.354
23283WAT     H170091   9.073   2.225   5.325
23283WAT     H270092   9.084   2.388   5.321
23284WAT      O70093   8.508   4.564   1.622
23284WAT     H170094   8.562   4.546   1.540
23284WAT     H270095   8.412   4.577   1.596
23285WAT      O70096   4.701   1.666   8.564
23285WAT     H170097   4.612   1.622   8.554
23285WAT     H270098   4.692   1.764   8.548
23286WAT      O70099   0.148   0.671   7.176
23286WAT     H170100   0.154   0.580   7.134
23286WAT     H270101   0.235   0.719   7.163
23287WAT      O70102   9.699   4.206   8.821
23287WAT     H170103   9.789   4.195   8.778
23287WAT     H270104   9.710   4.229   8.917
23288WAT      O70105   3.330   1.891   2.676
23288WAT     H170106   3.385   1.872   2.594
23288WAT     H270107   3.347   1.984   2.707
23289WAT      O70108   6.105   8.147   7.415
23289WAT     H170109   6.123   8.050   7.429
23289WAT     H270110   6.096   8.192   7.503
23290WAT      O70111   2.396   1.725   9.725
23290WAT     H170112   2.401   1.717   9.626
23290WAT     H270113   2.338   1.653   9.762
23291WAT      O70114   9.422   0.605   4.785
23291WAT     H170115   9.457   0.531   4.842
23291WAT     H270116   9.460   0.692   4.817
23292WAT      O70117   3.860   0.897   6.421
23292WAT     H170118   3.946   0.847   6.408
23292WAT     H270119   3.793   0.836   6.463
23293WAT      O70120   8.504   9.279   5.409
23293WAT     H170121   8.570   9.318   5.473
23293WAT     H270122   8.552   9.217   5.346
23294WAT      O70123   9.733   2.580   3.444
23294WAT     H170124   9.652   2.597   3.388
23294WAT     H270125   9.753   2.662   3.498
23295WAT      O70126   6.521   4.252   4.908
23295WAT     H170127   6.612   4.225   4.878
23295WAT     H270128   6.511   4.233   5.006
23296WAT      O70129   0.287   4.363   1.905
23296WAT     H170130   0.325   4.421   1.978
23296WAT     H270131   0.226   4.418   1.848
23297WAT      O70132   8.008   9.806   5.182
23297WAT     H170133   7.928   9.856   5.150
23297WAT     H270134   8.002   9.792   5.281
23298WAT      O70135   4.090   2.259   8.584
23298WAT     H170136   4.068   2.297   8.674
23298WAT     H270137   4.153   2.182   8.596
23299WAT      O70138   1.877   2.309   6.486
23299WAT     H170139   1.969   2.314   6.525
23299WAT     H270140   1.817   2.261   6.550
23300WAT      O70141   4.885   7.401   6.385
23300WAT     H170142   4.868   7.440   6.294
23300WAT     H270143   4.983   7.384   6.396
23301WAT      O70144   1.921   2.497   5.576
23301WAT     H170145   2.000   2.532   5.526
23301WAT     H270146   1.866   2.573   5.608
23302WAT      O70147   5.401   0.879   1.674
23302WAT     H170148   5.411   0.881   1.575
23302WAT     H270149   5.330   0.814   1.700
23303WAT      O70150   6.087   9.311   0.499
23303WAT     H170151   6.039   9.396   0.479
23303WAT     H270152   6.028   9.253   0.556
23304WAT      O70153   2.871   5.302   5.475
23304WAT     H170154   2.883   5.222   5.416
23304WAT     H270155   2.807   5.280   5.548
23305WAT      O70156   0.200   7.991   4.048
23305WAT     H170157   0.249   7.979   4.134
23305WAT     H270158   0.141   7.912   4.032
23306WAT      O70159   5.784   2.154   6.717
23306WAT     H170160   5.794   2.231   6.655
23306WAT     H270161   5.702   2.166   6.772
23307WAT      O70162   4.012   6.718   9.399
23307WAT     H170163   3.962   6.694   9.482
23307WAT     H270164   4.003   6.643   9.333
23308WAT      O70165   0.112   0.889   0.905
23308WAT     H170166   0.185   0.878   0.973
23308WAT     H270167   0.098   0.986   0.887
23309WAT      O70168   3.210   3.197   3.358
23309WAT     H170169   3.181   3.223   3.266
23309WAT     H270170   3.253   3.275   3.404
23310WAT      O70171   5.210   5.293   8.061
23310WAT     H170172   5.281   5.227   8.035
23310WAT     H270173   5.130   5.243   8.095
23311WAT      O70174   4.559   6.538   2.427
23311WAT     H170175   4.470   6.505   2.457
23311WAT     H270176   4.548   6.607   2.357
23312WAT      O70177   8.077   6.968   1.499
23312WAT     H170178   8.122   6.879   1.496
23312WAT     H270179   8.006   6.972   1.429
23313WAT      O70180   6.785   2.247   5.009
23313WAT     H170181   6.868   2.194   5.028
23313WAT     H270182   6.705   2.197   5.044
23314WAT      O70183   5.008   3.355   8.671
23314WAT     H170184   4.980   3.434   8.726
23314WAT     H270185   5.064   3.294   8.727
23315WAT      O70186   9.670   5.551   8.915
23315WAT     H170187   9.575   5.580   8.928
23315WAT     H270188   9.730   5.631   8.919
23316WAT      O70189   1.906   5.462   2.100
23316WAT     H170190   1.919   5.418   2.012
23316WAT     H270191   1.826   5.423   2.146
23317WAT      O70192   8.110   4.771   0.274
23317WAT     H170193   8.100   4.671   0.272
23317WAT     H270194   8.082   4.809   0.186
23318WAT      O70195   8.646   7.192   7.196
23318WAT     H170196   8.616   7.264   7.134
23318WAT     H270197   8.584   7.188   7.275
23319WAT      O70198   8.629   4.245   5.899
23319WAT     H170199   8.651   4.279   5.808
23319WAT     H270200   8.659   4.150   5.907
23320WAT      O70201   6.014   9.063   0.035
23320WAT     H170202   6.085   9.063  -0.036
23320WAT     H270203   6.055   9.085   0.123
23321WAT      O70204   9.810   2.539   2.122
23321WAT     H170205   9.810   2.440   2.112
23321WAT     H270206   9.904   2.572   2.133
23322WAT      O70207   6.611   3.189   3.797
23322WAT     H170208   6.603   3.197   3.698
23322WAT     H270209   6.632   3.094   3.821
23323WAT      O70210   4.403   4.375   4.041
23323WAT     H170211   4.458   4.322   4.106
23323WAT     H270212   4.416   4.472   4.059
23324WAT      O70213   9.653   2.021   5.930
23324WAT     H170214   9.688   1.989   5.842
23324WAT     H270215   9.554   2.011   5.932
23325WAT      O70216   4.309   3.313   7.724
23325WAT     H170217   4.224   3.263   7.740
23325WAT     H270218   4.359   3.270   7.649
23326WAT      O70219   1.099   9.385   2.978
23326WAT     H170220   1.045   9.436   3.045
23326WAT     H270221   1.040   9.318   2.931
23327WAT      O70222   4.795   7.231   0.065
23327WAT     H170223   4.704   7.226   0.106
23327WAT     H270224   4.787   7.255  -0.032
23328WAT      O70225   3.613   4.649   8.204
23328WAT     H170226   3.644   4.575   8.144
23328WAT     H270227   3.662   4.733   8.183
23329WAT      O70228   7.609   4.827   6.696
23329WAT     H170229   7.686   4.764   6.691
23329WAT     H270230   7.582   4.853   6.603
23330WAT      O70231   1.461   9.200   2.358
23330WAT     H170232   1.468   9.167   2.264
23330WAT     H270233   1.434   9.296   2.358
23331WAT      O70234   8.611   4.705   9.083
23331WAT     H170235   8.526   4.727   9.131
23331WAT     H270236   8.591   4.643   9.007
23332WAT      O70237   8.386   1.204   0.320
23332WAT     H170238   8.378   1.113   0.280
23332WAT     H270239   8.332   1.269   0.266
23333WAT      O70240   1.717   6.441   8.863
23333WAT     H170241   1.769   6.362   8.830
23333WAT     H270242   1.640   6.459   8.801
23334WAT      O70243   8.329   1.871   5.203
23334WAT     H170244   8.414   1.859   5.151
23334WAT     H270245   8.334   1.818   5.287
23335WAT      O70246   4.812   6.554   4.529
23335WAT     H170247   4.730   6.573   4.475
23335WAT     H270248   4.893   6.585   4.478
23336WAT      O70249   2.799   5.476   7.378
23336WAT     H170250   2.782   5.394   7.432
23336WAT     H270251   2.884   5.520   7.409
23337WAT      O70252   0.789   8.762   3.200
23337WAT     H170253   0.768   8.779   3.296
23337WAT     H270254   0.732   8.822   3.143
23338WAT      O70255   7.183   6.395   4.592
23338WAT     H170256   7.229   6.460   4.652
23338WAT     H270257   7.249   6.329   4.556
23339WAT      O70258   0.814   8.904   6.934
23339WAT     H170259   0.836   8.921   7.030
23339WAT     H270260   0.884   8.945   6.876
23340WAT      O70261   7.887   0.331   2.571
23340WAT     H170262   7.930   0.355   2.483
23340WAT     H270263   7.860   0.235   2.569
23341WAT      O70264   4.894   8.016   1.249
23341WAT     H170265   4.841   7.932   1.236
23341WAT     H270266   4.935   8.044   1.162
23342WAT      O70267   3.268   8.629   9.836
23342WAT     H170268   3.170   8.609   9.835
23342WAT     H270269   3.298   8.656   9.745
23343WAT      O70270   8.110   8.393   2.857
23343WAT     H170271   8.194   8.425   2.813
23343WAT     H270272   8.132   8.355   2.947
23344WAT      O70273   5.739   8.604   9.547
23344WAT     H170274   5.809   8.656   9.497
23344WAT     H270275   5.649   8.643   9.530
23345WAT      O70276   8.743   9.014   6.067
23345WAT     H170277   8.831   8.985   6.105
23345WAT     H270278   8.730   8.973   5.977
23346WAT      O70279   2.064   2.259   3.717
23346WAT     H170280   2.066   2.184   3.652
23346WAT     H270281   2.115   2.235   3.799
23347WAT      O70282   4.652   0.207   5.007
23347WAT     H170283   4.564   0.211   4.961
23347WAT     H270284   4.644   0.148   5.088
23348WAT      O70285   0.770   4.732   1.988
23348WAT     H170286   0.758   4.777   1.900
23348WAT     H270287   0.831   4.653   1.978
23349WAT      O70288   7.655   8.712   4.884
23349WAT     H170289   7.585   8.732   4.816
23349WAT     H270290   7.668   8.792   4.943
23350WAT      O70291   2.072   1.295   4.761
23350WAT     H170292   2.059   1.323   4.666
23350WAT     H270293   2.146   1.229   4.766
23351WAT      O70294   9.240   1.224   3.348
23351WAT     H170295   9.314   1.227   3.414
23351WAT     H270296   9.277   1.208   3.256
23352WAT      O70297   8.348   3.153   0.784
23352WAT     H170298   8.279   3.084   0.804
23352WAT     H270299   8.401   3.173   0.867
23353WAT      O70300   8.299   2.305   9.407
23353WAT     H170301   8.311   2.368   9.330
23353WAT     H270302   8.208   2.264   9.402
23354WAT      O70303   4.287   9.295   8.776
23354WAT     H170304   4.197   9.263   8.807
23354WAT     H270305   4.282   9.392   8.753
23355WAT      O70306   6.633   4.726   2.907
23355WAT     H170307   6.683   4.650   2.948
23355WAT     H270308   6.537   4.700   2.895
23356WAT      O70309   5.816   7.608   2.553
23356WAT     H170310   5.751   7.682   2.540
23356WAT     H270311   5.861   7.618   2.641
23357WAT      O70312   5.426   3.858   1.692
23357WAT     H170313   5.379   3.895   1.772
23357WAT     H270314   5.410   3.760   1.685
23358WAT      O70315   1.490   5.181   2.278
23358WAT     H170316   1.532   5.118   2.344
23358WAT     H270317   1.413   5.135   2.233
23359WAT      O70318   1.200   8.917   5.533
23359WAT     H170319   1.109   8.930   5.494
23359WAT     H270320   1.249   9.004   5.531
23360WAT      O70321   6.977   6.518   4.804
23360WAT     H170322   7.060   6.463   4.818
23360WAT     H270323   6.897   6.467   4.835
23361WAT      O70324   6.282   6.661   1.962
23361WAT     H170325   6.296   6.750   1.917
23361WAT     H270326   6.274   6.590   1.893
23362WAT      O70327   0.630   2.618   6.169
23362WAT     H170328   0.628   2.620   6.069
23362WAT     H270329   0.704   2.557   6.199
23363WAT      O70330   8.988   3.878   8.463
23363WAT     H170331   9.039   3.827   8.532
23363WAT     H270332   8.954   3.815   8.393
23364WAT      O70333   6.696   5.286   4.286
23364WAT     H170334   6.643   5.357   4.239
23364WAT     H270335   6.755   5.240   4.220
23365WAT      O70336   6.288   9.665   2.181
23365WAT     H170337   6.387   9.651   2.181
23365WAT     H270338   6.245   9.595   2.123
23366WAT      O70339   6.732   4.546   1.675
23366WAT     H170340   6.665   4.475   1.695
23366WAT     H270341   6.818   4.525   1.722
23367WAT      O70342   9.216   5.564   5.078
23367WAT     H170343   9.120   5.590   5.091
23367WAT     H270344   9.221   5.472   5.041
23368WAT      O70345   8.658   6.643   4.119
23368WAT     H170346   8.559   6.649   4.128
23368WAT     H270347   8.686   6.547   4.115
23369WAT      O70348   9.606   7.768   9.728
23369WAT     H170349   9.589   7.729   9.638
23369WAT     H270350   9.685   7.722   9.770
23370WAT      O70351   9.131   5.624   2.107
23370WAT     H170352   9.057   5.572   2.151
23370WAT     H270353   9.113   5.629   2.009
23371WAT      O70354   2.942   3.258   2.310
23371WAT     H170355   2.969   3.165   2.285
23371WAT     H270356   2.959   3.272   2.408
23372WAT      O70357   9.426   5.006   7.769
23372WAT     H170358   9.448   4.950   7.690
23372WAT     H270359   9.417   4.948   7.850
23373WAT      O70360   7.700   0.610   6.992
23373WAT     H170361   7.647   0.693   7.012
23373WAT     H270362   7.794   0.623   7.022
23374WAT      O70363   7.489   3.861   0.254
23374WAT     H170364   7.530   3.774   0.225
23374WAT     H270365   7.523   3.886   0.344
23375WAT      O70366   4.032   7.144   6.252
23375WAT     H170367   4.070   7.091   6.176
23375WAT     H270368   4.016   7.238   6.222
23376WAT      O70369   1.496   4.264   7.952
23376WAT     H170370   1.529   4.196   7.887
23376WAT     H270371   1.453   4.218   8.030
23377WAT      O70372   7.368   8.598   7.774
23377WAT     H170373   7.442   8.658   7.801
23377WAT     H270374   7.291   8.608   7.837
23378WAT      O70375   3.154   5.858   0.186
23378WAT     H170376   3.192   5.808   0.108
23378WAT     H270377   3.058   5.877   0.169
23379WAT      O70378   5.933   5.600   0.063
23379WAT     H170379   5.851   5.657   0.068
23379WAT     H270380   6.011   5.652   0.097
23380WAT      O70381   9.310   0.839   1.609
23380WAT     H170382   9.230   0.853   1.551
23380WAT     H270383   9.352   0.751   1.589
23381WAT      O70384   8.581   4.200   3.734
23381WAT     H170385   8.548   4.243   3.650
23381WAT     H270386   8.521   4.123   3.757
23382WAT      O70387   3.999   6.190   5.841
23382WAT     H170388   4.004   6.094   5.867
23382WAT     H270389   3.904   6.213   5.818
23383WAT      O70390   3.573   3.011   0.116
23383WAT     H170391   3.633   2.982   0.191
23383WAT     H270392   3.482   3.030   0.153
23384WAT      O70393   2.773   3.474   2.986
23384WAT     H170394   2.816   3.517   3.066
23384WAT     H270395   2.675   3.491   2.988
23385WAT      O70396   7.812   3.640   5.543
23385WAT     H170397   7.911   3.656   5.540
23385WAT     H270398   7.764   3.727   5.556
23386WAT      O70399   4.959   5.323   0.567
23386WAT     H170400   5.050   5.317   0.608
23386WAT     H270401   4.910   5.237   0.582
23387WAT      O70402   0.442   6.763   5.750
23387WAT     H170403   0.352   6.783   5.710
23387WAT     H270404   0.455   6.818   5.832
23388WAT      O70405   8.663   8.661   2.812
23388WAT     H170406   8.640   8.645   2.717
23388WAT     H270407   8.606   8.735   2.848
23389WAT      O70408   2.616   1.532   5.348
23389WAT     H170409   2.581   1.450   5.303
23389WAT     H270410   2.545   1.602   5.350
23390WAT      O70411   3.675   4.570   9.379
23390WAT     H170412   3.637   4.535   9.465
23390WAT     H270413   3.714   4.661   9.395
23391WAT      O70414   3.353   0.947   5.634
23391WAT     H170415   3.387   1.014   5.568
23391WAT     H270416   3.284   0.890   5.590
23392WAT      O70417   6.804   3.121   1.437
23392WAT     H170418   6.805   3.197   1.503
23392WAT     H270419   6.756   3.043   1.478
23393WAT      O70420   7.055   8.737   9.176
23393WAT     H170421   7.010   8.652   9.199
23393WAT     H270422   6.999   8.814   9.207
23394WAT      O70423   3.194   5.758   5.621
23394WAT     H170424   3.155   5.669   5.641
23394WAT     H270425   3.161   5.825   5.687
23395WAT      O70426   2.539   2.069   4.428
23395WAT     H170427   2.601   2.035   4.499
23395WAT     H270428   2.579   2.051   4.338
23396WAT      O70429   5.306   3.660   9.130
23396WAT     H170430   5.331   3.754   9.152
23396WAT     H270431   5.212   3.643   9.162
23397WAT      O70432   2.440   5.212   8.699
23397WAT     H170433   2.472   5.275   8.628
23397WAT     H270434   2.516   5.190   8.760
23398WAT      O70435   0.105   4.212   4.998
23398WAT     H170436   0.198   4.188   5.026
23398WAT     H270437   0.044   4.202   5.077
23399WAT      O70438   5.480   8.451   8.783
23399WAT     H170439   5.576   8.481   8.785
23399WAT     H270440   5.466   8.390   8.705
23400WAT      O70441   8.625   7.495   8.164
23400WAT     H170442   8.570   7.575   8.144
23400WAT     H270443   8.585   7.445   8.241
23401WAT      O70444   4.127   9.501   0.593
23401WAT     H170445   4.143   9.542   0.682
23401WAT     H270446   4.052   9.549   0.547
23402WAT      O70447   5.898   1.189   4.152
23402WAT     H170448   5.799   1.199   4.136
23402WAT     H270449   5.927   1.097   4.126
23403WAT      O70450   2.547   3.846   7.909
23403WAT     H170451   2.564   3.752   7.881
23403WAT     H270452   2.574   3.858   8.005
23404WAT      O70453   9.701   7.619   7.702
23404WAT     H170454   9.608   7.635   7.735
23404WAT     H270455   9.736   7.533   7.741
23405WAT      O70456   1.065   3.743   1.010
23405WAT     H170457   1.152   3.784   0.986
23405WAT     H270458   1.078   3.647   1.035
23406WAT      O70459   8.790   1.539   1.965
23406WAT     H170460   8.875   1.589   1.984
23406WAT     H270461   8.778   1.531   1.866
23407WAT      O70462   5.996   5.437   6.244
23407WAT     H170463   5.972   5.386   6.327
23407WAT     H270464   5.912   5.474   6.203
23408WAT      O70465   8.286   4.600   5.422
23408WAT     H170466   8.245   4.587   5.331
23408WAT     H270467   8.316   4.695   5.432
23409WAT      O70468   0.975   1.036   4.529
23409WAT     H170469   0.939   1.044   4.436
23409WAT     H270470   0.993   0.940   4.551
23410WAT      O70471   5.819   0.323   3.740
23410WAT     H170472   5.774   0.333   3.651
23410WAT     H270473   5.827   0.227   3.763
23411WAT      O70474   7.626   0.280   1.441
23411WAT     H170475   7.636   0.367   1.393
23411WAT     H270476   7.713   0.257   1.486
23412WAT      O70477   6.435   1.931   3.368
23412WAT     H170478   6.345   1.974   3.361
23412WAT     H270479   6.502   1.985   3.317
23413WAT      O70480   2.641   1.791   9.152
23413WAT     H170481   2.627   1.833   9.062
23413WAT     H270482   2.675   1.698   9.139
23414WAT      O70483   5.893   0.194   4.930
23414WAT     H170484   5.857   0.281   4.899
23414WAT     H270485   5.876   0.124   4.861
23415WAT      O70486   6.279   8.417   5.559
23415WAT     H170487   6.228   8.350   5.505
23415WAT     H270488   6.243   8.417   5.653
23416WAT      O70489   4.153   6.568   2.200
23416WAT     H170490   4.166   6.665   2.182
23416WAT     H270491   4.156   6.517   2.113
23417WAT      O70492   3.153   8.763   9.234
23417WAT     H170493   3.077   8.743   9.296
23417WAT     H270494   3.144   8.708   9.150
23418WAT      O70495   5.531   0.656   4.941
23418WAT     H170496   5.448   0.694   4.980
23418WAT     H270497   5.592   0.730   4.913
23419WAT      O70498   6.935   9.455   1.087
23419WAT     H170499   6.995   9.535   1.080
23419WAT     H270500   6.894   9.452   1.178
23420WAT      O70501   1.426   7.181   6.782
23420WAT     H170502   1.395   7.089   6.761
23420WAT     H270503   1.347   7.238   6.809
23421WAT      O70504   3.861   7.655   5.381
23421WAT     H170505   3.853   7.584   5.311
23421WAT     H270506   3.774   7.704   5.389
23422WAT      O70507   5.497   3.539   4.989
23422WAT     H170508   5.497   3.453   5.041
23422WAT     H270509   5.403   3.571   4.977
23423WAT      O70510   1.963   7.514   7.508
23423WAT     H170511   1.936   7.535   7.602
23423WAT     H270512   1.986   7.599   7.461
23424WAT      O70513   9.382   4.816   1.915
23424WAT     H170514   9.413   4.723   1.936
23424WAT     H270515   9.296   4.834   1.962
23425WAT      O70516   6.909   5.334   4.854
23425WAT     H170517   6.900   5.403   4.927
23425WAT     H270518   6.825   5.333   4.800
23426WAT      O70519   7.220   3.500   7.334
23426WAT     H170520   7.260   3.519   7.244
23426WAT     H270521   7.265   3.556   7.403
23427WAT      O70522   8.993   6.555   9.503
23427WAT     H170523   9.013   6.652   9.492
23427WAT     H270524   8.925   6.542   9.576
23428WAT      O70525   8.970   4.355   3.431
23428WAT     H170526   9.002   4.381   3.340
23428WAT     H270527   8.886   4.301   3.422
23429WAT      O70528   7.131   9.441   7.338
23429WAT     H170529   7.033   9.460   7.345
23429WAT     H270530   7.160   9.450   7.243
23430WAT      O70531   2.448   7.580   8.683
23430WAT     H170532   2.385   7.534   8.621
23430WAT     H270533   2.435   7.546   8.776
23431WAT      O70534   8.963   2.629   7.830
23431WAT     H170535   9.051   2.582   7.835
23431WAT     H270536   8.938   2.662   7.921
23432WAT      O70537   2.724   0.346   4.072
23432WAT     H170538   2.686   0.371   3.983
23432WAT     H270539   2.821   0.325   4.062
23433WAT      O70540   2.576   4.386   5.258
23433WAT     H170541   2.516   4.460   5.228
23433WAT     H270542   2.594   4.395   5.356
23434WAT      O70543   1.328   5.799   9.683
23434WAT     H170544   1.254   5.770   9.744
23434WAT     H270545   1.317   5.757   9.594
23435WAT      O70546   2.872   9.052   5.769
23435WAT     H170547   2.929   9.115   5.822
23435WAT     H270548   2.775   9.077   5.782
23436WAT      O70549   7.178   2.341   2.132
23436WAT     H170550   7.203   2.245   2.140
23436WAT     H270551   7.253   2.398   2.166
23437WAT      O70552   2.217   1.266   3.442
23437WAT     H170553   2.207   1.219   3.530
23437WAT     H270554   2.134   1.253   3.388
23438WAT      O70555   2.135   0.321   3.393
23438WAT     H170556   2.192   0.262   3.450
23438WAT     H270557   2.068   0.369   3.450
23439WAT      O70558   1.609   7.686   1.029
23439WAT     H170559   1.685   7.642   0.981
23439WAT     H270560   1.634   7.701   1.125
23440WAT      O70561   4.602   3.304   1.602
23440WAT     H170562   4.662   3.316   1.523
23440WAT     H270563   4.616   3.213   1.641
23441WAT      O70564   8.287   6.790   5.256
23441WAT     H170565   8.371   6.842   5.271
23441WAT     H270566   8.221   6.811   5.328
23442WAT      O70567   2.793   7.247   6.739
23442WAT     H170568   2.861   7.298   6.793
23442WAT     H270569   2.701   7.277   6.765
23443WAT      O70570   4.889   6.437   5.450
23443WAT     H170571   4.831   6.508   5.490
23443WAT     H270572   4.873   6.432   5.352
23444WAT      O70573   6.410   9.809   5.287
23444WAT     H170574   6.484   9.807   5.354
23444WAT     H270575   6.377   9.903   5.276
23445WAT      O70576   4.129   2.447   9.762
23445WAT     H170577   4.167   2.522   9.817
23445WAT     H270578   4.138   2.361   9.813
23446WAT      O70579   3.640   3.171   9.128
23446WAT     H170580   3.670   3.262   9.100
23446WAT     H270581   3.697   3.139   9.204
23447WAT      O70582   2.094   8.669   6.739
23447WAT     H170583   2.077   8.702   6.832
23447WAT     H270584   2.188   8.637   6.731
23448WAT      O70585   4.031   8.771   4.909
23448WAT     H170586   3.995   8.732   4.823
23448WAT     H270587   4.120   8.814   4.891
23449WAT      O70588   3.333   7.775   3.607
23449WAT     H170589   3.237   7.753   3.588
23449WAT     H270590   3.344   7.797   3.704
23450WAT      O70591   8.611   2.169   3.626
23450WAT     H170592   8.621   2.078   3.666
23450WAT     H270593   8.694   2.193   3.575
23451WAT      O70594   0.360   6.542   3.595
23451WAT     H170595   0.405   6.565   3.682
23451WAT     H270596   0.330   6.446   3.598
23452WAT      O70597   1.543   7.501   3.565
23452WAT     H170598   1.583   7.584   3.604
23452WAT     H270599   1.609   7.426   3.573
23453WAT      O70600   2.459   6.373   8.450
23453WAT     H170601   2.440   6.284   8.409
23453WAT     H270602   2.495   6.435   8.379
23454WAT      O70603   9.355   1.900   9.597
23454WAT     H170604   9.451   1.922   9.581
23454WAT     H270605   9.338   1.804   9.578
23455WAT      O70606   6.965   6.755   3.596
23455WAT     H170607   6.904   6.694   3.546
23455WAT     H270608   7.053   6.762   3.549
23456WAT      O70609   8.000   6.057   6.069
23456WAT     H170610   8.049   5.995   6.009
23456WAT     H270611   8.024   6.152   6.047
23457WAT      O70612   5.747   7.269   8.588
23457WAT     H170613   5.816   7.339   8.574
23457WAT     H270614   5.724   7.264   8.685
23458WAT      O70615   3.334   8.818   7.915
23458WAT     H170616   3.287   8.816   7.826
23458WAT     H270617   3.395   8.897   7.917
23459WAT      O70618   9.796   1.761   0.158
23459WAT     H170619   9.813   1.714   0.244
23459WAT     H270620   9.880   1.765   0.104
23460WAT      O70621   2.476   3.248   4.392
23460WAT     H170622   2.576   3.248   4.393
23460WAT     H270623   2.442   3.250   4.485
23461WAT      O70624   0.769   5.050   6.106
23461WAT     H170625   0.706   5.101   6.048
23461WAT     H270626   0.729   4.961   6.129
23462WAT      O70627   1.975   3.579   4.079
23462WAT     H170628   1.917   3.618   4.150
23462WAT     H270629   1.918   3.554   4.000
23463WAT      O70630   1.931   0.576   6.774
23463WAT     H170631   1.850   0.615   6.817
23463WAT     H270632   1.920   0.577   6.674
23464WAT      O70633   0.280   5.683   3.474
23464WAT     H170634   0.328   5.642   3.552
23464WAT     H270635   0.254   5.611   3.410
23465WAT      O70636   7.663   5.805   2.394
23465WAT     H170637   7.672   5.708   2.414
23465WAT     H270638   7.617   5.817   2.306
23466WAT      O70639   4.195   2.825   2.698
23466WAT     H170640   4.284   2.800   2.661
23466WAT     H270641   4.128   2.755   2.674
23467WAT      O70642   5.004   9.649   6.699
23467WAT     H170643   5.001   9.563   6.749
23467WAT     H270644   4.914   9.695   6.705
23468WAT      O70645   1.876   9.532   7.787
23468WAT     H170646   1.964   9.543   7.834
23468WAT     H270647   1.802   9.556   7.850
23469WAT      O70648   9.717   2.533   9.355
23469WAT     H170649   9.728   2.510   9.452
23469WAT     H270650   9.631   2.583   9.342
23470WAT      O70651   2.184   3.640   0.373
23470WAT     H170652   2.136   3.618   0.458
23470WAT     H270653   2.122   3.631   0.296
23471WAT      O70654   7.239   9.188   7.936
23471WAT     H170655   7.204   9.130   7.862
23471WAT     H270656   7.309   9.248   7.900
23472WAT      O70657   0.030   4.769   8.460
23472WAT     H170658  -0.031   4.763   8.381
23472WAT     H270659  -0.024   4.756   8.544
23473WAT      O70660   4.251   2.705   6.459
23473WAT     H170661   4.220   2.655   6.378
23473WAT     H270662   4.326   2.766   6.433
23474WAT      O70663   4.769   5.218   8.385
23474WAT     H170664   4.851   5.179   8.426
23474WAT     H270665   4.722   5.149   8.331
23475WAT      O70666   1.009   6.358   7.801
23475WAT     H170667   0.957   6.321   7.725
23475WAT     H270668   0.962   6.339   7.887
23476WAT      O70669   2.566   2.696   9.020
23476WAT     H170670   2.662   2.698   9.047
23476WAT     H270671   2.527   2.788   9.028
23477WAT      O70672   1.128   8.191   8.487
23477WAT     H170673   1.061   8.126   8.523
23477WAT     H270674   1.191   8.218   8.560
23478WAT      O70675   0.058   1.920   1.170
23478WAT     H170676   0.066   1.880   1.079
23478WAT     H270677   0.036   1.848   1.236
23479WAT      O70678   0.768   8.741   5.955
23479WAT     H170679   0.714   8.804   5.899
23479WAT     H270680   0.707   8.686   6.011
23480WAT      O70681   4.959   3.374   2.868
23480WAT     H170682   4.864   3.390   2.894
23480WAT     H270683   5.005   3.321   2.939
23481WAT      O70684   0.116   5.080   4.156
23481WAT     H170685   0.173   5.099   4.236
23481WAT     H270686   0.123   4.983   4.132
23482WAT      O70687   7.309   1.947   6.714
23482WAT     H170688   7.317   2.016   6.786
23482WAT     H270689   7.363   1.867   6.739
23483WAT      O70690   3.907   1.886   8.191
23483WAT     H170691   3.896   1.790   8.164
23483WAT     H270692   3.967   1.891   8.271
23484WAT      O70693   6.913   4.815   3.336
23484WAT     H170694   6.950   4.764   3.414
23484WAT     H270695   6.917   4.759   3.254
23485WAT      O70696   7.596   3.099   7.596
23485WAT     H170697   7.604   3.010   7.640
23485WAT     H270698   7.521   3.151   7.638
23486WAT      O70699   1.156   0.902   6.152
23486WAT     H170700   1.094   0.826   6.170
23486WAT     H270701   1.132   0.945   6.065
23487WAT      O70702   1.353   1.270   9.728
23487WAT     H170703   1.260   1.266   9.690
23487WAT     H270704   1.418   1.239   9.659
23488WAT      O70705   2.707   1.525   7.433
23488WAT     H170706   2.774   1.578   7.381
23488WAT     H270707   2.700   1.433   7.393
23489WAT      O70708   1.600   6.360   6.228
23489WAT     H170709   1.644   6.295   6.291
23489WAT     H270710   1.502   6.363   6.247
23490WAT      O70711   2.038   5.876   6.535
23490WAT     H170712   2.124   5.826   6.520
23490WAT     H270713   1.961   5.812   6.532
23491WAT      O70714   1.804   6.315   0.264
23491WAT     H170715   1.763   6.267   0.341
23491WAT     H270716   1.760   6.287   0.179
23492WAT      O70717   6.227   7.400   5.584
23492WAT     H170718   6.151   7.462   5.564
23492WAT     H270719   6.295   7.406   5.511
23493WAT      O70720   5.209   5.803   2.292
23493WAT     H170721   5.302   5.805   2.255
23493WAT     H270722   5.149   5.855   2.232
23494WAT      O70723   6.786   4.635   8.117
23494WAT     H170724   6.811   4.731   8.127
23494WAT     H270725   6.726   4.624   8.037
23495WAT      O70726   4.433   3.718   6.947
23495WAT     H170727   4.494   3.796   6.936
23495WAT     H270728   4.469   3.657   7.017
23496WAT      O70729   6.501   9.527   7.664
23496WAT     H170730   6.567   9.585   7.712
23496WAT     H270731   6.549   9.467   7.600
23497WAT      O70732   1.840   2.957   1.551
23497WAT     H170733   1.793   2.901   1.620
23497WAT     H270734   1.821   2.919   1.460
23498WAT      O70735   2.863   3.277   0.376
23498WAT     H170736   2.840   3.337   0.299
23498WAT     H270737   2.815   3.308   0.458
23499WAT      O70738   7.733   4.871   9.207
23499WAT     H170739   7.759   4.967   9.215
23499WAT     H270740   7.816   4.814   9.206
23500WAT      O70741   7.073   1.475   5.300
23500WAT     H170742   7.083   1.574   5.306
23500WAT     H270743   6.976   1.452   5.298
23501WAT      O70744   4.335   7.184   7.108
23501WAT     H170745   4.432   7.160   7.110
23501WAT     H270746   4.324   7.276   7.070
23502WAT      O70747   3.557   9.716   1.379
23502WAT     H170748   3.465   9.686   1.404
23502WAT     H270749   3.596   9.769   1.454
23503WAT      O70750   4.363   8.536   4.494
23503WAT     H170751   4.364   8.636   4.492
23503WAT     H270752   4.286   8.505   4.549
23504WAT      O70753   1.239   6.847   8.175
23504WAT     H170754   1.147   6.820   8.149
23504WAT     H270755   1.266   6.929   8.124
23505WAT      O70756   5.647   7.118   7.048
23505WAT     H170757   5.636   7.162   7.137
23505WAT     H270758   5.661   7.020   7.062
23506WAT      O70759   1.478   1.033   5.080
23506WAT     H170760   1.567   1.028   5.126
23506WAT     H270761   1.483   0.981   4.995
23507WAT      O70762   7.042   8.446   0.609
23507WAT     H170763   6.962   8.496   0.577
23507WAT     H270764   7.125   8.492   0.578
23508WAT      O70765   8.301   4.517   3.235
23508WAT     H170766   8.233   4.481   3.297
23508WAT     H270767   8.301   4.464   3.150
23509WAT      O70768   9.051   0.889   9.360
23509WAT     H170769   9.120   0.958   9.384
23509WAT     H270770   8.962   0.933   9.351
23510WAT      O70771   7.005   3.295   2.432
23510WAT     H170772   6.959   3.284   2.344
23510WAT     H270773   7.088   3.239   2.433
23511WAT      O70774   5.539   8.751   8.483
23511WAT     H170775   5.542   8.651   8.482
23511WAT     H270776   5.597   8.785   8.557
23512WAT      O70777   7.725   4.416   4.525
23512WAT     H170778   7.653   4.429   4.457
23512WAT     H270779   7.752   4.506   4.562
23513WAT      O70780   9.020   7.282   2.613
23513WAT     H170781   8.939   7.223   2.612
23513WAT     H270782   9.018   7.341   2.532
23514WAT      O70783   2.159   0.209   9.445
23514WAT     H170784   2.161   0.219   9.346
23514WAT     H270785   2.125   0.293   9.487
23515WAT      O70786   3.022   5.836   2.202
23515WAT     H170787   3.057   5.881   2.120
23515WAT     H270788   2.959   5.763   2.176
23516WAT      O70789   6.244   0.362   8.001
23516WAT     H170790   6.189   0.441   7.974
23516WAT     H270791   6.264   0.306   7.921
23517WAT      O70792   3.599   0.787   8.306
23517WAT     H170793   3.608   0.745   8.216
23517WAT     H270794   3.636   0.880   8.303
23518WAT      O70795   4.432   5.557   8.426
23518WAT     H170796   4.381   5.524   8.347
23518WAT     H270797   4.368   5.573   8.502
23519WAT      O70798   0.795   7.946   7.733
23519WAT     H170799   0.747   7.863   7.762
23519WAT     H270800   0.760   8.024   7.785
23520WAT      O70801   6.357   7.138   0.139
23520WAT     H170802   6.273   7.153   0.190
23520WAT     H270803   6.410   7.222   0.136
23521WAT      O70804   1.292   7.534   7.920
23521WAT     H170805   1.375   7.538   7.864
23521WAT     H270806   1.255   7.626   7.932
23522WAT      O70807   8.108   4.961   1.274
23522WAT     H170808   8.065   5.026   1.212
23522WAT     H270809   8.038   4.906   1.320
23523WAT      O70810   2.357   9.240   4.222
23523WAT     H170811   2.397   9.148   4.221
23523WAT     H270812   2.429   9.307   4.203
23524WAT      O70813   5.524   8.133   8.950
23524WAT     H170814   5.496   8.153   8.856
23524WAT     H270815   5.443   8.127   9.008
23525WAT      O70816   2.001   1.877   0.350
23525WAT     H170817   2.058   1.919   0.280
23525WAT     H270818   2.027   1.912   0.440
23526WAT      O70819   3.891   3.384   7.866
23526WAT     H170820   3.931   3.412   7.953
23526WAT     H270821   3.836   3.460   7.829
23527WAT      O70822   4.994   3.320   1.771
23527WAT     H170823   4.965   3.283   1.682
23527WAT     H270824   5.055   3.254   1.816
23528WAT      O70825   4.137   2.369   7.189
23528WAT     H170826   4.177   2.398   7.102
23528WAT     H270827   4.165   2.274   7.208
23529WAT      O70828   4.819   3.674   1.559
23529WAT     H170829   4.912   3.642   1.577
23529WAT     H270830   4.820   3.736   1.480
23530WAT      O70831   9.072   6.231   8.217
23530WAT     H170832   9.128   6.308   8.247
23530WAT     H270833   9.129   6.164   8.170
23531WAT      O70834   4.637   8.184   6.671
23531WAT     H170835   4.663   8.277   6.645
23531WAT     H270836   4.586   8.142   6.597
23532WAT      O70837   8.324   1.357   0.865
23532WAT     H170838   8.284   1.296   0.933
23532WAT     H270839   8.331   1.310   0.778
23533WAT      O70840   0.424   5.259   8.296
23533WAT     H170841   0.352   5.201   8.335
23533WAT     H270842   0.466   5.211   8.219
23534WAT      O70843   8.147   8.234   0.741
23534WAT     H170844   8.071   8.205   0.798
23534WAT     H270845   8.229   8.243   0.797
23535WAT      O70846   0.941   6.006   5.751
23535WAT     H170847   0.907   6.060   5.828
23535WAT     H270848   0.916   5.910   5.764
23536WAT      O70849   2.050   8.043   9.109
23536WAT     H170850   2.080   8.120   9.052
23536WAT     H270851   2.061   7.958   9.058
23537WAT      O70852   5.462   1.536   0.508
23537WAT     H170853   5.368   1.543   0.541
23537WAT     H270854   5.524   1.573   0.577
23538WAT      O70855   0.807   5.772   1.407
23538WAT     H170856   0.720   5.809   1.376
23538WAT     H270857   0.792   5.716   1.489
23539WAT      O70858   0.274   2.766   0.380
23539WAT     H170859   0.367   2.795   0.404
23539WAT     H270860   0.266   2.757   0.281
23540WAT      O70861   8.544   2.854   6.696
23540WAT     H170862   8.553   2.881   6.600
23540WAT     H270863   8.484   2.774   6.703
23541WAT      O70864   4.279   4.917   2.701
23541WAT     H170865   4.264   4.821   2.726
23541WAT     H270866   4.374   4.928   2.671
23542WAT      O70867   3.529   1.821   7.790
23542WAT     H170868   3.567   1.914   7.787
23542WAT     H270869   3.554   1.773   7.706
23543WAT      O70870   4.395   3.384   5.128
23543WAT     H170871   4.340   3.301   5.134
23543WAT     H270872   4.355   3.446   5.060
23544WAT      O70873   0.147   8.321   8.106
23544WAT     H170874   0.242   8.324   8.077
23544WAT     H270875   0.113   8.415   8.118
23545WAT      O70876   5.680   0.150   5.603
23545WAT     H170877   5.703   0.213   5.676
23545WAT     H270878   5.689   0.197   5.515
23546WAT      O70879   8.424   2.852   2.240
23546WAT     H170880   8.410   2.783   2.169
23546WAT     H270881   8.484   2.924   2.204
23547WAT      O70882   1.076   0.533   3.239
23547WAT     H170883   1.053   0.544   3.142
23547WAT     H270884   1.175   0.523   3.250
23548WAT      O70885   4.087   8.806   5.663
23548WAT     H170886   4.040   8.891   5.684
23548WAT     H270887   4.042   8.761   5.586
23549WAT      O70888   6.624   4.474   9.073
23549WAT     H170889   6.643   4.563   9.116
23549WAT     H270890   6.623   4.484   8.974
23550WAT      O70891   1.130   2.783   7.784
23550WAT     H170892   1.040   2.815   7.755
23550WAT     H270893   1.128   2.759   7.881
23551WAT      O70894   2.542   4.238   8.659
23551WAT     H170895   2.455   4.206   8.697
23551WAT     H270896   2.613   4.171   8.676
23552WAT      O70897   5.004   3.244   9.721
23552WAT     H170898   5.008   3.145   9.728
23552WAT     H270899   4.981   3.270   9.628
23553WAT      O70900   5.638   1.843   2.647
23553WAT     H170901   5.543   1.831   2.673
23553WAT     H270902   5.688   1.887   2.722
23554WAT      O70903   6.631   2.204   1.727
23554WAT     H170904   6.587   2.196   1.816
23554WAT     H270905   6.569   2.248   1.663
23555WAT      O70906   1.992   1.597   2.506
23555WAT     H170907   2.090   1.595   2.526
23555WAT     H270908   1.943   1.637   2.583
23556WAT      O70909   7.599   0.444   9.305
23556WAT     H170910   7.672   0.449   9.373
23556WAT     H270911   7.510   0.447   9.351
23557WAT      O70912   5.983   3.815   5.723
23557WAT     H170913   5.983   3.715   5.723
23557WAT     H270914   6.077   3.848   5.720
23558WAT      O70915   3.952   2.526   2.806
23558WAT     H170916   3.960   2.598   2.737
23558WAT     H270917   3.856   2.506   2.822
23559WAT      O70918   6.441   6.079   4.983
23559WAT     H170919   6.422   6.122   5.071
23559WAT     H270920   6.384   6.122   4.913
23560WAT      O70921   8.501   0.790   6.960
23560WAT     H170922   8.518   0.887   6.975
23560WAT     H270923   8.580   0.748   6.915
23561WAT      O70924   8.707   2.361   5.003
23561WAT     H170925   8.792   2.312   4.982
23561WAT     H270926   8.648   2.360   4.922
23562WAT      O70927   1.017   4.786   3.526
23562WAT     H170928   0.923   4.763   3.500
23562WAT     H270929   1.061   4.706   3.568
23563WAT      O70930   0.033   6.889   5.319
23563WAT     H170931   0.073   6.922   5.233
23563WAT     H270932   0.026   6.789   5.316
23564WAT      O70933   5.579   7.979   9.579
23564WAT     H170934   5.667   7.966   9.626
23564WAT     H270935   5.582   7.936   9.489
23565WAT      O70936   7.097   0.090   4.836
23565WAT     H170937   7.195   0.108   4.833
23565WAT     H270938   7.079   0.009   4.892
23566WAT      O70939   5.006   8.539   3.796
23566WAT     H170940   4.990   8.506   3.889
23566WAT     H270941   4.938   8.498   3.734
23567WAT      O70942   2.140   8.399   7.153
23567WAT     H170943   2.051   8.444   7.149
23567WAT     H270944   2.144   8.327   7.084
23568WAT      O70945   6.351   0.272   0.085
23568WAT     H170946   6.361   0.213   0.005
23568WAT     H270947   6.430   0.334   0.090
23569WAT      O70948   9.324   6.513   4.367
23569WAT     H170949   9.409   6.491   4.319
23569WAT     H270950   9.345   6.535   4.463
23570WAT      O70951   6.053   7.391   6.296
23570WAT     H170952   5.987   7.339   6.351
23570WAT     H270953   6.077   7.340   6.214
23571WAT      O70954   4.462   0.367   6.124
23571WAT     H170955   4.460   0.352   6.222
23571WAT     H270956   4.557   0.370   6.093
23572WAT      O70957   4.508   6.441   1.611
23572WAT     H170958   4.598   6.407   1.637
23572WAT     H270959   4.519   6.528   1.563
23573WAT      O70960   7.570   3.108   6.249
23573WAT     H170961   7.638   3.036   6.250
23573WAT     H270962   7.563   3.149   6.340
23574WAT      O70963   6.104   8.441   2.664
23574WAT     H170964   6.096   8.375   2.590
23574WAT     H270965   6.169   8.407   2.732
23575WAT      O70966   0.576   5.807   3.295
23575WAT     H170967   0.506   5.830   3.362
23575WAT     H270968   0.587   5.708   3.291
23576WAT      O70969   3.081   1.452   1.630
23576WAT     H170970   3.042   1.542   1.647
23576WAT     H270971   3.052   1.420   1.540
23577WAT      O70972   8.354   6.882   0.621
23577WAT     H170973   8.322   6.967   0.579
23577WAT     H270974   8.454   6.880   0.618
23578WAT      O70975   4.771   9.593   8.623
23578WAT     H170976   4.819   9.681   8.630
23578WAT     H270977   4.829   9.528   8.573
23579WAT      O70978   3.364   7.778   3.880
23579WAT     H170979   3.437   7.830   3.926
23579WAT     H270980   3.323   7.714   3.945
23580WAT      O70981   5.357   7.705   8.954
23580WAT     H170982   5.263   7.713   8.989
23580WAT     H270983   5.401   7.625   8.994
23581WAT      O70984   6.064   9.134   4.489
23581WAT     H170985   5.967   9.126   4.466
23581WAT     H270986   6.077   9.108   4.585
23582WAT      O70987   9.024   7.153   1.267
23582WAT     H170988   9.098   7.177   1.330
23582WAT     H270989   9.010   7.054   1.269
23583WAT      O70990   1.146   3.600   1.363
23583WAT     H170991   1.196   3.516   1.384
23583WAT     H270992   1.049   3.579   1.351
23584WAT      O70993   3.496   4.868   5.337
23584WAT     H170994   3.506   4.783   5.285
23584WAT     H270995   3.480   4.845   5.433
23585WAT      O70996   8.502   8.893   2.923
23585WAT     H170997   8.517   8.974   2.865
23585WAT     H270998   8.544   8.908   3.012
23586WAT      O70999   4.931   1.893   0.974
23586WAT     H171000   5.016   1.852   1.006
23586WAT     H271001   4.869   1.906   1.052
23587WAT      O71002   1.794   8.149   1.150
23587WAT     H171003   1.880   8.132   1.199
23587WAT     H271004   1.718   8.147   1.215
23588WAT      O71005   6.436   1.670   7.431
23588WAT     H171006   6.474   1.750   7.385
23588WAT     H271007   6.378   1.699   7.507
23589WAT      O71008   7.034   0.813   2.049
23589WAT     H171009   6.940   0.817   2.084
23589WAT     H271010   7.061   0.718   2.038
23590WAT      O71011   9.084   7.483   7.203
23590WAT     H171012   9.094   7.473   7.104
23590WAT     H271013   9.118   7.572   7.232
23591WAT      O71014   2.275   1.685   0.997
23591WAT     H171015   2.223   1.599   0.993
23591WAT     H271016   2.332   1.686   1.079
23592WAT      O71017   6.121   9.745   5.525
23592WAT     H171018   6.027   9.775   5.509
23592WAT     H271019   6.156   9.702   5.442
23593WAT      O71020   6.026   0.067   4.538
23593WAT     H171021   6.011   0.164   4.520
23593WAT     H271022   6.073   0.026   4.460
23594WAT      O71023   1.236   4.619   3.307
23594WAT     H171024   1.328   4.658   3.306
23594WAT     H271025   1.172   4.682   3.262
23595WAT      O71026   6.101   6.213   7.016
23595WAT     H171027   6.189   6.259   7.006
23595WAT     H271028   6.108   6.119   6.981
23596WAT      O71029   6.145   7.264   2.410
23596WAT     H171030   6.165   7.327   2.485
23596WAT     H271031   6.055   7.222   2.423
23597WAT      O71032   3.953   1.354   1.539
23597WAT     H171033   3.976   1.383   1.446
23597WAT     H271034   3.862   1.312   1.539
23598WAT      O71035   1.857   0.374   8.438
23598WAT     H171036   1.899   0.298   8.487
23598WAT     H271037   1.928   0.440   8.412
23599WAT      O71038   4.263   0.641   5.229
23599WAT     H171039   4.348   0.607   5.270
23599WAT     H271040   4.217   0.567   5.181
23600WAT      O71041   0.104   9.396   9.368
23600WAT     H171042   0.177   9.347   9.321
23600WAT     H271043   0.072   9.343   9.446
23601WAT      O71044   2.782   1.086   9.667
23601WAT     H171045   2.698   1.083   9.722
23601WAT     H271046   2.771   1.153   9.593
23602WAT      O71047   0.096   3.031   0.119
23602WAT     H171048   0.082   3.111   0.060
23602WAT     H271049   0.101   2.949   0.062
23603WAT      O71050   6.807   0.360   0.478
23603WAT     H171051   6.726   0.310   0.447
23603WAT     H271052   6.815   0.445   0.426
23604WAT      O71053   2.992   0.591   8.082
23604WAT     H171054   2.946   0.678   8.068
23604WAT     H271055   3.060   0.600   8.155
23605WAT      O71056   2.575   9.763   1.664
23605WAT     H171057   2.643   9.807   1.722
23605WAT     H271058   2.621   9.716   1.589
23606WAT      O71059   8.459   8.358   7.079
23606WAT     H171060   8.382   8.406   7.121
23606WAT     H271061   8.425   8.293   7.011
23607WAT      O71062   9.236   0.376   8.350
23607WAT     H171063   9.264   0.438   8.277
23607WAT     H271064   9.304   0.378   8.424
23608WAT      O71065   2.442   4.108   6.043
23608WAT     H171066   2.353   4.136   6.077
23608WAT     H271067   2.440   4.011   6.019
23609WAT      O71068   0.845   5.589   7.632
23609WAT     H171069   0.943   5.608   7.621
23609WAT     H271070   0.832   5.527   7.709
23610WAT      O71071   6.399   2.630   6.384
23610WAT     H171072   6.387   2.630   6.285
23610WAT     H271073   6.412   2.536   6.415
23611WAT      O71074   5.560   7.080   1.154
23611WAT     H171075   5.654   7.049   1.143
23611WAT     H271076   5.559   7.177   1.180
23612WAT      O71077   9.767   5.875   9.226
23612WAT     H171078   9.697   5.836   9.286
23612WAT     H271079   9.768   5.974   9.237
23613WAT      O71080   7.945   5.480   9.152
23613WAT     H171081   7.931   5.389   9.112
23613WAT     H271082   8.030   5.519   9.119
23614WAT      O71083   9.134   5.555   7.937
23614WAT     H171084   9.175   5.642   7.910
23614WAT     H271085   9.201   5.481   7.925
23615WAT      O71086   5.522   6.009   1.300
23615WAT     H171087   5.485   6.093   1.259
23615WAT     H271088   5.495   5.930   1.244
23616WAT      O71089   4.520   6.249   3.924
23616WAT     H171090   4.601   6.302   3.899
23616WAT     H271091   4.547   6.171   3.981
23617WAT      O71092   9.578   9.214   8.864
23617WAT     H171093   9.506   9.278   8.839
23617WAT     H271094   9.623   9.245   8.948
23618WAT      O71095   4.372   4.031   9.874
23618WAT     H171096   4.426   4.113   9.889
23618WAT     H271097   4.421   3.969   9.812
23619WAT      O71098   7.115   8.294   9.434
23619WAT     H171099   7.079   8.242   9.510
23619WAT     H271100   7.182   8.239   9.383
23620WAT      O71101   1.001   6.584   8.511
23620WAT     H171102   0.910   6.556   8.479
23620WAT     H271103   1.058   6.503   8.521
23621WAT      O71104   7.237   2.273   6.155
23621WAT     H171105   7.323   2.305   6.115
23621WAT     H271106   7.169   2.346   6.151
23622WAT      O71107   3.312   6.079   0.077
23622WAT     H171108   3.400   6.122   0.100
23622WAT     H271109   3.313   5.984   0.107
23623WAT      O71110   4.645   9.455   5.811
23623WAT     H171111   4.706   9.403   5.870
23623WAT     H271112   4.683   9.458   5.718
23624WAT      O71113   9.374   3.588   2.474
23624WAT     H171114   9.461   3.630   2.448
23624WAT     H271115   9.357   3.508   2.417
23625WAT      O71116   7.442   4.646   7.685
23625WAT     H171117   7.497   4.616   7.607
23625WAT     H271118   7.390   4.727   7.660
23626WAT      O71119   0.680   3.296   4.251
23626WAT     H171120   0.713   3.378   4.203
23626WAT     H271121   0.676   3.315   4.349
23627WAT      O71122   8.419   5.807   6.348
23627WAT     H171123   8.466   5.733   6.301
23627WAT     H271124   8.324   5.812   6.317
23628WAT      O71125   5.208   2.363   0.155
23628WAT     H171126   5.222   2.390   0.060
23628WAT     H271127   5.271   2.288   0.178
23629WAT      O71128   0.056   9.614   6.567
23629WAT     H171129   0.019   9.615   6.474
23629WAT     H271130   0.066   9.708   6.600
23630WAT      O71131   3.333   5.656   8.930
23630WAT     H171132   3.313   5.571   8.979
23630WAT     H271133   3.354   5.728   8.995
23631WAT      O71134   9.030   3.238   1.586
23631WAT     H171135   9.024   3.303   1.662
23631WAT     H271136   8.946   3.241   1.533
23632WAT      O71137   4.953   6.256   0.307
23632WAT     H171138   4.891   6.333   0.320
23632WAT     H271139   4.933   6.212   0.219
23633WAT      O71140   0.538   0.221   3.948
23633WAT     H171141   0.587   0.277   4.014
23633WAT     H271142   0.584   0.225   3.859
23634WAT      O71143   5.679   6.835   6.768
23634WAT     H171144   5.703   6.917   6.819
23634WAT     H271145   5.762   6.790   6.735
23635WAT      O71146   9.729   5.675   2.756
23635WAT     H171147   9.699   5.656   2.849
23635WAT     H271148   9.828   5.688   2.755
23636WAT      O71149   5.223   1.405   4.746
23636WAT     H171150   5.211   1.498   4.783
23636WAT     H271151   5.212   1.339   4.820
23637WAT      O71152   9.859   6.514   3.132
23637WAT     H171153   9.935   6.511   3.197
23637WAT     H271154   9.773   6.528   3.181
23638WAT      O71155   1.873   6.659   4.824
23638WAT     H171156   1.931   6.727   4.869
23638WAT     H271157   1.916   6.630   4.739
23639WAT      O71158   6.629   7.319   5.343
23639WAT     H171159   6.688   7.317   5.424
23639WAT     H271160   6.678   7.362   5.267
23640WAT      O71161   9.041   8.292   6.913
23640WAT     H171162   9.063   8.360   6.983
23640WAT     H271163   8.975   8.227   6.949
23641WAT      O71164   3.903   3.698   1.858
23641WAT     H171165   3.936   3.792   1.846
23641WAT     H271166   3.826   3.698   1.922
23642WAT      O71167   6.187   7.072   8.589
23642WAT     H171168   6.254   7.142   8.563
23642WAT     H271169   6.200   7.047   8.685
23643WAT      O71170   3.940   6.578   7.565
23643WAT     H171171   3.956   6.536   7.475
23643WAT     H271172   3.873   6.524   7.615
23644WAT      O71173   0.985   3.216   4.245
23644WAT     H171174   0.980   3.189   4.149
23644WAT     H271175   0.894   3.246   4.275
23645WAT      O71176   9.150   1.174   9.396
23645WAT     H171177   9.233   1.141   9.441
23645WAT     H271178   9.174   1.211   9.306
23646WAT      O71179   9.773   1.140   5.578
23646WAT     H171180   9.761   1.236   5.604
23646WAT     H271181   9.808   1.135   5.484
23647WAT      O71182   5.843   3.099   4.466
23647WAT     H171183   5.810   3.062   4.552
23647WAT     H271184   5.824   3.034   4.392
23648WAT      O71185   4.264   1.627   1.436
23648WAT     H171186   4.355   1.663   1.415
23648WAT     H271187   4.272   1.554   1.504
23649WAT      O71188   1.263   2.380   1.152
23649WAT     H171189   1.215   2.331   1.079
23649WAT     H271190   1.235   2.476   1.153
23650WAT      O71191   5.522   4.609   1.532
23650WAT     H171192   5.512   4.706   1.511
23650WAT     H271193   5.462   4.556   1.473
23651WAT      O71194   2.959   6.692   2.370
23651WAT     H171195   2.946   6.601   2.330
23651WAT     H271196   2.940   6.762   2.301
23652WAT      O71197   9.121   6.500   4.740
23652WAT     H171198   9.038   6.517   4.686
23652WAT     H271199   9.116   6.409   4.782
23653WAT      O71200   5.665   1.818   4.780
23653WAT     H171201   5.595   1.879   4.742
23653WAT     H271202   5.675   1.738   4.720
23654WAT      O71203   8.162   8.682   0.850
23654WAT     H171204   8.158   8.591   0.891
23654WAT     H271205   8.150   8.752   0.920
23655WAT      O71206   9.827   7.387   8.866
23655WAT     H171207   9.769   7.403   8.785
23655WAT     H271208   9.917   7.428   8.850
23656WAT      O71209   7.228   5.971   3.101
23656WAT     H171210   7.186   6.056   3.068
23656WAT     H271211   7.162   5.896   3.091
23657WAT      O71212   3.380   1.701   0.396
23657WAT     H171213   3.423   1.694   0.306
23657WAT     H271214   3.310   1.631   0.405
23658WAT      O71215   2.173   5.131   7.686
23658WAT     H171216   2.209   5.063   7.749
23658WAT     H271217   2.074   5.117   7.675
23659WAT      O71218   5.460   1.686   7.713
23659WAT     H171219   5.397   1.640   7.651
23659WAT     H271220   5.508   1.758   7.664
23660WAT      O71221   4.595   2.454   4.438
23660WAT     H171222   4.564   2.461   4.533
23660WAT     H271223   4.610   2.358   4.414
23661WAT      O71224   5.112   8.428   6.654
23661WAT     H171225   5.043   8.364   6.620
23661WAT     H271226   5.203   8.396   6.628
23662WAT      O71227   2.588   1.085   4.404
23662WAT     H171228   2.589   1.045   4.496
23662WAT     H271229   2.586   1.185   4.412
23663WAT      O71230   2.412   3.518   1.069
23663WAT     H171231   2.403   3.456   1.146
23663WAT     H271232   2.376   3.608   1.093
23664WAT      O71233   7.603   0.734   7.349
23664WAT     H171234   7.682   0.698   7.397
23664WAT     H271235   7.607   0.834   7.348
23665WAT      O71236   0.963   5.359   1.462
23665WAT     H171237   0.925   5.436   1.410
23665WAT     H271238   0.917   5.352   1.550
23666WAT      O71239   9.288   2.416   0.023
23666WAT     H171240   9.324   2.353   0.091
23666WAT     H271241   9.240   2.365  -0.048
23667WAT      O71242   8.677   6.837   4.306
23667WAT     H171243   8.761   6.891   4.306
23667WAT     H271244   8.674   6.780   4.224
23668WAT      O71245   3.045   6.595   1.571
23668WAT     H171246   3.133   6.548   1.571
23668WAT     H271247   3.057   6.689   1.540
23669WAT      O71248   7.793   4.870   0.264
23669WAT     H171249   7.766   4.780   0.297
23669WAT     H271250   7.870   4.860   0.200
23670WAT      O71251   2.450   6.197   0.487
23670WAT     H171252   2.499   6.206   0.400
23670WAT     H271253   2.495   6.254   0.556
23671WAT      O71254   1.107   5.433   1.882
23671WAT     H171255   1.060   5.366   1.825
23671WAT     H271256   1.159   5.495   1.824
23672WAT      O71257   9.768   8.734   4.523
23672WAT     H171258   9.764   8.634   4.534
23672WAT     H271259   9.857   8.767   4.556
23673WAT      O71260   7.457   4.695   0.116
23673WAT     H171261   7.452   4.759   0.039
23673WAT     H271262   7.395   4.725   0.188
23674WAT      O71263   7.657   0.454   7.640
23674WAT     H171264   7.673   0.359   7.610
23674WAT     H271265   7.722   0.514   7.594
23675WAT      O71266   7.770   5.378   6.193
23675WAT     H171267   7.820   5.404   6.111
23675WAT     H271268   7.772   5.454   6.258
23676WAT      O71269   4.526   5.610   3.223
23676WAT     H171270   4.583   5.691   3.222
23676WAT     H271271   4.432   5.636   3.247
23677WAT      O71272   0.985   7.057   2.181
23677WAT     H171273   1.081   7.069   2.207
23677WAT     H271274   0.979   7.048   2.081
23678WAT      O71275   0.575   7.206   0.655
23678WAT     H171276   0.642   7.279   0.640
23678WAT     H271277   0.507   7.237   0.721
23679WAT      O71278   7.951   5.811   0.083
23679WAT     H171279   7.955   5.909   0.104
23679WAT     H271280   8.009   5.791   0.004
23680WAT      O71281   7.863   6.430   6.015
23680WAT     H171282   7.920   6.367   5.963
23680WAT     H271283   7.839   6.388   6.103
23681WAT      O71284   9.347   3.923   4.060
23681WAT     H171285   9.259   3.932   4.014
23681WAT     H271286   9.333   3.913   4.159
23682WAT      O71287   9.389   9.370   4.141
23682WAT     H171288   9.429   9.280   4.122
23682WAT     H271289   9.360   9.374   4.237
23683WAT      O71290   5.836   7.266   6.397
23683WAT     H171291   5.763   7.261   6.329
23683WAT     H271292   5.799   7.302   6.482
23684WAT      O71293   5.381   1.128   6.197
23684WAT     H171294   5.390   1.226   6.217
23684WAT     H271295   5.290   1.109   6.159
23685WAT      O71296   2.203   3.645   3.430
23685WAT     H171297   2.218   3.732   3.478
23685WAT     H271298   2.166   3.663   3.339
23686WAT      O71299   3.473   4.586   9.766
23686WAT     H171300   3.549   4.650   9.775
23686WAT     H271301   3.442   4.557   9.856
23687WAT      O71302   0.142   0.323   5.494
23687WAT     H171303   0.206   0.388   5.535
23687WAT     H271304   0.080   0.372   5.433
23688WAT      O71305   9.394   8.225   6.309
23688WAT     H171306   9.360   8.202   6.400
23688WAT     H271307   9.489   8.196   6.300
23689WAT      O71308   6.327   4.505   9.097
23689WAT     H171309   6.294   4.437   9.162
23689WAT     H271310   6.406   4.469   9.048
23690WAT      O71311   6.689   3.552   1.315
23690WAT     H171312   6.786   3.531   1.305
23690WAT     H271313   6.659   3.524   1.407
23691WAT      O71314   0.242   2.060   4.033
23691WAT     H171315   0.169   2.003   3.994
23691WAT     H271316   0.297   2.099   3.959
23692WAT      O71317   5.163   7.410   4.274
23692WAT     H171318   5.119   7.386   4.360
23692WAT     H271319   5.114   7.486   4.231
23693WAT      O71320   2.355   2.336   1.077
23693WAT     H171321   2.377   2.284   1.160
23693WAT     H271322   2.323   2.427   1.102
23694WAT      O71323   5.260   0.460   4.290
23694WAT     H171324   5.289   0.479   4.196
23694WAT     H271325   5.236   0.363   4.299
23695WAT      O71326   8.249   1.703   3.769
23695WAT     H171327   8.215   1.791   3.737
23695WAT     H271328   8.230   1.693   3.866
23696WAT      O71329   7.206   6.900   8.359
23696WAT     H171330   7.176   6.839   8.433
23696WAT     H271331   7.246   6.982   8.399
23697WAT      O71332   7.776   8.849   0.745
23697WAT     H171333   7.822   8.771   0.703
23697WAT     H271334   7.812   8.864   0.837
23698WAT      O71335   0.091   9.513   6.810
23698WAT     H171336   0.011   9.539   6.865
23698WAT     H271337   0.086   9.557   6.721
23699WAT      O71338   2.586   0.019   9.304
23699WAT     H171339   2.634   0.103   9.328
23699WAT     H271340   2.511   0.003   9.369
23700WAT      O71341   9.523   5.904   8.625
23700WAT     H171342   9.429   5.927   8.653
23700WAT     H271343   9.531   5.804   8.618
23701WAT      O71344   0.851   8.946   0.013
23701WAT     H171345   0.825   8.937   0.109
23701WAT     H271346   0.919   8.877  -0.010
23702WAT      O71347   5.699   1.885   6.626
23702WAT     H171348   5.610   1.894   6.580
23702WAT     H271349   5.737   1.976   6.642
23703WAT      O71350   3.940   5.723   1.590
23703WAT     H171351   4.004   5.783   1.637
23703WAT     H271352   3.909   5.766   1.505
23704WAT      O71353   8.982   8.255   5.837
23704WAT     H171354   8.936   8.300   5.761
23704WAT     H271355   9.063   8.308   5.863
23705WAT      O71356   3.906   1.134   4.000
23705WAT     H171357   3.818   1.171   3.972
23705WAT     H271358   3.937   1.067   3.932
23706WAT      O71359   5.024   8.616   5.803
23706WAT     H171360   5.067   8.705   5.815
23706WAT     H271361   4.941   8.611   5.858
23707WAT      O71362   9.714   8.912   2.045
23707WAT     H171363   9.679   8.953   2.129
23707WAT     H271364   9.682   8.965   1.967
23708WAT      O71365   6.263   3.483   5.717
23708WAT     H171366   6.241   3.556   5.651
23708WAT     H271367   6.314   3.411   5.670
23709WAT      O71368   1.624   0.067   4.321
23709WAT     H171369   1.674   0.063   4.235
23709WAT     H271370   1.572   0.151   4.326
23710WAT      O71371   3.181   6.325   3.784
23710WAT     H171372   3.126   6.355   3.706
23710WAT     H271373   3.135   6.251   3.831
23711WAT      O71374   8.590   7.764   4.574
23711WAT     H171375   8.607   7.838   4.509
23711WAT     H271376   8.604   7.676   4.529
23712WAT      O71377   0.254   5.243   9.217
23712WAT     H171378   0.333   5.185   9.236
23712WAT     H271379   0.170   5.188   9.226
23713WAT      O71380   4.526   0.462   4.891
23713WAT     H171381   4.557   0.551   4.859
23713WAT     H271382   4.426   0.456   4.882
23714WAT      O71383   8.775   6.458   7.543
23714WAT     H171384   8.865   6.444   7.501
23714WAT     H271385   8.705   6.462   7.472
23715WAT      O71386   4.853   6.926   4.596
23715WAT     H171387   4.871   7.003   4.657
23715WAT     H271388   4.939   6.896   4.554
23716WAT      O71389   0.676   5.436   7.508
23716WAT     H171390   0.744   5.498   7.546
23716WAT     H271391   0.689   5.345   7.546
23717WAT      O71392   9.310   5.946   3.540
23717WAT     H171393   9.260   6.032   3.548
23717WAT     H271394   9.375   5.952   3.464
23718WAT      O71395   4.971   9.038   6.344
23718WAT     H171396   4.876   9.041   6.313
23718WAT     H271397   4.984   9.104   6.419
23719WAT      O71398   7.617   4.213   4.992
23719WAT     H171399   7.520   4.201   4.971
23719WAT     H271400   7.661   4.263   4.918
23720WAT      O71401   5.818   3.102   3.507
23720WAT     H171402   5.902   3.060   3.470
23720WAT     H271403   5.799   3.186   3.457
23721WAT      O71404   9.695   7.421   7.035
23721WAT     H171405   9.673   7.516   7.015
23721WAT     H271406   9.657   7.396   7.124
23722WAT      O71407   9.026   7.799   6.420
23722WAT     H171408   8.957   7.862   6.455
23722WAT     H271409   9.066   7.748   6.497
23723WAT      O71410   1.029   9.047   5.759
23723WAT     H171411   1.107   9.040   5.821
23723WAT     H271412   1.029   8.969   5.696
23724WAT      O71413   7.430   0.724   0.203
23724WAT     H171414   7.472   0.732   0.294
23724WAT     H271415   7.358   0.655   0.206
23725WAT      O71416   5.736   4.646   8.910
23725WAT     H171417   5.788   4.689   8.837
23725WAT     H271418   5.770   4.678   8.999
23726WAT      O71419   1.505   5.245   8.071
23726WAT     H171420   1.542   5.153   8.071
23726WAT     H271421   1.513   5.284   7.979
23727WAT      O71422   1.203   7.424   2.546
23727WAT     H171423   1.134   7.482   2.502
23727WAT     H271424   1.174   7.328   2.542
23728WAT      O71425   2.538   4.950   0.773
23728WAT     H171426   2.556   5.006   0.854
23728WAT     H271427   2.593   4.867   0.777
23729WAT      O71428   2.601   6.175   8.796
23729WAT     H171429   2.538   6.253   8.786
23729WAT     H271430   2.678   6.203   8.852
23730WAT      O71431   3.857   4.124   3.097
23730WAT     H171432   3.902   4.204   3.059
23730WAT     H271433   3.905   4.094   3.180
23731WAT      O71434   7.391   4.860   6.059
23731WAT     H171435   7.391   4.952   6.020
23731WAT     H271436   7.483   4.823   6.056
23732WAT      O71437   4.591   3.364   3.113
23732WAT     H171438   4.617   3.455   3.146
23732WAT     H271439   4.493   3.361   3.094
23733WAT      O71440   4.394   9.208   8.091
23733WAT     H171441   4.461   9.275   8.125
23733WAT     H271442   4.441   9.135   8.042
23734WAT      O71443   4.255   0.556   6.069
23734WAT     H171444   4.305   0.470   6.078
23734WAT     H271445   4.164   0.547   6.110
23735WAT      O71446   8.378   8.998   0.023
23735WAT     H171447   8.416   9.089   0.005
23735WAT     H271448   8.442   8.947   0.081
23736WAT      O71449   3.676   9.618   4.165
23736WAT     H171450   3.603   9.550   4.173
23736WAT     H271451   3.647   9.691   4.103
23737WAT      O71452   2.030   5.336   0.417
23737WAT     H171453   2.120   5.327   0.375
23737WAT     H271454   2.021   5.271   0.491
23738WAT      O71455   1.119   1.166   5.204
23738WAT     H171456   1.164   1.255   5.197
23738WAT     H271457   1.180   1.102   5.250
23739WAT      O71458   5.905   3.407   8.694
23739WAT     H171459   5.845   3.431   8.618
23739WAT     H271460   5.996   3.382   8.659
23740WAT      O71461   0.385   4.552   3.863
23740WAT     H171462   0.411   4.537   3.767
23740WAT     H271463   0.298   4.507   3.881
23741WAT      O71464   1.987   0.074   1.385
23741WAT     H171465   1.918   0.086   1.455
23741WAT     H271466   1.945   0.083   1.295
23742WAT      O71467   5.400   1.951   5.157
23742WAT     H171468   5.348   2.024   5.113
23742WAT     H271469   5.435   1.984   5.245
23743WAT      O71470   0.117   4.391   9.622
23743WAT     H171471   0.127   4.350   9.713
23743WAT     H271472   0.131   4.321   9.552
23744WAT      O71473   3.851   4.039   0.116
23744WAT     H171474   3.895   3.972   0.056
23744WAT     H271475   3.908   4.054   0.196
23745WAT      O71476   9.836   2.265   5.061
23745WAT     H171477   9.923   2.216   5.068
23745WAT     H271478   9.838   2.325   4.981
23746WAT      O71479   0.329   8.904   8.219
23746WAT     H171480   0.372   8.815   8.203
23746WAT     H271481   0.346   8.964   8.142
23747WAT      O71482   2.590   1.378   7.950
23747WAT     H171483   2.591   1.278   7.953
23747WAT     H271484   2.605   1.409   7.856
23748WAT      O71485   8.363   6.242   8.233
23748WAT     H171486   8.272   6.284   8.242
23748WAT     H271487   8.424   6.307   8.188
23749WAT      O71488   5.338   9.499   1.311
23749WAT     H171489   5.339   9.559   1.391
23749WAT     H271490   5.429   9.497   1.270
23750WAT      O71491   8.073   5.128   9.740
23750WAT     H171492   8.151   5.110   9.798
23750WAT     H271493   8.000   5.170   9.794
23751WAT      O71494   5.141   1.609   9.725
23751WAT     H171495   5.218   1.547   9.738
23751WAT     H271496   5.058   1.567   9.761
23752WAT      O71497   4.116   0.141   0.953
23752WAT     H171498   4.170   0.184   1.025
23752WAT     H271499   4.127   0.192   0.868
23753WAT      O71500   4.807   2.009   4.700
23753WAT     H171501   4.832   2.103   4.722
23753WAT     H271502   4.863   1.975   4.624
23754WAT      O71503   0.941   6.616   1.285
23754WAT     H171504   0.962   6.604   1.382
23754WAT     H271505   0.966   6.709   1.257
23755WAT      O71506   7.833   9.573   7.675
23755WAT     H171507   7.915   9.629   7.681
23755WAT     H271508   7.783   9.576   7.762
23756WAT      O71509   4.000   9.658   1.687
23756WAT     H171510   4.010   9.607   1.602
23756WAT     H271511   3.905   9.653   1.718
23757WAT      O71512   1.377   4.385   8.348
23757WAT     H171513   1.398   4.302   8.295
23757WAT     H271514   1.402   4.371   8.443
23758WAT      O71515   7.876   0.614   2.964
23758WAT     H171516   7.911   0.523   2.945
23758WAT     H271517   7.929   0.682   2.913
23759WAT      O71518   6.938   0.317   7.174
23759WAT     H171519   6.839   0.331   7.180
23759WAT     H271520   6.974   0.297   7.265
23760WAT      O71521   1.935   7.443   6.150
23760WAT     H171522   1.855   7.483   6.194
23760WAT     H271523   1.921   7.344   6.139
23761WAT      O71524   3.747   2.836   4.318
23761WAT     H171525   3.729   2.747   4.276
23761WAT     H271526   3.787   2.897   4.250
23762WAT      O71527   4.082   3.145   4.484
23762WAT     H171528   3.998   3.179   4.442
23762WAT     H271529   4.060   3.102   4.571
23763WAT      O71530   6.264   3.777   2.850
23763WAT     H171531   6.306   3.864   2.827
23763WAT     H271532   6.332   3.704   2.843
23764WAT      O71533   0.850   3.853   5.775
23764WAT     H171534   0.881   3.828   5.684
23764WAT     H271535   0.846   3.952   5.784
23765WAT      O71536   3.199   9.172   4.073
23765WAT     H171537   3.126   9.146   4.135
23765WAT     H271538   3.204   9.106   3.998
23766WAT      O71539   5.419   4.056   5.620
23766WAT     H171540   5.338   4.095   5.577
23766WAT     H271541   5.491   4.125   5.623
23767WAT      O71542   8.111   7.442   8.973
23767WAT     H171543   8.070   7.481   9.055
23767WAT     H271544   8.090   7.345   8.968
23768WAT      O71545   9.727   2.026   0.984
23768WAT     H171546   9.817   1.999   1.019
23768WAT     H271547   9.656   1.999   1.049
23769WAT      O71548   7.694   5.493   8.988
23769WAT     H171549   7.700   5.393   8.986
23769WAT     H271550   7.784   5.531   9.007
23770WAT      O71551   7.284   6.873   6.826
23770WAT     H171552   7.358   6.937   6.847
23770WAT     H271553   7.323   6.789   6.788
23771WAT      O71554   7.239   5.103   8.642
23771WAT     H171555   7.155   5.061   8.678
23771WAT     H271556   7.216   5.174   8.577
23772WAT      O71557   3.780   3.263   6.408
23772WAT     H171558   3.874   3.283   6.383
23772WAT     H271559   3.726   3.347   6.407
23773WAT      O71560   2.674   8.405   4.233
23773WAT     H171561   2.602   8.439   4.294
23773WAT     H271562   2.737   8.479   4.211
23774WAT      O71563   6.316   7.688   4.280
23774WAT     H171564   6.397   7.631   4.287
23774WAT     H271565   6.281   7.686   4.186
23775WAT      O71566   0.557   6.306   7.536
23775WAT     H171567   0.547   6.400   7.503
23775WAT     H271568   0.526   6.242   7.465
23776WAT      O71569   9.434   2.589   7.983
23776WAT     H171570   9.381   2.661   7.938
23776WAT     H271571   9.405   2.582   8.079
23777WAT      O71572   3.390   4.868   0.893
23777WAT     H171573   3.466   4.927   0.866
23777WAT     H271574   3.421   4.773   0.899
23778WAT      O71575   9.160   9.766   0.612
23778WAT     H171576   9.089   9.726   0.671
23778WAT     H271577   9.222   9.694   0.581
23779WAT      O71578   0.596   2.908   8.684
23779WAT     H171579   0.532   2.856   8.628
23779WAT     H271580   0.634   2.849   8.756
23780WAT      O71581   0.847   1.131   8.654
23780WAT     H171582   0.748   1.137   8.637
23780WAT     H271583   0.863   1.079   8.738
23781WAT      O71584   4.797   5.762   7.904
23781WAT     H171585   4.711   5.801   7.870
23781WAT     H271586   4.869   5.777   7.837
23782WAT      O71587   0.668   3.967   3.488
23782WAT     H171588   0.683   4.065   3.474
23782WAT     H271589   0.612   3.931   3.413
23783WAT      O71590   5.888   0.173   6.457
23783WAT     H171591   5.828   0.113   6.510
23783WAT     H271592   5.956   0.214   6.518
23784WAT      O71593   4.100   6.869   0.663
23784WAT     H171594   4.118   6.791   0.724
23784WAT     H271595   4.095   6.953   0.718
23785WAT      O71596   5.885   9.452   6.370
23785WAT     H171597   5.887   9.406   6.281
23785WAT     H271598   5.802   9.509   6.376
23786WAT      O71599   7.586   5.618   3.231
23786WAT     H171600   7.613   5.633   3.136
23786WAT     H271601   7.570   5.520   3.245
23787WAT      O71602   6.336   7.006   9.473
23787WAT     H171603   6.360   6.980   9.567
23787WAT     H271604   6.301   7.100   9.473
23788WAT      O71605   1.675   6.350   9.129
23788WAT     H171606   1.617   6.273   9.102
23788WAT     H271607   1.699   6.403   9.048
23789WAT      O71608   2.367   8.555   2.366
23789WAT     H171609   2.351   8.546   2.464
23789WAT     H271610   2.370   8.652   2.342
23790WAT      O71611   5.488   7.034   4.927
23790WAT     H171612   5.389   7.028   4.926
23790WAT     H271613   5.525   6.969   4.994
23791WAT      O71614   1.331   3.180   6.795
23791WAT     H171615   1.321   3.225   6.883
23791WAT     H271616   1.276   3.228   6.727
23792WAT      O71617   5.872   8.824   2.788
23792WAT     H171618   5.777   8.834   2.758
23792WAT     H271619   5.874   8.793   2.883
23793WAT      O71620   0.279   0.512   1.858
23793WAT     H171621   0.282   0.593   1.799
23793WAT     H271622   0.345   0.445   1.824
23794WAT      O71623   3.338   8.947   7.672
23794WAT     H171624   3.414   9.012   7.674
23794WAT     H271625   3.259   8.990   7.628
23795WAT      O71626   5.189   0.115   9.536
23795WAT     H171627   5.127   0.130   9.459
23795WAT     H271628   5.277   0.082   9.503
23796WAT      O71629   0.170   1.760   6.527
23796WAT     H171630   0.075   1.772   6.496
23796WAT     H271631   0.231   1.760   6.448
23797WAT      O71632   0.204   9.099   1.771
23797WAT     H171633   0.164   9.018   1.728
23797WAT     H271634   0.225   9.166   1.701
23798WAT      O71635   1.106   2.041   8.253
23798WAT     H171636   1.037   1.969   8.245
23798WAT     H271637   1.153   2.032   8.341
23799WAT      O71638   6.818   1.603   1.783
23799WAT     H171639   6.803   1.544   1.862
23799WAT     H271640   6.917   1.613   1.767
23800WAT      O71641   2.781   0.105   6.547
23800WAT     H171642   2.844   0.029   6.533
23800WAT     H271643   2.831   0.182   6.588
23801WAT      O71644   6.583   1.966   1.174
23801WAT     H171645   6.652   2.034   1.200
23801WAT     H271646   6.527   1.943   1.253
23802WAT      O71647   8.110   5.650   8.660
23802WAT     H171648   8.196   5.643   8.609
23802WAT     H271649   8.035   5.670   8.597
23803WAT      O71650   0.205   5.424   7.179
23803WAT     H171651   0.272   5.389   7.244
23803WAT     H271652   0.114   5.420   7.219
23804WAT      O71653   1.025   7.086   0.623
23804WAT     H171654   0.929   7.075   0.649
23804WAT     H271655   1.030   7.141   0.539
23805WAT      O71656   3.490   4.280   0.522
23805WAT     H171657   3.494   4.262   0.620
23805WAT     H271658   3.581   4.274   0.482
23806WAT      O71659   4.260   2.087   9.095
23806WAT     H171660   4.359   2.077   9.090
23806WAT     H271661   4.225   2.038   9.175
23807WAT      O71662   8.493   1.233   2.245
23807WAT     H171663   8.469   1.322   2.206
23807WAT     H271664   8.544   1.180   2.178
23808WAT      O71665   1.210   9.759   8.031
23808WAT     H171666   1.164   9.777   8.119
23808WAT     H271667   1.183   9.829   7.965
23809WAT      O71668   5.499   8.328   0.112
23809WAT     H171669   5.446   8.249   0.142
23809WAT     H271670   5.546   8.368   0.190
23810WAT      O71671   9.410   7.985   8.492
23810WAT     H171672   9.424   7.961   8.588
23810WAT     H271673   9.376   8.079   8.486
23811WAT      O71674   3.842   6.799   5.251
23811WAT     H171675   3.836   6.892   5.287
23811WAT     H271676   3.916   6.750   5.297
23812WAT      O71677   5.579   6.019   0.910
23812WAT     H171678   5.678   6.032   0.906
23812WAT     H271679   5.535   6.080   0.843
23813WAT      O71680   4.502   7.567   7.948
23813WAT     H171681   4.537   7.590   7.857
23813WAT     H271682   4.564   7.602   8.018
23814WAT      O71683   9.068   2.765   9.319
23814WAT     H171684   9.020   2.842   9.277
23814WAT     H271685   9.060   2.772   9.419
23815WAT      O71686   1.682   3.984   7.350
23815WAT     H171687   1.716   4.007   7.259
23815WAT     H271688   1.595   4.031   7.366
23816WAT      O71689   2.319   5.358   4.875
23816WAT     H171690   2.239   5.313   4.836
23816WAT     H271691   2.385   5.289   4.905
23817WAT      O71692   2.620   2.834   0.321
23817WAT     H171693   2.718   2.850   0.309
23817WAT     H271694   2.601   2.736   0.308
23818WAT      O71695   2.030   8.992   8.013
23818WAT     H171696   2.023   8.950   8.104
23818WAT     H271697   2.035   9.091   8.022
23819WAT      O71698   0.209   0.362   8.715
23819WAT     H171699   0.275   0.418   8.665
23819WAT     H271700   0.212   0.268   8.681
23820WAT      O71701   9.628   2.200   9.369
23820WAT     H171702   9.683   2.279   9.396
23820WAT     H271703   9.679   2.116   9.386
23821WAT      O71704   5.758   5.505   6.689
23821WAT     H171705   5.781   5.500   6.786
23821WAT     H271706   5.665   5.471   6.675
23822WAT      O71707   9.288   1.937   1.458
23822WAT     H171708   9.373   1.951   1.408
23822WAT     H271709   9.307   1.894   1.546
23823WAT      O71710   5.479   9.647   3.119
23823WAT     H171711   5.466   9.632   3.021
23823WAT     H271712   5.434   9.732   3.146
23824WAT      O71713   9.043   4.852   7.609
23824WAT     H171714   9.086   4.940   7.629
23824WAT     H271715   8.944   4.866   7.595
23825WAT      O71716   5.945   7.201   9.841
23825WAT     H171717   5.950   7.261   9.761
23825WAT     H271718   5.904   7.114   9.816
23826WAT      O71719   2.397   5.500   7.382
23826WAT     H171720   2.302   5.498   7.350
23826WAT     H271721   2.452   5.555   7.320
23827WAT      O71722   8.836   2.065   4.777
23827WAT     H171723   8.843   1.992   4.709
23827WAT     H271724   8.916   2.062   4.837
23828WAT      O71725   1.610   6.706   9.076
23828WAT     H171726   1.673   6.655   9.134
23828WAT     H271727   1.539   6.645   9.042
23829WAT      O71728   1.199   3.249   1.003
23829WAT     H171729   1.257   3.224   1.081
23829WAT     H271730   1.197   3.174   0.938
23830WAT      O71731   9.712   6.146   9.214
23830WAT     H171732   9.720   6.246   9.211
23830WAT     H271733   9.616   6.120   9.218
23831WAT      O71734   3.804   1.726   6.371
23831WAT     H171735   3.775   1.713   6.466
23831WAT     H271736   3.808   1.823   6.350
23832WAT      O71737   6.269   9.801   1.747
23832WAT     H171738   6.236   9.816   1.840
23832WAT     H271739   6.368   9.813   1.744
23833WAT      O71740   9.631   3.708   7.095
23833WAT     H171741   9.690   3.696   7.015
23833WAT     H271742   9.588   3.621   7.118
23834WAT      O71743   6.715   1.036   4.650
23834WAT     H171744   6.641   1.031   4.583
23834WAT     H271745   6.681   1.010   4.740
23835WAT      O71746   5.640   1.637   1.310
23835WAT     H171747   5.558   1.632   1.367
23835WAT     H271748   5.721   1.647   1.368
23836WAT      O71749   5.001   4.894   3.436
23836WAT     H171750   4.977   4.963   3.368
23836WAT     H271751   5.098   4.870   3.426
23837WAT      O71752   6.903   1.564   7.775
23837WAT     H171753   6.819   1.580   7.723
23837WAT     H271754   6.948   1.651   7.794
23838WAT      O71755   1.279   0.753   5.058
23838WAT     H171756   1.332   0.758   5.143
23838WAT     H271757   1.303   0.830   4.999
23839WAT      O71758   6.933   4.390   8.095
23839WAT     H171759   6.867   4.463   8.113
23839WAT     H271760   6.924   4.361   7.999
23840WAT      O71761   3.114   1.513   4.870
23840WAT     H171762   3.191   1.513   4.933
23840WAT     H271763   3.136   1.568   4.790
23841WAT      O71764   8.330   5.348   6.409
23841WAT     H171765   8.302   5.421   6.472
23841WAT     H271766   8.374   5.388   6.329
23842WAT      O71767   4.427   9.328   0.254
23842WAT     H171768   4.413   9.394   0.327
23842WAT     H271769   4.451   9.376   0.169
23843WAT      O71770   5.124   8.519   7.209
23843WAT     H171771   5.172   8.597   7.248
23843WAT     H271772   5.097   8.541   7.115
23844WAT      O71773   7.498   6.557   2.031
23844WAT     H171774   7.476   6.630   1.967
23844WAT     H271775   7.503   6.470   1.982
23845WAT      O71776   6.870   7.072   8.848
23845WAT     H171777   6.917   7.096   8.764
23845WAT     H271778   6.802   7.143   8.869
23846WAT      O71779   8.897   5.802   8.379
23846WAT     H171780   8.912   5.892   8.339
23846WAT     H271781   8.904   5.732   8.307
23847WAT      O71782   0.950   7.210   2.767
23847WAT     H171783   1.005   7.256   2.697
23847WAT     H271784   0.916   7.278   2.832
23848WAT      O71785   2.473   7.899   5.487
23848WAT     H171786   2.494   7.959   5.565
23848WAT     H271787   2.393   7.844   5.509
23849WAT      O71788   9.277   7.026   9.275
23849WAT     H171789   9.218   7.098   9.238
23849WAT     H271790   9.221   6.952   9.310
23850WAT      O71791   3.052   5.624   1.771
23850WAT     H171792   3.104   5.584   1.846
23850WAT     H271793   2.980   5.561   1.742
23851WAT      O71794   4.117   5.264   3.911
23851WAT     H171795   4.117   5.263   4.011
23851WAT     H271796   4.128   5.358   3.878
23852WAT      O71797   1.150   0.036   1.025
23852WAT     H171798   1.104   0.026   0.937
23852WAT     H271799   1.186  -0.052   1.054
23853WAT      O71800   5.187   7.388   1.130
23853WAT     H171801   5.146   7.325   1.064
23853WAT     H271802   5.213   7.338   1.213
23854WAT      O71803   6.005   3.084   1.661
23854WAT     H171804   5.923   3.141   1.649
23854WAT     H271805   5.998   3.004   1.601
23855WAT      O71806   8.178   3.938   1.751
23855WAT     H171807   8.269   3.974   1.731
23855WAT     H271808   8.183   3.876   1.829
23856WAT      O71809   2.655   2.005   4.180
23856WAT     H171810   2.725   2.045   4.119
23856WAT     H271811   2.638   1.911   4.153
23857WAT      O71812   0.999   9.173   1.725
23857WAT     H171813   1.096   9.189   1.747
23857WAT     H271814   0.970   9.087   1.767
23858WAT      O71815   1.653   5.337   9.404
23858WAT     H171816   1.606   5.251   9.387
23858WAT     H271817   1.751   5.324   9.395
23859WAT      O71818   7.219   6.840   8.897
23859WAT     H171819   7.128   6.813   8.867
23859WAT     H271820   7.222   6.939   8.911
23860WAT      O71821   1.614   0.469   6.797
23860WAT     H171822   1.591   0.406   6.871
23860WAT     H271823   1.625   0.561   6.833
23861WAT      O71824   8.755   7.954   4.930
23861WAT     H171825   8.692   7.912   4.865
23861WAT     H271826   8.843   7.907   4.926
23862WAT      O71827   5.773   4.768   2.133
23862WAT     H171828   5.834   4.820   2.073
23862WAT     H271829   5.826   4.711   2.194
23863WAT      O71830   7.848   8.609   5.988
23863WAT     H171831   7.870   8.513   5.974
23863WAT     H271832   7.773   8.635   5.927
23864WAT      O71833   4.888   2.709   4.556
23864WAT     H171834   4.867   2.786   4.617
23864WAT     H271835   4.810   2.692   4.495
23865WAT      O71836   4.152   0.281   6.844
23865WAT     H171837   4.226   0.285   6.911
23865WAT     H271838   4.143   0.187   6.810
23866WAT      O71839   2.764   7.067   5.155
23866WAT     H171840   2.863   7.063   5.168
23866WAT     H271841   2.721   7.094   5.241
23867WAT      O71842   5.868   3.995   3.702
23867WAT     H171843   5.825   3.905   3.696
23867WAT     H271844   5.896   4.024   3.610
23868WAT      O71845   3.905   3.842   0.638
23868WAT     H171846   3.956   3.888   0.711
23868WAT     H271847   3.948   3.755   0.618
23869WAT      O71848   1.247   3.311   7.011
23869WAT     H171849   1.158   3.266   7.005
23869WAT     H271850   1.283   3.302   7.103
23870WAT      O71851   3.902   5.340   9.435
23870WAT     H171852   3.812   5.371   9.405
23870WAT     H271853   3.896   5.245   9.467
23871WAT      O71854   9.440   2.667   6.199
23871WAT     H171855   9.356   2.662   6.254
23871WAT     H271856   9.418   2.696   6.106
23872WAT      O71857   0.813   4.798   4.567
23872WAT     H171858   0.888   4.863   4.558
23872WAT     H271859   0.765   4.814   4.653
23873WAT      O71860   8.969   4.899   1.850
23873WAT     H171861   8.899   4.901   1.922
23873WAT     H271862   9.056   4.931   1.888
23874WAT      O71863   6.871   1.969   1.944
23874WAT     H171864   6.876   2.062   1.982
23874WAT     H271865   6.844   1.905   2.016
23875WAT      O71866   5.252   5.315   0.643
23875WAT     H171867   5.269   5.333   0.740
23875WAT     H271868   5.250   5.402   0.594
23876WAT      O71869   9.783   9.205   0.034
23876WAT     H171870   9.785   9.304   0.053
23876WAT     H271871   9.799   9.154   0.119
23877WAT      O71872   9.708   1.437   0.005
23877WAT     H171873   9.795   1.485  -0.007
23877WAT     H271874   9.634   1.504   0.013
23878WAT      O71875   8.644   0.213   0.317
23878WAT     H171876   8.549   0.243   0.317
23878WAT     H271877   8.700   0.279   0.268
23879WAT      O71878   7.593   2.227   1.959
23879WAT     H171879   7.656   2.213   1.883
23879WAT     H271880   7.641   2.209   2.045
23880WAT      O71881   5.819   8.935   3.752
23880WAT     H171882   5.792   8.936   3.656
23880WAT     H271883   5.919   8.928   3.759
23881WAT      O71884   6.859   8.969   0.343
23881WAT     H171885   6.858   8.941   0.439
23881WAT     H271886   6.947   9.012   0.323
23882WAT      O71887   6.560   4.012   9.395
23882WAT     H171888   6.474   3.975   9.359
23882WAT     H271889   6.630   3.940   9.393
23883WAT      O71890   7.807   5.696   2.812
23883WAT     H171891   7.831   5.762   2.882
23883WAT     H271892   7.888   5.673   2.758
23884WAT      O71893   0.320   8.371   7.591
23884WAT     H171894   0.350   8.460   7.625
23884WAT     H271895   0.260   8.329   7.659
23885WAT      O71896   1.752   9.386   1.609
23885WAT     H171897   1.779   9.462   1.668
23885WAT     H271898   1.833   9.346   1.567
23886WAT      O71899   8.034   7.612   5.056
23886WAT     H171900   8.024   7.670   5.137
23886WAT     H271901   7.957   7.628   4.994
23887WAT      O71902   1.434   1.611   1.699
23887WAT     H171903   1.503   1.558   1.650
23887WAT     H271904   1.467   1.633   1.790
23888WAT      O71905   8.387   9.403   8.350
23888WAT     H171906   8.307   9.405   8.291
23888WAT     H271907   8.359   9.416   8.445
23889WAT      O71908   4.437   3.564   5.672
23889WAT     H171909   4.470   3.525   5.586
23889WAT     H271910   4.445   3.664   5.668
23890WAT      O71911   4.462   6.813   4.249
23890WAT     H171912   4.367   6.831   4.224
23890WAT     H271913   4.516   6.896   4.235
23891WAT      O71914   8.665   0.831   0.046
23891WAT     H171915   8.722   0.830  -0.036
23891WAT     H271916   8.722   0.836   0.127
23892WAT      O71917   0.510   9.362   9.399
23892WAT     H171918   0.610   9.362   9.402
23892WAT     H271919   0.478   9.443   9.348
23893WAT      O71920   1.972   3.297   1.782
23893WAT     H171921   1.874   3.317   1.775
23893WAT     H271922   2.005   3.258   1.696
23894WAT      O71923   2.140   0.471   2.774
23894WAT     H171924   2.123   0.393   2.834
23894WAT     H271925   2.238   0.483   2.760
23895WAT      O71926   0.307   2.116   2.506
23895WAT     H171927   0.225   2.151   2.551
23895WAT     H271928   0.305   2.140   2.409
23896WAT      O71929   5.333   5.240   2.334
23896WAT     H171930   5.358   5.249   2.238
23896WAT     H271931   5.394   5.175   2.378
23897WAT      O71932   9.543   0.607   3.605
23897WAT     H171933   9.445   0.628   3.609
23897WAT     H271934   9.564   0.533   3.669
23898WAT      O71935   7.641   8.758   9.120
23898WAT     H171936   7.639   8.671   9.171
23898WAT     H271937   7.728   8.804   9.138
23899WAT      O71938   9.234   2.794   5.646
23899WAT     H171939   9.293   2.866   5.683
23899WAT     H271940   9.160   2.775   5.710
23900WAT      O71941   2.757   2.778   7.509
23900WAT     H171942   2.825   2.710   7.537
23900WAT     H271943   2.803   2.865   7.492
23901WAT      O71944   7.211   4.447   1.442
23901WAT     H171945   7.152   4.370   1.468
23901WAT     H271946   7.184   4.478   1.350
23902WAT      O71947   8.971   0.501   8.181
23902WAT     H171948   8.950   0.437   8.255
23902WAT     H271949   8.886   0.534   8.140
23903WAT      O71950   8.165   4.952   5.072
23903WAT     H171951   8.239   5.012   5.044
23903WAT     H271952   8.202   4.861   5.095
23904WAT      O71953   7.912   0.288   6.330
23904WAT     H171954   7.815   0.308   6.312
23904WAT     H271955   7.958   0.265   6.245
23905WAT      O71956   8.482   7.712   2.267
23905WAT     H171957   8.426   7.708   2.350
23905WAT     H271958   8.505   7.807   2.248
23906WAT      O71959   7.707   4.071   0.339
23906WAT     H171960   7.637   4.090   0.271
23906WAT     H271961   7.795   4.104   0.307
23907WAT      O71962   1.050   1.590   4.657
23907WAT     H171963   1.052   1.490   4.656
23907WAT     H271964   1.064   1.625   4.565
23908WAT      O71965   2.078   8.072   5.112
23908WAT     H171966   1.983   8.103   5.104
23908WAT     H271967   2.104   8.069   5.209
23909WAT      O71968   3.957   6.916   4.788
23909WAT     H171969   4.046   6.961   4.784
23909WAT     H271970   3.956   6.838   4.726
23910WAT      O71971   7.901   6.269   3.610
23910WAT     H171972   7.933   6.332   3.680
23910WAT     H271973   7.933   6.176   3.632
23911WAT      O71974   0.369   9.196   0.793
23911WAT     H171975   0.433   9.141   0.741
23911WAT     H271976   0.409   9.220   0.882
23912WAT      O71977   2.181   6.193   0.485
23912WAT     H171978   2.173   6.216   0.388
23912WAT     H271979   2.277   6.200   0.513
23913WAT      O71980   2.799   7.073   0.709
23913WAT     H171981   2.767   7.152   0.763
23913WAT     H271982   2.898   7.072   0.707
23914WAT      O71983   3.055   5.367   1.142
23914WAT     H171984   3.099   5.447   1.100
23914WAT     H271985   3.104   5.284   1.114
23915WAT      O71986   1.839   3.295   6.328
23915WAT     H171987   1.903   3.228   6.366
23915WAT     H271988   1.785   3.252   6.256
23916WAT      O71989   0.735   3.143   6.034
23916WAT     H171990   0.724   3.199   5.952
23916WAT     H271991   0.648   3.101   6.058
23917WAT      O71992   4.592   8.884   1.083
23917WAT     H171993   4.550   8.973   1.063
23917WAT     H271994   4.651   8.893   1.164
23918WAT      O71995   3.044   5.153   0.423
23918WAT     H171996   3.077   5.076   0.478
23918WAT     H271997   3.094   5.156   0.337
23919WAT      O71998   6.512   9.834   8.963
23919WAT     H171999   6.430   9.802   9.010
23919WAT     H272000   6.505   9.812   8.865
23920WAT      O72001   8.777   9.562   4.066
23920WAT     H172002   8.694   9.507   4.077
23920WAT     H272003   8.781   9.598   3.973
23921WAT      O72004   8.881   1.350   5.539
23921WAT     H172005   8.900   1.267   5.592
23921WAT     H272006   8.842   1.420   5.599
23922WAT      O72007   3.787   8.090   9.346
23922WAT     H172008   3.858   8.138   9.399
23922WAT     H272009   3.722   8.157   9.310
23923WAT      O72010   7.489   1.911   2.100
23923WAT     H172011   7.412   1.882   2.044
23923WAT     H272012   7.456   1.943   2.188
23924WAT      O72013   6.207   7.451   3.055
23924WAT     H172014   6.277   7.399   3.104
23924WAT     H272015   6.144   7.492   3.121
23925WAT      O72016   8.987   5.132   1.025
23925WAT     H172017   8.983   5.143   0.925
23925WAT     H272018   8.930   5.201   1.069
23926WAT      O72019   8.811   2.679   9.630
23926WAT     H172020   8.829   2.632   9.717
23926WAT     H272021   8.783   2.612   9.561
23927WAT      O72022   6.391   5.610   3.031
23927WAT     H172023   6.333   5.535   2.998
23927WAT     H272024   6.448   5.643   2.956
23928WAT      O72025   1.142   4.057   8.146
23928WAT     H172026   1.052   4.022   8.172
23928WAT     H272027   1.145   4.070   8.047
23929WAT      O72028   3.572   7.271   2.165
23929WAT     H172029   3.580   7.351   2.106
23929WAT     H272030   3.481   7.231   2.155
23930WAT      O72031   7.544   5.303   5.169
23930WAT     H172032   7.502   5.351   5.246
23930WAT     H272033   7.515   5.345   5.083
23931WAT      O72034   1.077   7.907   5.957
23931WAT     H172035   1.082   7.994   5.907
23931WAT     H272036   1.108   7.922   6.051
23932WAT      O72037   6.694   6.150   1.472
23932WAT     H172038   6.755   6.156   1.550
23932WAT     H272039   6.631   6.074   1.485
23933WAT      O72040   8.210   7.717   8.989
23933WAT     H172041   8.221   7.619   8.972
23933WAT     H272042   8.154   7.731   9.071
23934WAT      O72043   6.260   8.666   6.546
23934WAT     H172044   6.180   8.625   6.590
23934WAT     H272045   6.343   8.627   6.587
23935WAT      O72046   7.464   4.832   3.661
23935WAT     H172047   7.544   4.778   3.685
23935WAT     H272048   7.387   4.771   3.639
23936WAT      O72049   5.742   5.766   3.666
23936WAT     H172050   5.764   5.731   3.575
23936WAT     H272051   5.732   5.690   3.730
23937WAT      O72052   3.309   1.002   2.097
23937WAT     H172053   3.268   1.093   2.095
23937WAT     H272054   3.253   0.941   2.153
23938WAT      O72055   0.900   2.844   9.465
23938WAT     H172056   0.976   2.905   9.444
23938WAT     H272057   0.813   2.894   9.456
23939WAT      O72058   2.712   0.316   5.294
23939WAT     H172059   2.790   0.369   5.328
23939WAT     H272060   2.745   0.233   5.250
23940WAT      O72061   0.152   4.677   6.620
23940WAT     H172062   0.082   4.737   6.580
23940WAT     H272063   0.211   4.731   6.680
23941WAT      O72064   7.919   7.036   6.486
23941WAT     H172065   7.850   7.042   6.414
23941WAT     H272066   7.913   7.116   6.545
23942WAT      O72067   2.199   1.920   7.595
23942WAT     H172068   2.184   2.014   7.562
23942WAT     H272069   2.220   1.922   7.693
23943WAT      O72070   6.917   7.708   7.354
23943WAT     H172071   6.818   7.700   7.365
23943WAT     H272072   6.950   7.634   7.294
23944WAT      O72073   2.536   2.321   3.168
23944WAT     H172074   2.468   2.393   3.158
23944WAT     H272075   2.617   2.358   3.213
23945WAT      O72076   6.599   7.460   9.727
23945WAT     H172077   6.648   7.373   9.727
23945WAT     H272078   6.654   7.529   9.680
23946WAT      O72079   3.732   0.788   3.969
23946WAT     H172080   3.702   0.705   3.923
23946WAT     H272081   3.828   0.778   3.997
23947WAT      O72082   4.434   4.887   9.137
23947WAT     H172083   4.376   4.965   9.162
23947WAT     H272084   4.377   4.811   9.106
23948WAT      O72085   4.052   8.185   4.460
23948WAT     H172086   4.134   8.210   4.407
23948WAT     H272087   3.971   8.192   4.401
23949WAT      O72088   4.890   5.969   6.601
23949WAT     H172089   4.829   5.911   6.655
23949WAT     H272090   4.916   5.921   6.518
23950WAT      O72091   5.739   7.917   8.377
23950WAT     H172092   5.771   7.971   8.299
23950WAT     H272093   5.740   7.820   8.353
23951WAT      O72094   6.335   8.947   6.568
23951WAT     H172095   6.309   8.850   6.571
23951WAT     H272096   6.434   8.955   6.555
23952WAT      O72097   3.755   1.839   9.834
23952WAT     H172098   3.817   1.915   9.813
23952WAT     H272099   3.661   1.871   9.835
23953WAT      O72100   5.839   8.219   1.677
23953WAT     H172101   5.819   8.121   1.683
23953WAT     H272102   5.910   8.243   1.743
23954WAT      O72103   7.873   9.737   2.806
23954WAT     H172104   7.875   9.704   2.900
23954WAT     H272105   7.908   9.831   2.802
23955WAT      O72106   6.098   9.009   0.888
23955WAT     H172107   6.147   9.015   0.801
23955WAT     H272108   6.099   8.915   0.921
23956WAT      O72109   8.192   8.389   6.396
23956WAT     H172110   8.095   8.367   6.408
23956WAT     H272111   8.201   8.478   6.350
23957WAT      O72112   7.656   6.581   3.238
23957WAT     H172113   7.671   6.572   3.140
23957WAT     H272114   7.627   6.493   3.276
23958WAT      O72115   7.310   0.509   2.933
23958WAT     H172116   7.314   0.532   2.835
23958WAT     H272117   7.402   0.509   2.971
23959WAT      O72118   4.708   3.768   5.171
23959WAT     H172119   4.798   3.780   5.130
23959WAT     H272120   4.646   3.726   5.104
23960WAT      O72121   5.052   8.624   5.534
23960WAT     H172122   5.130   8.602   5.476
23960WAT     H272123   5.070   8.593   5.627
23961WAT      O72124   3.215   2.335   2.149
23961WAT     H172125   3.153   2.383   2.211
23961WAT     H272126   3.177   2.334   2.057
23962WAT      O72127   4.954   4.584   3.013
23962WAT     H172128   5.044   4.541   3.011
23962WAT     H272129   4.942   4.633   3.099
23963WAT      O72130   6.066   5.099   7.196
23963WAT     H172131   5.978   5.053   7.203
23963WAT     H272132   6.138   5.032   7.177
23964WAT      O72133   2.096   6.461   3.033
23964WAT     H172134   2.159   6.459   2.955
23964WAT     H272135   2.015   6.407   3.012
23965WAT      O72136   0.252   1.806   8.715
23965WAT     H172137   0.305   1.834   8.795
23965WAT     H272138   0.237   1.885   8.656
23966WAT      O72139   5.909   1.023   8.005
23966WAT     H172140   5.926   1.033   8.103
23966WAT     H272141   5.862   0.937   7.988
23967WAT      O72142   3.774   9.501   6.547
23967WAT     H172143   3.745   9.570   6.614
23967WAT     H272144   3.804   9.419   6.595
23968WAT      O72145   6.531   5.943   1.509
23968WAT     H172146   6.512   5.856   1.463
23968WAT     H272147   6.488   5.942   1.600
23969WAT      O72148   9.751   7.000   9.427
23969WAT     H172149   9.658   7.032   9.411
23969WAT     H272150   9.793   6.975   9.339
23970WAT      O72151   3.776   5.854   5.882
23970WAT     H172152   3.788   5.910   5.963
23970WAT     H272153   3.842   5.779   5.883
23971WAT      O72154   2.639   8.294   9.429
23971WAT     H172155   2.647   8.293   9.329
23971WAT     H272156   2.711   8.237   9.468
23972WAT      O72157   7.182   9.608   4.200
23972WAT     H172158   7.266   9.561   4.173
23972WAT     H272159   7.193   9.706   4.186
23973WAT      O72160   7.078   0.518   0.958
23973WAT     H172161   7.015   0.573   0.902
23973WAT     H272162   7.154   0.575   0.987
23974WAT      O72163   9.779   7.375   0.644
23974WAT     H172164   9.785   7.391   0.743
23974WAT     H272165   9.859   7.417   0.599
23975WAT      O72166   3.417   0.597   9.194
23975WAT     H172167   3.501   0.647   9.173
23975WAT     H272168   3.434   0.498   9.186
23976WAT      O72169   3.999   7.013   6.982
23976WAT     H172170   3.931   7.080   7.012
23976WAT     H272171   3.954   6.930   6.951
23977WAT      O72172   4.223   2.678   3.891
23977WAT     H172173   4.128   2.659   3.866
23977WAT     H272174   4.279   2.683   3.808
23978WAT      O72175   6.023   2.617   3.843
23978WAT     H172176   6.000   2.545   3.778
23978WAT     H272177   5.939   2.667   3.867
23979WAT      O72178   8.969   3.312   2.167
23979WAT     H172179   9.052   3.364   2.188
23979WAT     H272180   8.895   3.375   2.143
23980WAT      O72181   4.521   3.129   4.205
23980WAT     H172182   4.461   3.162   4.278
23980WAT     H272183   4.529   3.200   4.134
23981WAT      O72184   9.837   3.752   8.894
23981WAT     H172185   9.880   3.724   8.808
23981WAT     H272186   9.772   3.682   8.923
23982WAT      O72187   0.334   2.789   8.556
23982WAT     H172188   0.259   2.855   8.557
23982WAT     H272189   0.334   2.740   8.468
23983WAT      O72190   9.187   6.445   6.076
23983WAT     H172191   9.217   6.527   6.123
23983WAT     H272192   9.152   6.379   6.143
23984WAT      O72193   0.366   1.249   7.094
23984WAT     H172194   0.329   1.334   7.131
23984WAT     H272195   0.450   1.268   7.042
23985WAT      O72196   9.773   0.786   8.278
23985WAT     H172197   9.677   0.759   8.279
23985WAT     H272198   9.828   0.715   8.321
23986WAT      O72199   3.547   4.417   1.206
23986WAT     H172200   3.516   4.497   1.258
23986WAT     H272201   3.469   4.373   1.162
23987WAT      O72202   5.671   1.503   6.941
23987WAT     H172203   5.631   1.549   7.021
23987WAT     H272204   5.727   1.426   6.972
23988WAT      O72205   7.200   4.791   9.832
23988WAT     H172206   7.163   4.817   9.921
23988WAT     H272207   7.227   4.694   9.834
23989WAT      O72208   3.312   8.597   3.592
23989WAT     H172209   3.335   8.605   3.495
23989WAT     H272210   3.393   8.567   3.643
23990WAT      O72211   3.980   3.949   1.804
23990WAT     H172212   4.058   4.001   1.840
23990WAT     H272213   3.989   3.941   1.705
23991WAT      O72214   8.384   2.631   4.870
23991WAT     H172215   8.476   2.652   4.905
23991WAT     H272216   8.317   2.645   4.943
23992WAT      O72217   6.487   6.795   2.856
23992WAT     H172218   6.523   6.848   2.933
23992WAT     H272219   6.480   6.853   2.776
23993WAT      O72220   4.361   6.097   9.329
23993WAT     H172221   4.320   6.117   9.240
23993WAT     H272222   4.436   6.032   9.317
23994WAT      O72223   6.629   2.778   1.817
23994WAT     H172224   6.580   2.691   1.819
23994WAT     H272225   6.727   2.762   1.825
23995WAT      O72226   2.238   1.335   1.822
23995WAT     H172227   2.283   1.250   1.849
23995WAT     H272228   2.211   1.386   1.904
23996WAT      O72229   1.847   7.745   9.192
23996WAT     H172230   1.924   7.686   9.214
23996WAT     H272231   1.838   7.815   9.263
23997WAT      O72232   4.313   9.100   8.561
23997WAT     H172233   4.328   9.156   8.642
23997WAT     H272234   4.395   9.101   8.504
23998WAT      O72235   2.265   2.898   7.459
23998WAT     H172236   2.338   2.945   7.411
23998WAT     H272237   2.202   2.965   7.498
23999WAT      O72238   0.953   7.826   2.314
23999WAT     H172239   0.984   7.855   2.224
23999WAT     H272240   0.957   7.726   2.320
24000WAT      O72241   8.265   5.104   5.552
24000WAT     H172242   8.234   5.142   5.464
24000WAT     H272243   8.269   5.177   5.620
24001WAT      O72244   0.656   6.490   3.725
24001WAT     H172245   0.674   6.504   3.823
24001WAT     H272246   0.663   6.577   3.677
24002WAT      O72247   9.259   4.365   4.031
24002WAT     H172248   9.334   4.352   4.096
24002WAT     H272249   9.288   4.428   3.959
24003WAT      O72250   8.018   5.473   4.466
24003WAT     H172251   7.932   5.423   4.474
24003WAT     H272252   7.999   5.568   4.441
24004WAT      O72253   4.497   2.872   4.314
24004WAT     H172254   4.455   2.828   4.235
24004WAT     H272255   4.484   2.971   4.308
24005WAT      O72256   4.323   9.411   2.032
24005WAT     H172257   4.396   9.476   2.013
24005WAT     H272258   4.362   9.321   2.052
24006WAT      O72259   8.235   5.217   5.315
24006WAT     H172260   8.230   5.315   5.332
24006WAT     H272261   8.169   5.192   5.244
24007WAT      O72262   5.948   1.207   9.409
24007WAT     H172263   5.848   1.208   9.401
24007WAT     H272264   5.978   1.115   9.434
24008WAT      O72265   0.846   3.605   0.362
24008WAT     H172266   0.781   3.585   0.436
24008WAT     H272267   0.819   3.554   0.280
24009WAT      O72268   4.807   2.778   1.628
24009WAT     H172269   4.893   2.791   1.579
24009WAT     H272270   4.734   2.756   1.563
24010WAT      O72271   1.489   5.718   1.072
24010WAT     H172272   1.570   5.773   1.093
24010WAT     H272273   1.516   5.639   1.016
24011WAT      O72274   2.105   6.814   0.711
24011WAT     H172275   2.095   6.892   0.649
24011WAT     H272276   2.016   6.785   0.744
24012WAT      O72277   5.770   5.937   0.677
24012WAT     H172278   5.809   5.985   0.756
24012WAT     H272279   5.701   5.872   0.709
24013WAT      O72280   0.870   2.627   2.503
24013WAT     H172281   0.874   2.687   2.423
24013WAT     H272282   0.775   2.610   2.528
24014WAT      O72283   3.849   6.723   3.270
24014WAT     H172284   3.899   6.757   3.350
24014WAT     H272285   3.838   6.624   3.278
24015WAT      O72286   9.191   2.373   1.224
24015WAT     H172287   9.291   2.378   1.220
24015WAT     H272288   9.154   2.380   1.132
24016WAT      O72289   2.945   0.672   1.629
24016WAT     H172290   3.017   0.682   1.561
24016WAT     H272291   2.870   0.735   1.608
24017WAT      O72292   1.185   3.451   5.483
24017WAT     H172293   1.137   3.474   5.398
24017WAT     H272294   1.278   3.489   5.479
24018WAT      O72295   3.123   6.351   0.916
24018WAT     H172296   3.025   6.331   0.918
24018WAT     H272297   3.139   6.443   0.950
24019WAT      O72298   3.966   1.141   0.407
24019WAT     H172299   3.939   1.196   0.329
24019WAT     H272300   3.999   1.201   0.480
24020WAT      O72301   5.998   1.933   0.947
24020WAT     H172302   5.914   1.878   0.951
24020WAT     H272303   6.075   1.877   0.976
24021WAT      O72304   7.906   4.890   4.977
24021WAT     H172305   8.000   4.920   4.991
24021WAT     H272306   7.878   4.908   4.883
24022WAT      O72307   2.086   0.948   5.455
24022WAT     H172308   2.110   1.016   5.386
24022WAT     H272309   2.134   0.969   5.540
24023WAT      O72310   4.486   8.899   7.596
24023WAT     H172311   4.554   8.970   7.616
24023WAT     H272312   4.395   8.939   7.595
24024WAT      O72313   0.844   1.937   5.701
24024WAT     H172314   0.836   1.890   5.789
24024WAT     H272315   0.883   1.875   5.633
24025WAT      O72316   5.165   4.763   0.733
24025WAT     H172317   5.131   4.849   0.771
24025WAT     H272318   5.101   4.731   0.662
24026WAT      O72319   3.168   7.208   4.290
24026WAT     H172320   3.194   7.162   4.375
24026WAT     H272321   3.196   7.152   4.212
24027WAT      O72322   9.074   1.463   5.394
24027WAT     H172323   9.100   1.551   5.433
24027WAT     H272324   8.992   1.429   5.439
24028WAT      O72325   9.448   8.110   5.998
24028WAT     H172326   9.459   8.194   6.051
24028WAT     H272327   9.396   8.044   6.052
24029WAT      O72328   3.974   0.306   2.498
24029WAT     H172329   3.956   0.321   2.595
24029WAT     H272330   3.890   0.323   2.446
24030WAT      O72331   5.900   1.368   1.796
24030WAT     H172332   5.867   1.462   1.784
24030WAT     H272333   5.927   1.330   1.708
24031WAT      O72334   7.031   1.948   6.618
24031WAT     H172335   7.001   2.042   6.603
24031WAT     H272336   7.108   1.948   6.682
24032WAT      O72337   3.760   0.062   0.465
24032WAT     H172338   3.696   0.036   0.538
24032WAT     H272339   3.762   0.162   0.457
24033WAT      O72340   1.976   0.821   5.211
24033WAT     H172341   2.041   0.867   5.272
24033WAT     H272342   1.894   0.876   5.203
24034WAT      O72343   8.147   6.801   8.593
24034WAT     H172344   8.065   6.793   8.536
24034WAT     H272345   8.127   6.770   8.686
24035WAT      O72346   0.825   3.863   3.931
24035WAT     H172347   0.831   3.958   3.960
24035WAT     H272348   0.825   3.858   3.832
24036WAT      O72349   9.536   2.913   5.733
24036WAT     H172350   9.543   2.817   5.706
24036WAT     H272351   9.568   2.925   5.827
24037WAT      O72352   4.209   0.673   8.819
24037WAT     H172353   4.113   0.649   8.830
24037WAT     H272354   4.238   0.731   8.895
24038WAT      O72355   7.840   3.370   6.389
24038WAT     H172356   7.770   3.382   6.459
24038WAT     H272357   7.797   3.357   6.300
24039WAT      O72358   5.472   2.965   3.739
24039WAT     H172359   5.460   2.949   3.642
24039WAT     H272360   5.398   3.023   3.773
24040WAT      O72361   1.759   6.236   8.271
24040WAT     H172362   1.743   6.173   8.194
24040WAT     H272363   1.770   6.329   8.236
24041WAT      O72364   5.242   2.308   1.300
24041WAT     H172365   5.175   2.376   1.331
24041WAT     H272366   5.331   2.330   1.339
24042WAT      O72367   2.942   4.970   3.485
24042WAT     H172368   2.879   4.912   3.433
24042WAT     H272369   2.897   5.056   3.509
24043WAT      O72370   4.360   9.353   6.746
24043WAT     H172371   4.325   9.431   6.798
24043WAT     H272372   4.353   9.270   6.803
24044WAT      O72373   9.680   7.550   4.201
24044WAT     H172374   9.613   7.498   4.256
24044WAT     H272375   9.709   7.494   4.123
24045WAT      O72376   6.862   7.004   3.216
24045WAT     H172377   6.790   6.980   3.151
24045WAT     H272378   6.825   6.998   3.309
24046WAT      O72379   9.459   1.256   6.233
24046WAT     H172380   9.361   1.266   6.247
24046WAT     H272381   9.509   1.294   6.311
24047WAT      O72382   1.340   4.458   7.163
24047WAT     H172383   1.264   4.423   7.110
24047WAT     H272384   1.425   4.412   7.135
24048WAT      O72385   9.888   7.260   6.571
24048WAT     H172386   9.869   7.291   6.665
24048WAT     H272387   9.810   7.284   6.512
24049WAT      O72388   0.806   6.949   4.109
24049WAT     H172389   0.905   6.938   4.100
24049WAT     H272390   0.772   7.007   4.035
24050WAT      O72391   9.304   8.242   5.226
24050WAT     H172392   9.305   8.250   5.326
24050WAT     H272393   9.379   8.183   5.197
24051WAT      O72394   9.425   5.312   5.956
24051WAT     H172395   9.512   5.280   5.920
24051WAT     H272396   9.351   5.253   5.924
24052WAT      O72397   8.878   9.686   4.306
24052WAT     H172398   8.911   9.765   4.253
24052WAT     H272399   8.834   9.621   4.245
24053WAT      O72400   3.772   1.657   8.866
24053WAT     H172401   3.672   1.662   8.874
24053WAT     H272402   3.808   1.595   8.935
24054WAT      O72403   8.291   7.151   5.383
24054WAT     H172404   8.262   7.210   5.308
24054WAT     H272405   8.235   7.169   5.464
24055WAT      O72406   8.959   3.018   7.668
24055WAT     H172407   8.865   2.989   7.646
24055WAT     H272408   8.991   2.970   7.749
24056WAT      O72409   5.594   1.693   2.063
24056WAT     H172410   5.691   1.717   2.055
24056WAT     H272411   5.586   1.601   2.102
24057WAT      O72412   3.631   7.203   8.655
24057WAT     H172413   3.669   7.119   8.693
24057WAT     H272414   3.647   7.279   8.718
24058WAT      O72415   0.390   2.194   1.725
24058WAT     H172416   0.372   2.106   1.770
24058WAT     H272417   0.336   2.201   1.642
24059WAT      O72418   1.501   3.747   2.722
24059WAT     H172419   1.477   3.795   2.806
24059WAT     H272420   1.529   3.813   2.652
24060WAT      O72421   3.848   4.870   4.027
24060WAT     H172422   3.752   4.854   4.046
24060WAT     H272423   3.904   4.800   4.072
24061WAT      O72424   8.903   4.955   9.629
24061WAT     H172425   9.001   4.970   9.611
24061WAT     H272426   8.863   5.039   9.665
24062WAT      O72427   7.204   4.335   5.955
24062WAT     H172428   7.133   4.346   6.024
24062WAT     H272429   7.267   4.413   5.960
24063WAT      O72430   2.000   6.460   7.637
24063WAT     H172431   2.062   6.385   7.614
24063WAT     H272432   2.028   6.501   7.723
24064WAT      O72433   6.726   3.273   2.991
24064WAT     H172434   6.800   3.336   3.013
24064WAT     H272435   6.712   3.270   2.892
24065WAT      O72436   3.104   8.975   5.180
24065WAT     H172437   3.025   8.914   5.178
24065WAT     H272438   3.109   9.021   5.269
24066WAT      O72439   7.234   3.476   5.233
24066WAT     H172440   7.274   3.546   5.173
24066WAT     H272441   7.277   3.388   5.213
24067WAT      O72442   3.215   9.350   2.872
24067WAT     H172443   3.208   9.400   2.786
24067WAT     H272444   3.277   9.272   2.861
24068WAT      O72445   8.882   4.421   9.212
24068WAT     H172446   8.913   4.368   9.133
24068WAT     H272447   8.786   4.402   9.230
24069WAT      O72448   6.143   6.604   0.577
24069WAT     H172449   6.220   6.635   0.521
24069WAT     H272450   6.081   6.549   0.521
24070WAT      O72451   8.671   3.458   1.285
24070WAT     H172452   8.758   3.499   1.259
24070WAT     H272453   8.613   3.448   1.204
24071WAT      O72454   1.183   1.551   2.805
24071WAT     H172455   1.084   1.546   2.816
24071WAT     H272456   1.211   1.646   2.792
24072WAT      O72457   8.461   3.017   9.169
24072WAT     H172458   8.500   3.081   9.235
24072WAT     H272459   8.378   3.056   9.129
24073WAT      O72460   3.821   3.655   0.334
24073WAT     H172461   3.915   3.630   0.310
24073WAT     H272462   3.780   3.708   0.259
24074WAT      O72463   1.363   9.606   5.537
24074WAT     H172464   1.377   9.561   5.626
24074WAT     H272465   1.353   9.537   5.466
24075WAT      O72466   8.318   7.336   6.206
24075WAT     H172467   8.293   7.263   6.269
24075WAT     H272468   8.410   7.319   6.169
24076WAT      O72469   9.881   0.227   5.151
24076WAT     H172470   9.886   0.128   5.164
24076WAT     H272471   9.853   0.270   5.237
24077WAT      O72472   6.073   1.363   6.415
24077WAT     H172473   6.032   1.273   6.402
24077WAT     H272474   6.002   1.433   6.420
24078WAT      O72475   0.670   8.709   7.364
24078WAT     H172476   0.647   8.626   7.312
24078WAT     H272477   0.763   8.700   7.401
24079WAT      O72478   4.436   5.627   7.969
24079WAT     H172479   4.424   5.724   7.993
24079WAT     H272480   4.347   5.586   7.949
24080WAT      O72481   1.084   2.937   2.899
24080WAT     H172482   1.033   3.004   2.845
24080WAT     H272483   1.150   2.984   2.958
24081WAT      O72484   4.210   3.057   1.895
24081WAT     H172485   4.177   3.150   1.881
24081WAT     H272486   4.156   2.994   1.839
24082WAT      O72487   1.075   4.516   1.952
24082WAT     H172488   1.004   4.519   2.023
24082WAT     H272489   1.114   4.425   1.947
24083WAT      O72490   8.357   2.510   2.620
24083WAT     H172491   8.404   2.579   2.676
24083WAT     H272492   8.258   2.522   2.629
24084WAT      O72493   0.987   7.939   3.476
24084WAT     H172494   1.018   7.930   3.571
24084WAT     H272495   0.940   7.856   3.448
24085WAT      O72496   2.782   4.108   2.708
24085WAT     H172497   2.778   4.128   2.806
24085WAT     H272498   2.779   4.009   2.694
24086WAT      O72499   9.484   0.188   4.393
24086WAT     H172500   9.582   0.207   4.396
24086WAT     H272501   9.467   0.114   4.328
24087WAT      O72502   1.412   0.177   0.449
24087WAT     H172503   1.313   0.190   0.448
24087WAT     H272504   1.457   0.267   0.450
24088WAT      O72505   3.312   6.049   8.395
24088WAT     H172506   3.326   6.029   8.492
24088WAT     H272507   3.337   5.968   8.341
24089WAT      O72508   7.470   6.227   1.363
24089WAT     H172509   7.562   6.224   1.323
24089WAT     H272510   7.412   6.285   1.306
24090WAT      O72511   3.577   0.803   6.479
24090WAT     H172512   3.607   0.735   6.546
24090WAT     H272513   3.557   0.889   6.526
24091WAT      O72514   2.684   7.781   3.917
24091WAT     H172515   2.716   7.700   3.967
24091WAT     H272516   2.730   7.862   3.954
24092WAT      O72517   8.998   0.355   0.403
24092WAT     H172518   8.908   0.358   0.359
24092WAT     H272519   9.030   0.261   0.407
24093WAT      O72520   5.177   2.034   1.977
24093WAT     H172521   5.164   1.963   1.908
24093WAT     H272522   5.190   1.992   2.067
24094WAT      O72523   3.534   9.307   1.946
24094WAT     H172524   3.487   9.253   1.876
24094WAT     H272525   3.550   9.400   1.913
24095WAT      O72526   1.891   6.808   1.188
24095WAT     H172527   1.934   6.788   1.276
24095WAT     H272528   1.953   6.862   1.131
24096WAT      O72529   1.812   0.993   6.815
24096WAT     H172530   1.720   1.027   6.793
24096WAT     H272531   1.808   0.942   6.900
24097WAT      O72532   2.664   6.488   2.823
24097WAT     H172533   2.621   6.489   2.733
24097WAT     H272534   2.728   6.412   2.829
24098WAT      O72535   8.394   4.138   2.549
24098WAT     H172536   8.321   4.184   2.600
24098WAT     H272537   8.391   4.167   2.454
24099WAT      O72538   8.388   6.949   3.519
24099WAT     H172539   8.451   6.973   3.445
24099WAT     H272540   8.418   6.865   3.563
24100WAT      O72541   1.042   1.214   7.850
24100WAT     H172542   1.068   1.257   7.764
24100WAT     H272543   1.029   1.284   7.920
24101WAT      O72544   2.920   4.985   6.950
24101WAT     H172545   2.857   5.056   6.920
24101WAT     H272546   2.991   4.972   6.880
24102WAT      O72547   6.157   1.586   2.365
24102WAT     H172548   6.239   1.562   2.313
24102WAT     H272549   6.184   1.630   2.450
24103WAT      O72550   6.762   6.200   0.830
24103WAT     H172551   6.754   6.245   0.919
24103WAT     H272552   6.813   6.258   0.767
24104WAT      O72553   3.050   3.576   1.260
24104WAT     H172554   2.977   3.643   1.245
24104WAT     H272555   3.010   3.485   1.268
24105WAT      O72556   3.914   7.828   3.017
24105WAT     H172557   3.866   7.856   3.100
24105WAT     H272558   3.851   7.826   2.940
24106WAT      O72559   1.546   8.038   9.283
24106WAT     H172560   1.526   8.045   9.185
24106WAT     H272561   1.633   7.992   9.297
24107WAT      O72562   9.031   5.343   0.258
24107WAT     H172563   9.042   5.439   0.282
24107WAT     H272564   8.962   5.302   0.318
24108WAT      O72565   0.539   1.670   5.485
24108WAT     H172566   0.572   1.764   5.478
24108WAT     H272567   0.603   1.609   5.437
24109WAT      O72568   1.136   5.379   5.586
24109WAT     H172569   1.119   5.337   5.497
24109WAT     H272570   1.208   5.448   5.578
24110WAT      O72571   8.119   2.529   9.506
24110WAT     H172572   8.101   2.435   9.475
24110WAT     H272573   8.216   2.550   9.494
24111WAT      O72574   8.608   5.838   5.898
24111WAT     H172575   8.660   5.859   5.981
24111WAT     H272576   8.640   5.896   5.823
24112WAT      O72577   5.442   7.692   2.236
24112WAT     H172578   5.384   7.638   2.176
24112WAT     H272579   5.512   7.633   2.276
24113WAT      O72580   5.441   1.578   3.284
24113WAT     H172581   5.497   1.504   3.323
24113WAT     H272582   5.359   1.591   3.339
24114WAT      O72583   9.079   9.616   6.487
24114WAT     H172584   9.051   9.705   6.524
24114WAT     H272585   9.040   9.543   6.542
24115WAT      O72586   7.115   6.569   5.447
24115WAT     H172587   7.075   6.616   5.526
24115WAT     H272588   7.043   6.519   5.398
24116WAT      O72589   6.658   1.900   7.058
24116WAT     H172590   6.661   1.806   7.025
24116WAT     H272591   6.733   1.952   7.015
24117WAT      O72592   2.185   2.885   4.062
24117WAT     H172593   2.259   2.912   4.123
24117WAT     H272594   2.118   2.959   4.056
24118WAT      O72595   3.629   1.783   3.043
24118WAT     H172596   3.704   1.722   3.070
24118WAT     H272597   3.605   1.843   3.119
24119WAT      O72598   4.417   7.306   1.620
24119WAT     H172599   4.393   7.382   1.681
24119WAT     H272600   4.495   7.333   1.563
24120WAT      O72601   0.266   7.839   7.265
24120WAT     H172602   0.336   7.771   7.284
24120WAT     H272603   0.235   7.881   7.350
24121WAT      O72604   4.163   6.826   3.785
24121WAT     H172605   4.257   6.827   3.751
24121WAT     H272606   4.146   6.741   3.835
24122WAT      O72607   8.991   0.733   1.337
24122WAT     H172608   8.948   0.674   1.405
24122WAT     H272609   9.026   0.677   1.262
24123WAT      O72610   6.599   2.994   5.098
24123WAT     H172611   6.565   3.067   5.038
24123WAT     H272612   6.675   2.946   5.053
24124WAT      O72613   7.605   2.458   0.364
24124WAT     H172614   7.581   2.508   0.280
24124WAT     H272615   7.701   2.475   0.386
24125WAT      O72616   1.538   4.951   8.975
24125WAT     H172617   1.547   4.851   8.969
24125WAT     H272618   1.529   4.989   8.883
24126WAT      O72619   6.120   7.453   6.698
24126WAT     H172620   6.216   7.457   6.724
24126WAT     H272621   6.099   7.362   6.662
24127WAT      O72622   3.464   0.392   3.279
24127WAT     H172623   3.511   0.457   3.219
24127WAT     H272624   3.427   0.317   3.223
24128WAT      O72625   3.286   1.363   3.741
24128WAT     H172626   3.204   1.307   3.737
24128WAT     H272627   3.366   1.305   3.725
24129WAT      O72628   8.567   7.866   5.173
24129WAT     H172629   8.633   7.880   5.099
24129WAT     H272630   8.616   7.861   5.260
24130WAT      O72631   4.314   9.337   2.426
24130WAT     H172632   4.232   9.332   2.369
24130WAT     H272633   4.392   9.367   2.371
24131WAT      O72634   2.757   9.683   9.231
24131WAT     H172635   2.729   9.587   9.226
24131WAT     H272636   2.679   9.740   9.258
24132WAT      O72637   7.878   6.747   1.910
24132WAT     H172638   7.917   6.663   1.873
24132WAT     H272639   7.877   6.817   1.839
24133WAT      O72640   8.837   7.302   6.325
24133WAT     H172641   8.846   7.359   6.406
24133WAT     H272642   8.904   7.228   6.328
24134WAT      O72643   5.136   0.418   1.010
24134WAT     H172644   5.037   0.413   1.018
24134WAT     H272645   5.172   0.479   1.081
24135WAT      O72646   3.792   3.698   5.645
24135WAT     H172647   3.777   3.601   5.630
24135WAT     H272648   3.710   3.749   5.615
24136WAT      O72649   2.683   9.533   5.342
24136WAT     H172650   2.621   9.610   5.357
24136WAT     H272651   2.724   9.505   5.428
24137WAT      O72652   0.223   5.854   1.223
24137WAT     H172653   0.263   5.903   1.146
24137WAT     H272654   0.134   5.896   1.246
24138WAT      O72655   0.494   8.015   1.669
24138WAT     H172656   0.455   8.104   1.647
24138WAT     H272657   0.584   8.006   1.626
24139WAT      O72658   0.343   7.164   1.812
24139WAT     H172659   0.422   7.177   1.872
24139WAT     H272660   0.372   7.115   1.730
24140WAT      O72661   8.342   2.424   5.361
24140WAT     H172662   8.259   2.369   5.372
24140WAT     H272663   8.415   2.366   5.326
24141WAT      O72664   0.467   2.447   7.191
24141WAT     H172665   0.544   2.407   7.241
24141WAT     H272666   0.382   2.432   7.242
24142WAT      O72667   7.911   5.297   1.312
24142WAT     H172668   7.848   5.367   1.278
24142WAT     H272669   7.952   5.248   1.236
24143WAT      O72670   4.817   9.002   5.310
24143WAT     H172671   4.726   9.041   5.292
24143WAT     H272672   4.887   9.064   5.275
24144WAT      O72673   1.039   8.996   7.908
24144WAT     H172674   1.062   9.090   7.883
24144WAT     H272675   0.979   8.957   7.838
24145WAT      O72676   5.469   2.773   5.768
24145WAT     H172677   5.467   2.729   5.857
24145WAT     H272678   5.436   2.867   5.776
24146WAT      O72679   4.796   4.315   0.762
24146WAT     H172680   4.782   4.405   0.721
24146WAT     H272681   4.870   4.268   0.714
24147WAT      O72682   5.103   9.052   0.851
24147WAT     H172683   5.150   9.112   0.916
24147WAT     H272684   5.049   9.107   0.787
24148WAT      O72685   3.233   4.668   6.193
24148WAT     H172686   3.205   4.761   6.169
24148WAT     H272687   3.328   4.669   6.225
24149WAT      O72688   5.785   9.223   3.626
24149WAT     H172689   5.882   9.245   3.615
24149WAT     H272690   5.742   9.218   3.536
24150WAT      O72691   9.801   8.047   1.171
24150WAT     H172692   9.868   8.020   1.240
24150WAT     H272693   9.752   8.129   1.201
24151WAT      O72694   9.004   5.603   0.604
24151WAT     H172695   8.953   5.667   0.662
24151WAT     H272696   9.058   5.542   0.662
24152WAT      O72697   8.203   9.199   5.090
24152WAT     H172698   8.106   9.181   5.106
24152WAT     H272699   8.227   9.288   5.129
24153WAT      O72700   6.550   7.564   1.621
24153WAT     H172701   6.567   7.467   1.604
24153WAT     H272702   6.457   7.587   1.592
24154WAT      O72703   0.222   1.887   2.253
24154WAT     H172704   0.220   1.793   2.222
24154WAT     H272705   0.317   1.917   2.265
24155WAT      O72706   2.144   5.255   7.136
24155WAT     H172707   2.083   5.254   7.057
24155WAT     H272708   2.116   5.185   7.201
24156WAT      O72709   2.982   4.847   1.166
24156WAT     H172710   2.945   4.816   1.079
24156WAT     H272711   3.082   4.847   1.162
24157WAT      O72712   4.289   2.861   8.778
24157WAT     H172713   4.376   2.869   8.730
24157WAT     H272714   4.219   2.827   8.716
24158WAT      O72715   6.825   8.527   2.028
24158WAT     H172716   6.823   8.577   1.941
24158WAT     H272717   6.827   8.429   2.009
24159WAT      O72718   0.092   8.293   7.760
24159WAT     H172719   0.012   8.233   7.760
24159WAT     H272720   0.066   8.384   7.792
24160WAT      O72721   9.404   4.650   2.823
24160WAT     H172722   9.327   4.712   2.841
24160WAT     H272723   9.413   4.585   2.898
24161WAT      O72724   4.486   6.676   2.897
24161WAT     H172725   4.580   6.643   2.902
24161WAT     H272726   4.424   6.600   2.876
24162WAT      O72727   4.587   7.156   4.178
24162WAT     H172728   4.492   7.144   4.149
24162WAT     H272729   4.592   7.230   4.245
24163WAT      O72730   9.566   6.470   0.059
24163WAT     H172731   9.631   6.543   0.038
24163WAT     H272732   9.615   6.384   0.074
24164WAT      O72733   5.736   3.710   2.332
24164WAT     H172734   5.738   3.636   2.400
24164WAT     H272735   5.706   3.673   2.244
24165WAT      O72736   9.713   5.540   3.424
24165WAT     H172737   9.803   5.527   3.382
24165WAT     H272738   9.719   5.611   3.494
24166WAT      O72739   1.015   4.307   7.856
24166WAT     H172740   0.932   4.257   7.834
24166WAT     H272741   1.092   4.270   7.804
24167WAT      O72742   8.874   8.061   2.107
24167WAT     H172743   8.967   8.046   2.138
24167WAT     H272744   8.868   8.149   2.060
24168WAT      O72745   8.381   7.780   6.196
24168WAT     H172746   8.428   7.853   6.246
24168WAT     H272747   8.359   7.705   6.259
24169WAT      O72748   6.280   0.908   2.386
24169WAT     H172749   6.348   0.939   2.319
24169WAT     H272750   6.305   0.942   2.477
24170WAT      O72751   6.067   4.761   6.915
24170WAT     H172752   5.999   4.813   6.864
24170WAT     H272753   6.020   4.693   6.972
24171WAT      O72754   8.111   7.087   3.842
24171WAT     H172755   8.209   7.099   3.823
24171WAT     H272756   8.093   6.991   3.864
24172WAT      O72757   3.616   1.575   3.310
24172WAT     H172758   3.613   1.476   3.320
24172WAT     H272759   3.523   1.611   3.305
24173WAT      O72760   4.325   1.125   1.278
24173WAT     H172761   4.365   1.038   1.251
24173WAT     H272762   4.390   1.176   1.334
24174WAT      O72763   7.993   6.835   7.934
24174WAT     H172764   7.949   6.924   7.920
24174WAT     H272765   8.081   6.849   7.981
24175WAT      O72766   5.132   1.926   3.636
24175WAT     H172767   5.137   1.996   3.565
24175WAT     H272768   5.180   1.957   3.718
24176WAT      O72769   6.198   5.437   9.188
24176WAT     H172770   6.213   5.370   9.115
24176WAT     H272771   6.192   5.390   9.276
24177WAT      O72772   2.238   9.186   1.719
24177WAT     H172773   2.309   9.155   1.783
24177WAT     H272774   2.243   9.286   1.711
24178WAT      O72775   8.744   4.923   8.976
24178WAT     H172776   8.713   4.829   8.987
24178WAT     H272777   8.841   4.923   8.950
24179WAT      O72778   7.684   8.322   8.735
24179WAT     H172779   7.638   8.334   8.823
24179WAT     H272780   7.670   8.403   8.679
24180WAT      O72781   3.799   5.956   8.341
24180WAT     H172782   3.742   5.876   8.358
24180WAT     H272783   3.876   5.930   8.283
24181WAT      O72784   8.006   7.078   6.084
24181WAT     H172785   8.095   7.051   6.119
24181WAT     H272786   7.962   6.999   6.042
24182WAT      O72787   9.021   8.072   1.787
24182WAT     H172788   8.990   7.983   1.754
24182WAT     H272789   9.041   8.132   1.709
24183WAT      O72790   5.113   5.586   2.034
24183WAT     H172791   5.074   5.495   2.020
24183WAT     H272792   5.059   5.635   2.102
24184WAT      O72793   7.643   2.370   4.571
24184WAT     H172794   7.561   2.365   4.513
24184WAT     H272795   7.617   2.356   4.666
24185WAT      O72796   7.945   7.432   1.683
24185WAT     H172797   7.873   7.363   1.690
24185WAT     H272798   7.924   7.496   1.610
24186WAT      O72799   3.711   3.911   4.879
24186WAT     H172800   3.635   3.971   4.853
24186WAT     H272801   3.686   3.816   4.862
24187WAT      O72802   3.201   2.270   1.029
24187WAT     H172803   3.267   2.230   0.966
24187WAT     H272804   3.237   2.355   1.067
24188WAT      O72805   4.251   7.782   2.169
24188WAT     H172806   4.343   7.799   2.133
24188WAT     H272807   4.249   7.805   2.267
24189WAT      O72808   0.921   0.730   6.806
24189WAT     H172809   0.927   0.680   6.893
24189WAT     H272810   0.829   0.769   6.796
24190WAT      O72811   3.499   0.490   1.540
24190WAT     H172812   3.484   0.529   1.631
24190WAT     H272813   3.443   0.408   1.530
24191WAT      O72814   8.639   8.327   9.327
24191WAT     H172815   8.655   8.330   9.425
24191WAT     H272816   8.572   8.396   9.301
24192WAT      O72817   9.038   7.230   3.038
24192WAT     H172818   8.992   7.157   2.988
24192WAT     H272819   9.040   7.313   2.982
24193WAT      O72820   2.736   1.377   2.413
24193WAT     H172821   2.776   1.432   2.339
24193WAT     H272822   2.747   1.426   2.499
24194WAT      O72823   5.736   9.558   2.108
24194WAT     H172824   5.699   9.616   2.036
24194WAT     H272825   5.834   9.576   2.119
24195WAT      O72826   5.769   3.395   5.528
24195WAT     H172827   5.677   3.431   5.547
24195WAT     H272828   5.805   3.352   5.611
24196WAT      O72829   9.212   7.974   5.810
24196WAT     H172830   9.119   8.002   5.784
24196WAT     H272831   9.269   8.056   5.820
24197WAT      O72832   3.129   0.639   9.733
24197WAT     H172833   3.058   0.706   9.709
24197WAT     H272834   3.158   0.653   9.827
24198WAT      O72835   1.170   1.495   6.136
24198WAT     H172836   1.090   1.510   6.194
24198WAT     H272837   1.186   1.397   6.125
24199WAT      O72838   3.965   5.999   2.483
24199WAT     H172839   3.967   5.935   2.559
24199WAT     H272840   3.938   6.089   2.515
24200WAT      O72841   0.599   4.832   5.662
24200WAT     H172842   0.556   4.760   5.606
24200WAT     H272843   0.672   4.876   5.609
24201WAT      O72844   1.236   8.115   9.776
24201WAT     H172845   1.160   8.156   9.826
24201WAT     H272846   1.237   8.150   9.682
24202WAT      O72847   7.495   1.909   3.080
24202WAT     H172848   7.535   1.993   3.117
24202WAT     H272849   7.493   1.914   2.980
24203WAT      O72850   4.424   7.714   1.682
24203WAT     H172851   4.442   7.641   1.747
24203WAT     H272852   4.347   7.689   1.624
24204WAT      O72853   3.335   6.265   7.694
24204WAT     H172854   3.389   6.212   7.759
24204WAT     H272855   3.320   6.210   7.611
24205WAT      O72856   6.728   4.473   3.054
24205WAT     H172857   6.684   4.472   3.144
24205WAT     H272858   6.798   4.402   3.051
24206WAT      O72859   0.286   9.790   7.460
24206WAT     H172860   0.374   9.766   7.500
24206WAT     H272861   0.287   9.766   7.363
24207WAT      O72862   8.033   1.115   9.600
24207WAT     H172863   7.971   1.193   9.596
24207WAT     H272864   8.029   1.074   9.692
24208WAT      O72865   9.147   1.825   6.067
24208WAT     H172866   9.125   1.908   6.118
24208WAT     H272867   9.153   1.748   6.130
24209WAT      O72868   4.296   9.586   8.763
24209WAT     H172869   4.243   9.627   8.837
24209WAT     H272870   4.390   9.619   8.768
24210WAT      O72871   8.245   9.068   2.976
24210WAT     H172872   8.213   9.007   3.048
24210WAT     H272873   8.339   9.095   2.994
24211WAT      O72874   2.969   9.533   4.366
24211WAT     H172875   2.889   9.573   4.410
24211WAT     H272876   3.011   9.467   4.429
24212WAT      O72877   7.923   7.744   6.212
24212WAT     H172878   7.913   7.655   6.256
24212WAT     H272879   7.993   7.738   6.141
24213WAT      O72880   8.768   7.609   7.099
24213WAT     H172881   8.813   7.665   7.028
24213WAT     H272882   8.835   7.548   7.140
24214WAT      O72883   0.920   8.539   2.862
24214WAT     H172884   0.916   8.521   2.961
24214WAT     H272885   0.842   8.595   2.835
24215WAT      O72886   8.270   5.686   2.499
24215WAT     H172887   8.241   5.591   2.510
24215WAT     H272888   8.288   5.704   2.402
24216WAT      O72889   7.107   7.907   5.600
24216WAT     H172890   7.062   7.878   5.685
24216WAT     H272891   7.194   7.951   5.623
24217WAT      O72892   4.193   9.312   6.493
24217WAT     H172893   4.153   9.391   6.448
24217WAT     H272894   4.270   9.341   6.550
24218WAT      O72895   3.484   2.946   6.415
24218WAT     H172896   3.462   2.985   6.326
24218WAT     H272897   3.417   2.977   6.483
24219WAT      O72898   9.152   7.618   7.797
24219WAT     H172899   9.151   7.521   7.819
24219WAT     H272900   9.169   7.671   7.881
24220WAT      O72901   1.563   6.518   5.247
24220WAT     H172902   1.565   6.496   5.344
24220WAT     H272903   1.476   6.490   5.207
24221WAT      O72904   3.652   6.571   3.888
24221WAT     H172905   3.564   6.528   3.904
24221WAT     H272906   3.708   6.566   3.971
24222WAT      O72907   7.564   3.494   4.656
24222WAT     H172908   7.664   3.485   4.660
24222WAT     H272909   7.539   3.556   4.582
24223WAT      O72910   7.102   1.017   0.342
24223WAT     H172911   7.144   0.942   0.393
24223WAT     H272912   7.174   1.072   0.299
24224WAT      O72913   1.672   3.016   7.364
24224WAT     H172914   1.738   3.087   7.389
24224WAT     H272915   1.683   2.937   7.424
24225WAT      O72916   2.035   4.134   8.197
24225WAT     H172917   1.987   4.091   8.274
24225WAT     H272918   2.133   4.141   8.219
24226WAT      O72919   8.332   6.437   0.198
24226WAT     H172920   8.392   6.470   0.272
24226WAT     H272921   8.280   6.514   0.160
24227WAT      O72922   3.671   5.562   6.376
24227WAT     H172923   3.593   5.623   6.387
24227WAT     H272924   3.639   5.470   6.355
24228WAT      O72925   1.542   8.410   0.296
24228WAT     H172926   1.579   8.491   0.251
24228WAT     H272927   1.471   8.438   0.362
24229WAT      O72928   6.476   5.922   5.534
24229WAT     H172929   6.498   5.939   5.630
24229WAT     H272930   6.528   5.985   5.476
24230WAT      O72931   0.805   9.281   7.839
24230WAT     H172932   0.751   9.208   7.796
24230WAT     H272933   0.746   9.360   7.857
24231WAT      O72934   5.248   2.747   3.404
24231WAT     H172935   5.314   2.818   3.429
24231WAT     H272936   5.158   2.789   3.389
24232WAT      O72937   8.807   6.418   2.728
24232WAT     H172938   8.887   6.456   2.683
24232WAT     H272939   8.790   6.467   2.814
24233WAT      O72940   1.531   8.893   1.950
24233WAT     H172941   1.507   8.845   1.866
24233WAT     H272942   1.560   8.826   2.019
24234WAT      O72943   3.948   0.979   0.027
24234WAT     H172944   4.010   0.956  -0.048
24234WAT     H272945   3.993   0.961   0.115
24235WAT      O72946   4.362   6.019   6.470
24235WAT     H172947   4.330   5.980   6.384
24235WAT     H272948   4.426   6.093   6.452
24236WAT      O72949   0.636   8.875   2.340
24236WAT     H172950   0.703   8.808   2.371
24236WAT     H272951   0.604   8.928   2.418
24237WAT      O72952   2.217   5.363   2.985
24237WAT     H172953   2.217   5.372   2.885
24237WAT     H272954   2.128   5.391   3.020
24238WAT      O72955   0.680   5.893   4.526
24238WAT     H172956   0.632   5.861   4.444
24238WAT     H272957   0.762   5.944   4.498
24239WAT      O72958   8.644   7.236   6.542
24239WAT     H172959   8.658   7.312   6.606
24239WAT     H272960   8.626   7.272   6.451
24240WAT      O72961   0.361   3.276   2.341
24240WAT     H172962   0.277   3.242   2.384
24240WAT     H272963   0.429   3.296   2.412
24241WAT      O72964   0.984   7.698   8.331
24241WAT     H172965   0.973   7.743   8.243
24241WAT     H272966   0.922   7.620   8.337
24242WAT      O72967   3.026   1.522   8.514
24242WAT     H172968   3.080   1.443   8.545
24242WAT     H272969   3.051   1.602   8.568
24243WAT      O72970   0.463   5.743   6.123
24243WAT     H172971   0.553   5.782   6.106
24243WAT     H272972   0.418   5.794   6.196
24244WAT      O72973   3.875   7.399   3.651
24244WAT     H172974   3.837   7.422   3.561
24244WAT     H272975   3.809   7.342   3.701
24245WAT      O72976   8.468   1.766   9.293
24245WAT     H172977   8.524   1.693   9.255
24245WAT     H272978   8.379   1.730   9.321
24246WAT      O72979   7.356   6.337   9.289
24246WAT     H172980   7.379   6.240   9.296
24246WAT     H272981   7.285   6.359   9.355
24247WAT      O72982   0.580   6.333   2.801
24247WAT     H172983   0.644   6.391   2.750
24247WAT     H272984   0.486   6.361   2.781
24248WAT      O72985   4.262   6.291   5.981
24248WAT     H172986   4.176   6.290   5.931
24248WAT     H272987   4.316   6.370   5.953
24249WAT      O72988   3.809   3.875   6.606
24249WAT     H172989   3.780   3.808   6.674
24249WAT     H272990   3.822   3.829   6.518
24250WAT      O72991   9.640   5.636   7.236
24250WAT     H172992   9.563   5.684   7.279
24250WAT     H272993   9.715   5.700   7.221
24251WAT      O72994   4.591   5.019   4.926
24251WAT     H172995   4.584   5.005   5.025
24251WAT     H272996   4.681   4.987   4.895
24252WAT      O72997   1.974   0.116   1.877
24252WAT     H172998   1.924   0.042   1.833
24252WAT     H272999   1.986   0.096   1.974
24253WAT      O73000   7.541   6.130   4.150
24253WAT     H173001   7.542   6.101   4.246
24253WAT     H273002   7.509   6.225   4.145
24254WAT      O73003   0.339   9.307   3.864
24254WAT     H173004   0.302   9.215   3.857
24254WAT     H273005   0.313   9.359   3.782
24255WAT      O73006   7.850   6.102   0.391
24255WAT     H173007   7.893   6.093   0.481
24255WAT     H273008   7.920   6.126   0.323
24256WAT      O73009   1.835   1.981   3.286
24256WAT     H173010   1.825   1.898   3.340
24256WAT     H273011   1.932   2.006   3.279
24257WAT      O73012   7.665   4.887   9.583
24257WAT     H173013   7.627   4.817   9.523
24257WAT     H273014   7.606   4.898   9.663
24258WAT      O73015   5.814   2.909   3.086
24258WAT     H173016   5.908   2.901   3.052
24258WAT     H273017   5.791   3.005   3.100
24259WAT      O73018   4.433   3.810   5.977
24259WAT     H173019   4.509   3.819   5.913
24259WAT     H273020   4.353   3.775   5.929
24260WAT      O73021   0.143   6.854   6.069
24260WAT     H173022   0.081   6.904   6.130
24260WAT     H273023   0.116   6.757   6.066
24261WAT      O73024   6.978   7.409   0.351
24261WAT     H173025   6.963   7.372   0.259
24261WAT     H273026   6.988   7.509   0.345
24262WAT      O73027   1.768   4.648   8.385
24262WAT     H173028   1.706   4.618   8.458
24262WAT     H273029   1.817   4.569   8.349
24263WAT      O73030   8.259   3.729   1.094
24263WAT     H173031   8.194   3.733   1.018
24263WAT     H273032   8.349   3.702   1.061
24264WAT      O73033   5.440   4.299   8.736
24264WAT     H173034   5.387   4.361   8.794
24264WAT     H273035   5.509   4.253   8.792
24265WAT      O73036   0.536   3.824   3.285
24265WAT     H173037   0.515   3.781   3.198
24265WAT     H273038   0.547   3.754   3.356
24266WAT      O73039   3.434   3.979   0.960
24266WAT     H173040   3.398   3.899   0.913
24266WAT     H273041   3.385   3.992   1.047
24267WAT      O73042   6.025   3.219   4.253
24267WAT     H173043   6.015   3.315   4.226
24267WAT     H273044   6.003   3.210   4.351
24268WAT      O73045   6.211   1.366   8.992
24268WAT     H173046   6.165   1.345   9.078
24268WAT     H273047   6.181   1.301   8.922
24269WAT      O73048   8.033   8.874   4.068
24269WAT     H173049   8.021   8.779   4.099
24269WAT     H273050   7.953   8.927   4.095
24270WAT      O73051   8.421   9.682   0.429
24270WAT     H173052   8.351   9.629   0.476
24270WAT     H273053   8.511   9.657   0.464
24271WAT      O73054   3.571   7.416   6.127
24271WAT     H173055   3.581   7.491   6.061
24271WAT     H273056   3.492   7.434   6.185
24272WAT      O73057   2.423   7.934   1.344
24272WAT     H173058   2.369   7.913   1.262
24272WAT     H273059   2.461   8.026   1.336
24273WAT      O73060   9.175   0.804   4.040
24273WAT     H173061   9.247   0.735   4.034
24273WAT     H273062   9.129   0.812   3.952
24274WAT      O73063   7.259   6.242   3.680
24274WAT     H173064   7.297   6.282   3.596
24274WAT     H273065   7.312   6.273   3.758
24275WAT      O73066   3.472   4.589   2.337
24275WAT     H173067   3.430   4.665   2.388
24275WAT     H273068   3.563   4.616   2.308
24276WAT      O73069   2.495   2.666   6.166
24276WAT     H173070   2.549   2.608   6.226
24276WAT     H273071   2.507   2.762   6.192
24277WAT      O73072   1.472   4.997   9.876
24277WAT     H173073   1.508   4.907   9.902
24277WAT     H273074   1.518   5.029   9.793
24278WAT      O73075   5.951   0.078   1.083
24278WAT     H173076   6.042   0.101   1.049
24278WAT     H273077   5.931  -0.017   1.063
24279WAT      O73078   2.387   8.481   0.961
24279WAT     H173079   2.455   8.518   1.024
24279WAT     H273080   2.323   8.553   0.935
24280WAT      O73081   3.160   4.994   6.355
24280WAT     H173082   3.171   4.990   6.255
24280WAT     H273083   3.082   4.938   6.382
24281WAT      O73084   4.449   5.306   2.613
24281WAT     H173085   4.501   5.252   2.680
24281WAT     H273086   4.464   5.268   2.521
24282WAT      O73087   7.239   0.604   8.854
24282WAT     H173088   7.334   0.591   8.883
24282WAT     H273089   7.183   0.632   8.932
24283WAT      O73090   8.750   3.952   6.422
24283WAT     H173091   8.686   4.027   6.406
24283WAT     H273092   8.720   3.871   6.372
24284WAT      O73093   4.650   3.672   1.959
24284WAT     H173094   4.689   3.764   1.957
24284WAT     H273095   4.628   3.643   1.866
24285WAT      O73096   9.027   1.393   4.780
24285WAT     H173097   9.011   1.296   4.794
24285WAT     H273098   8.950   1.445   4.818
24286WAT      O73099   4.188   3.040   6.465
24286WAT     H173100   4.251   2.996   6.529
24286WAT     H273101   4.230   3.044   6.374
24287WAT      O73102   0.514   3.781   0.985
24287WAT     H173103   0.490   3.874   1.011
24287WAT     H273104   0.431   3.728   0.969
24288WAT      O73105   4.587   0.584   1.000
24288WAT     H173106   4.546   0.608   0.912
24288WAT     H273107   4.563   0.490   1.024
24289WAT      O73108   0.107   7.916   6.019
24289WAT     H173109   0.106   7.880   5.926
24289WAT     H273110   0.197   7.956   6.037
24290WAT      O73111   4.134   2.072   4.198
24290WAT     H173112   4.211   2.131   4.223
24290WAT     H273113   4.116   2.080   4.100
24291WAT      O73114   5.653   4.520   0.669
24291WAT     H173115   5.691   4.435   0.631
24291WAT     H273116   5.562   4.536   0.630
24292WAT      O73117   1.567   3.656   8.024
24292WAT     H173118   1.554   3.715   7.944
24292WAT     H273119   1.481   3.651   8.075
24293WAT      O73120   8.873   2.146   3.520
24293WAT     H173121   8.955   2.097   3.547
24293WAT     H273122   8.873   2.160   3.421
24294WAT      O73123   6.091   2.857   1.836
24294WAT     H173124   6.093   2.950   1.799
24294WAT     H273125   6.183   2.831   1.865
24295WAT      O73126   7.897   1.398   8.573
24295WAT     H173127   7.971   1.339   8.543
24295WAT     H273128   7.817   1.383   8.515
24296WAT      O73129   1.150   0.033   4.376
24296WAT     H173130   1.202  -0.049   4.350
24296WAT     H273131   1.140   0.093   4.297
24297WAT      O73132   3.340   2.633   2.598
24297WAT     H173133   3.309   2.549   2.554
24297WAT     H273134   3.265   2.671   2.653
24298WAT      O73135   8.196   1.214   9.011
24298WAT     H173136   8.100   1.195   8.990
24298WAT     H273137   8.250   1.132   8.996
24299WAT      O73138   0.191   8.562   2.613
24299WAT     H173139   0.118   8.616   2.571
24299WAT     H273140   0.153   8.477   2.650
24300WAT      O73141   0.684   1.448   8.591
24300WAT     H173142   0.755   1.430   8.523
24300WAT     H273143   0.616   1.510   8.552
24301WAT      O73144   0.884   8.949   8.911
24301WAT     H173145   0.898   8.855   8.944
24301WAT     H273146   0.936   8.962   8.827
24302WAT      O73147   8.382   5.478   3.939
24302WAT     H173148   8.473   5.518   3.936
24302WAT     H273149   8.349   5.474   4.033
24303WAT      O73150   8.458   3.470   1.455
24303WAT     H173151   8.553   3.439   1.458
24303WAT     H273152   8.433   3.491   1.361
24304WAT      O73153   7.805   5.599   6.333
24304WAT     H173154   7.832   5.638   6.245
24304WAT     H273155   7.745   5.664   6.381
24305WAT      O73156   7.990   5.390   8.779
24305WAT     H173157   8.012   5.429   8.689
24305WAT     H273158   8.047   5.434   8.849
24306WAT      O73159   7.913   6.528   5.121
24306WAT     H173160   8.010   6.512   5.136
24306WAT     H273161   7.870   6.444   5.089
24307WAT      O73162   8.495   9.249   5.800
24307WAT     H173163   8.522   9.181   5.732
24307WAT     H273164   8.576   9.277   5.853
24308WAT      O73165   1.790   1.248   4.755
24308WAT     H173166   1.881   1.289   4.757
24308WAT     H273167   1.767   1.223   4.661
24309WAT      O73168   5.310   4.710   3.941
24309WAT     H173169   5.284   4.752   3.854
24309WAT     H273170   5.383   4.763   3.984
24310WAT      O73171   8.049   9.364   7.482
24310WAT     H173172   8.129   9.305   7.474
24310WAT     H273173   7.967   9.313   7.455
24311WAT      O73174   1.920   4.943   5.416
24311WAT     H173175   1.992   4.874   5.408
24311WAT     H273176   1.882   4.962   5.326
24312WAT      O73177   2.098   0.815   9.567
24312WAT     H173178   2.070   0.755   9.642
24312WAT     H273179   2.197   0.806   9.554
24313WAT      O73180   7.370   4.259   8.059
24313WAT     H173181   7.277   4.231   8.036
24313WAT     H273182   7.372   4.291   8.154
24314WAT      O73183   1.439   6.005   9.834
24314WAT     H173184   1.392   5.947   9.767
24314WAT     H273185   1.480   5.948   9.905
24315WAT      O73186   0.207   3.825   5.571
24315WAT     H173187   0.290   3.878   5.583
24315WAT     H273188   0.129   3.876   5.608
24316WAT      O73189   2.076   3.906   0.829
24316WAT     H173190   2.073   3.998   0.867
24316WAT     H273191   2.149   3.901   0.760
24317WAT      O73192   5.617   8.825   2.653
24317WAT     H173193   5.685   8.804   2.582
24317WAT     H273194   5.526   8.802   2.620
24318WAT      O73195   9.419   0.806   6.091
24318WAT     H173196   9.365   0.884   6.122
24318WAT     H273197   9.363   0.750   6.030
24319WAT      O73198   4.974   3.648   5.609
24319WAT     H173199   5.053   3.588   5.602
24319WAT     H273200   4.891   3.598   5.583
24320WAT      O73201   1.918   7.932   6.442
24320WAT     H173202   1.941   7.986   6.361
24320WAT     H273203   1.998   7.878   6.470
24321WAT      O73204   9.670   8.040   8.378
24321WAT     H173205   9.640   8.089   8.296
24321WAT     H273206   9.591   8.021   8.436
24322WAT      O73207   9.780   7.809   3.210
24322WAT     H173208   9.720   7.868   3.264
24322WAT     H273209   9.727   7.771   3.134
24323WAT      O73210   9.023   7.559   4.312
24323WAT     H173211   8.935   7.579   4.269
24323WAT     H273212   9.058   7.641   4.356
24324WAT      O73213   7.309   0.626   9.557
24324WAT     H173214   7.385   0.611   9.620
24324WAT     H273215   7.223   0.622   9.608
24325WAT      O73216   2.926   6.142   3.707
24325WAT     H173217   2.853   6.196   3.749
24325WAT     H273218   2.993   6.117   3.776
24326WAT      O73219   9.871   8.845   6.632
24326WAT     H173220   9.864   8.759   6.684
24326WAT     H273221   9.923   8.828   6.548
24327WAT      O73222   6.916   3.867   1.097
24327WAT     H173223   6.848   3.872   1.171
24327WAT     H273224   6.953   3.959   1.080
24328WAT      O73225   5.802   8.810   8.329
24328WAT     H173226   5.720   8.785   8.278
24328WAT     H273227   5.777   8.841   8.421
24329WAT      O73228   4.161   3.170   6.813
24329WAT     H173229   4.207   3.254   6.787
24329WAT     H273230   4.085   3.191   6.875
24330WAT      O73231   6.450   0.482   9.249
24330WAT     H173232   6.438   0.530   9.162
24330WAT     H273233   6.548   0.467   9.265
24331WAT      O73234   4.102   7.890   4.459
24331WAT     H173235   4.021   7.843   4.495
24331WAT     H273236   4.100   7.986   4.486
24332WAT      O73237   4.441   6.984   5.299
24332WAT     H173238   4.361   7.001   5.357
24332WAT     H273239   4.425   7.024   5.208
24333WAT      O73240   1.160   0.539   5.837
24333WAT     H173241   1.063   0.527   5.857
24333WAT     H273242   1.177   0.633   5.805
24334WAT      O73243   0.160   5.630   7.399
24334WAT     H173244   0.254   5.608   7.425
24334WAT     H273245   0.107   5.546   7.391
24335WAT      O73246   9.848   6.793   7.046
24335WAT     H173247   9.942   6.767   7.069
24335WAT     H273248   9.848   6.887   7.010
24336WAT      O73249   2.086   6.939   1.819
24336WAT     H173250   2.151   7.014   1.834
24336WAT     H273251   1.993   6.972   1.834
24337WAT      O73252   9.182   6.304   9.515
24337WAT     H173253   9.229   6.327   9.600
24337WAT     H273254   9.114   6.374   9.494
24338WAT      O73255   8.562   5.210   6.147
24338WAT     H173256   8.647   5.191   6.099
24338WAT     H273257   8.532   5.128   6.197
24339WAT      O73258   1.510   8.736   0.029
24339WAT     H173259   1.482   8.708  -0.063
24339WAT     H273260   1.584   8.676   0.062
24340WAT      O73261   2.790   1.315   0.107
24340WAT     H173262   2.766   1.218   0.112
24340WAT     H273263   2.796   1.342   0.010
24341WAT      O73264   1.174   3.529   3.102
24341WAT     H173265   1.184   3.612   3.047
24341WAT     H273266   1.139   3.455   3.045
24342WAT      O73267   0.213   9.425   2.098
24342WAT     H173268   0.173   9.373   2.173
24342WAT     H273269   0.184   9.385   2.011
24343WAT      O73270   0.211   8.332   9.448
24343WAT     H173271   0.241   8.428   9.440
24343WAT     H273272   0.270   8.274   9.391
24344WAT      O73273   1.359   5.932   8.867
24344WAT     H173274   1.266   5.926   8.832
24344WAT     H273275   1.363   5.891   8.958
24345WAT      O73276   8.375   9.391   7.976
24345WAT     H173277   8.305   9.458   8.002
24345WAT     H273278   8.373   9.378   7.877
24346WAT      O73279   1.170   4.774   9.290
24346WAT     H173280   1.200   4.820   9.206
24346WAT     H273281   1.204   4.823   9.370
24347WAT      O73282   6.017   8.388   0.420
24347WAT     H173283   5.989   8.398   0.516
24347WAT     H273284   6.007   8.476   0.374
24348WAT      O73285   4.200   8.555   8.683
24348WAT     H173286   4.186   8.653   8.693
24348WAT     H273287   4.232   8.535   8.591
24349WAT      O73288   4.702   6.861   3.343
24349WAT     H173289   4.664   6.768   3.347
24349WAT     H273290   4.639   6.920   3.292
24350WAT      O73291   8.086   6.679   7.194
24350WAT     H173292   8.036   6.672   7.108
24350WAT     H273293   8.177   6.715   7.177
24351WAT      O73294   3.115   3.157   4.058
24351WAT     H173295   3.096   3.150   3.960
24351WAT     H273296   3.031   3.182   4.107
24352WAT      O73297   4.399   9.506   7.936
24352WAT     H173298   4.466   9.580   7.926
24352WAT     H273299   4.437   9.421   7.901
24353WAT      O73300   3.720   8.643   0.823
24353WAT     H173301   3.769   8.693   0.752
24353WAT     H273302   3.622   8.666   0.818
24354WAT      O73303   6.564   4.435   3.278
24354WAT     H173304   6.585   4.346   3.320
24354WAT     H273305   6.468   4.437   3.250
24355WAT      O73306   6.701   8.567   3.210
24355WAT     H173307   6.604   8.580   3.232
24355WAT     H273308   6.710   8.488   3.149
24356WAT      O73309   8.216   6.328   3.647
24356WAT     H173310   8.212   6.357   3.551
24356WAT     H273311   8.184   6.403   3.705
24357WAT      O73312   0.865   7.526   4.807
24357WAT     H173313   0.852   7.441   4.858
24357WAT     H273314   0.830   7.602   4.860
24358WAT      O73315   8.771   2.417   2.661
24358WAT     H173316   8.826   2.348   2.709
24358WAT     H273317   8.719   2.373   2.588
24359WAT      O73318   5.671   9.762   5.054
24359WAT     H173319   5.656   9.860   5.069
24359WAT     H273320   5.768   9.740   5.070
24360WAT      O73321   9.635   6.351   7.065
24360WAT     H173322   9.609   6.355   7.161
24360WAT     H273323   9.653   6.443   7.032
24361WAT      O73324   1.048   3.584   6.572
24361WAT     H173325   1.116   3.586   6.646
24361WAT     H273326   0.990   3.503   6.582
24362WAT      O73327   2.292   7.022   2.207
24362WAT     H173328   2.333   7.102   2.165
24362WAT     H273329   2.324   6.939   2.161
24363WAT      O73330   3.218   8.329   2.438
24363WAT     H173331   3.197   8.248   2.493
24363WAT     H273332   3.307   8.365   2.466
24364WAT      O73333   0.577   4.520   8.453
24364WAT     H173334   0.513   4.451   8.487
24364WAT     H273335   0.541   4.560   8.368
24365WAT      O73336   8.039   0.556   6.383
24365WAT     H173337   8.005   0.463   6.399
24365WAT     H273338   7.964   0.613   6.349
24366WAT      O73339   0.274   4.141   0.504
24366WAT     H173340   0.298   4.234   0.477
24366WAT     H273341   0.175   4.130   0.503
24367WAT      O73342   8.974   5.400   1.308
24367WAT     H173343   8.924   5.462   1.248
24367WAT     H273344   9.069   5.394   1.280
24368WAT      O73345   0.262   2.243   0.655
24368WAT     H173346   0.332   2.180   0.621
24368WAT     H273347   0.258   2.324   0.597
24369WAT      O73348   9.857   5.773   8.965
24369WAT     H173349   9.944   5.729   8.991
24369WAT     H273350   9.806   5.796   9.048
24370WAT      O73351   7.023   4.914   1.136
24370WAT     H173352   6.999   4.867   1.051
24370WAT     H273353   6.973   4.872   1.212
24371WAT      O73354   9.209   3.864   0.730
24371WAT     H173355   9.197   3.843   0.633
24371WAT     H273356   9.145   3.937   0.756
24372WAT      O73357   1.158   9.245   3.311
24372WAT     H173358   1.095   9.303   3.362
24372WAT     H273359   1.107   9.189   3.246
24373WAT      O73360   6.927   5.936   8.648
24373WAT     H173361   6.946   5.840   8.667
24373WAT     H273362   6.997   5.993   8.691
24374WAT      O73363   4.679   5.566   3.683
24374WAT     H173364   4.761   5.624   3.681
24374WAT     H273365   4.667   5.523   3.593
24375WAT      O73366   8.393   8.194   5.021
24375WAT     H173367   8.358   8.285   4.998
24375WAT     H273368   8.493   8.197   5.028
24376WAT      O73369   0.500   9.792   1.530
24376WAT     H173370   0.579   9.799   1.469
24376WAT     H273371   0.530   9.764   1.621
24377WAT      O73372   8.797   1.036   8.832
24377WAT     H173373   8.771   1.031   8.735
24377WAT     H273374   8.792   1.131   8.862
24378WAT      O73375   6.186   2.307   2.530
24378WAT     H173376   6.109   2.248   2.555
24378WAT     H273377   6.155   2.402   2.532
24379WAT      O73378   7.769   5.341   4.510
24379WAT     H173379   7.771   5.258   4.455
24379WAT     H273380   7.687   5.341   4.568
24380WAT      O73381   2.727   4.064   8.772
24380WAT     H173382   2.676   4.028   8.850
24380WAT     H273383   2.732   3.993   8.701
24381WAT      O73384   4.689   7.979   9.735
24381WAT     H173385   4.594   7.967   9.706
24381WAT     H273386   4.737   8.039   9.671
24382WAT      O73387   8.556   5.411   9.128
24382WAT     H173388   8.609   5.382   9.049
24382WAT     H273389   8.458   5.403   9.108
24383WAT      O73390   8.500   0.058   0.065
24383WAT     H173391   8.470   0.151   0.044
24383WAT     H273392   8.600   0.057   0.077
24384WAT      O73393   2.157   1.220   4.120
24384WAT     H173394   2.217   1.292   4.086
24384WAT     H273395   2.190   1.187   4.208
24385WAT      O73396   3.670   0.098   8.452
24385WAT     H173397   3.663   0.050   8.365
24385WAT     H273398   3.630   0.189   8.443
24386WAT      O73399   6.603   8.301   0.991
24386WAT     H173400   6.612   8.397   0.966
24386WAT     H273401   6.607   8.244   0.909
24387WAT      O73402   9.056   6.255   6.254
24387WAT     H173403   9.083   6.185   6.320
24387WAT     H273404   9.022   6.212   6.171
24388WAT      O73405   9.819   5.837   5.564
24388WAT     H173406   9.867   5.890   5.494
24388WAT     H273407   9.722   5.833   5.541
24389WAT      O73408   3.236   1.255   9.422
24389WAT     H173409   3.142   1.234   9.395
24389WAT     H273410   3.249   1.354   9.422
24390WAT      O73411   1.562   7.797   5.216
24390WAT     H173412   1.546   7.699   5.234
24390WAT     H273413   1.644   7.807   5.160
24391WAT      O73414   1.783   1.220   5.562
24391WAT     H173415   1.711   1.286   5.540
24391WAT     H273416   1.747   1.128   5.554
24392WAT      O73417   0.369   0.990   4.540
24392WAT     H173418   0.332   0.906   4.578
24392WAT     H273419   0.463   0.974   4.508
24393WAT      O73420   8.235   7.993   7.347
24393WAT     H173421   8.166   8.052   7.390
24393WAT     H273422   8.234   8.007   7.248
24394WAT      O73423   2.077   9.551   3.924
24394WAT     H173424   2.122   9.465   3.946
24394WAT     H273425   2.145   9.622   3.906
24395WAT      O73426   8.315   1.632   0.791
24395WAT     H173427   8.352   1.539   0.795
24395WAT     H273428   8.270   1.653   0.878
24396WAT      O73429   1.289   4.282   4.005
24396WAT     H173430   1.222   4.217   4.042
24396WAT     H273431   1.259   4.313   3.915
24397WAT      O73432   7.386   7.656   1.339
24397WAT     H173433   7.344   7.652   1.430
24397WAT     H273434   7.322   7.619   1.271
24398WAT      O73435   9.359   4.899   6.711
24398WAT     H173436   9.396   4.813   6.675
24398WAT     H273437   9.343   4.889   6.809
24399WAT      O73438   6.114   2.035   2.282
24399WAT     H173439   6.028   2.040   2.333
24399WAT     H273440   6.122   1.946   2.238
24400WAT      O73441   9.251   7.662   3.888
24400WAT     H173442   9.242   7.563   3.874
24400WAT     H273443   9.180   7.709   3.836
24401WAT      O73444   8.386   0.197   6.051
24401WAT     H173445   8.405   0.145   6.135
24401WAT     H273446   8.458   0.264   6.036
24402WAT      O73447   0.013   0.549   8.356
24402WAT     H173448  -0.051   0.486   8.312
24402WAT     H273449   0.098   0.551   8.304
24403WAT      O73450   9.726   8.456   8.017
24403WAT     H173451   9.741   8.359   8.000
24403WAT     H273452   9.788   8.510   7.959
24404WAT      O73453   7.936   0.093   7.912
24404WAT     H173454   7.973   0.086   8.005
24404WAT     H273455   7.836   0.097   7.917
24405WAT      O73456   9.283   1.038   7.985
24405WAT     H173457   9.280   1.135   8.009
24405WAT     H273458   9.339   0.989   8.052
24406WAT      O73459   6.497   5.349   4.543
24406WAT     H173460   6.494   5.445   4.513
24406WAT     H273461   6.591   5.315   4.533
24407WAT      O73462   1.851   4.605   1.936
24407WAT     H173463   1.793   4.524   1.944
24407WAT     H273464   1.900   4.618   2.022
24408WAT      O73465   0.531   1.096   5.759
24408WAT     H173466   0.434   1.070   5.764
24408WAT     H273467   0.538   1.191   5.727
24409WAT      O73468   9.240   9.573   3.161
24409WAT     H173469   9.288   9.631   3.226
24409WAT     H273470   9.263   9.600   3.068
24410WAT      O73471   0.888   3.111   9.666
24410WAT     H173472   0.826   3.169   9.613
24410WAT     H273473   0.965   3.084   9.608
24411WAT      O73474   3.356   9.637   7.870
24411WAT     H173475   3.404   9.564   7.918
24411WAT     H273476   3.258   9.620   7.873
24412WAT      O73477   2.336   9.297   7.314
24412WAT     H173478   2.391   9.311   7.232
24412WAT     H273479   2.278   9.217   7.301
24413WAT      O73480   7.814   0.345   7.060
24413WAT     H173481   7.909   0.355   7.032
24413WAT     H273482   7.756   0.401   7.001
24414WAT      O73483   5.229   7.690   8.342
24414WAT     H173484   5.224   7.594   8.318
24414WAT     H273485   5.215   7.700   8.441
24415WAT      O73486   1.999   5.194   8.498
24415WAT     H173487   2.092   5.215   8.528
24415WAT     H273488   1.934   5.233   8.564
24416WAT      O73489   9.636   6.216   0.471
24416WAT     H173490   9.726   6.173   0.461
24416WAT     H273491   9.618   6.233   0.568
24417WAT      O73492   0.329   9.607   6.386
24417WAT     H173493   0.319   9.569   6.294
24417WAT     H273494   0.268   9.685   6.397
24418WAT      O73495   7.273   9.750   6.652
24418WAT     H173496   7.196   9.800   6.611
24418WAT     H273497   7.311   9.804   6.726
24419WAT      O73498   7.358   8.244   7.543
24419WAT     H173499   7.342   8.253   7.445
24419WAT     H273500   7.449   8.278   7.566
24420WAT      O73501   0.887   4.054   0.535
24420WAT     H173502   0.934   3.993   0.471
24420WAT     H273503   0.792   4.065   0.507
24421WAT      O73504   5.165   3.888   8.629
24421WAT     H173505   5.094   3.829   8.668
24421WAT     H273506   5.140   3.912   8.535
24422WAT      O73507   1.265   3.156   4.953
24422WAT     H173508   1.257   3.149   5.052
24422WAT     H273509   1.228   3.244   4.922
24423WAT      O73510   0.647   4.064   0.723
24423WAT     H173511   0.675   4.157   0.749
24423WAT     H273512   0.570   4.035   0.779
24424WAT      O73513   7.324   5.911   8.865
24424WAT     H173514   7.301   5.838   8.930
24424WAT     H273515   7.415   5.893   8.826
24425WAT      O73516   6.542   4.015   5.554
24425WAT     H173517   6.447   4.037   5.531
24425WAT     H273518   6.587   4.096   5.592
24426WAT      O73519   6.320   4.176   8.217
24426WAT     H173520   6.270   4.248   8.169
24426WAT     H273521   6.410   4.210   8.245
24427WAT      O73522   2.806   3.091   6.025
24427WAT     H173523   2.858   3.130   6.102
24427WAT     H273524   2.709   3.094   6.046
24428WAT      O73525   4.668   6.100   3.190
24428WAT     H173526   4.716   6.166   3.248
24428WAT     H273527   4.734   6.052   3.132
24429WAT      O73528   7.534   9.621   7.316
24429WAT     H173529   7.476   9.702   7.306
24429WAT     H273530   7.565   9.591   7.226
24430WAT      O73531   7.561   8.765   2.329
24430WAT     H173532   7.541   8.683   2.382
24430WAT     H273533   7.515   8.843   2.371
24431WAT      O73534   0.767   9.658   3.834
24431WAT     H173535   0.671   9.660   3.803
24431WAT     H273536   0.827   9.654   3.754
24432WAT      O73537   7.242   6.017   7.821
24432WAT     H173538   7.144   6.028   7.804
24432WAT     H273539   7.266   5.920   7.817
24433WAT      O73540   6.642   0.122   9.844
24433WAT     H173541   6.628   0.220   9.831
24433WAT     H273542   6.699   0.107   9.925
24434WAT      O73543   9.307   0.144   0.489
24434WAT     H173544   9.240   0.076   0.516
24434WAT     H273545   9.386   0.098   0.447
24435WAT      O73546   4.214   0.997   7.429
24435WAT     H173547   4.253   0.978   7.519
24435WAT     H273548   4.285   1.031   7.367
24436WAT      O73549   9.629   8.137   4.072
24436WAT     H173550   9.580   8.206   4.019
24436WAT     H273551   9.728   8.155   4.068
24437WAT      O73552   8.206   3.437   0.358
24437WAT     H173553   8.214   3.363   0.291
24437WAT     H273554   8.126   3.423   0.415
24438WAT      O73555   9.537   6.114   3.818
24438WAT     H173556   9.605   6.106   3.891
24438WAT     H273557   9.532   6.210   3.788
24439WAT      O73558   6.921   6.930   0.250
24439WAT     H173559   6.886   6.890   0.166
24439WAT     H273560   6.856   6.999   0.283
24440WAT      O73561   6.687   1.754   2.339
24440WAT     H173562   6.750   1.691   2.384
24440WAT     H273563   6.737   1.833   2.305
24441WAT      O73564   8.957   4.515   3.770
24441WAT     H173565   8.935   4.562   3.685
24441WAT     H273566   9.055   4.524   3.789
24442WAT      O73567   3.811   8.638   8.687
24442WAT     H173568   3.855   8.557   8.726
24442WAT     H273569   3.821   8.637   8.588
24443WAT      O73570   4.583   0.061   1.267
24443WAT     H173571   4.612   0.045   1.173
24443WAT     H273572   4.573   0.160   1.282
24444WAT      O73573   2.469   6.079   1.824
24444WAT     H173574   2.468   6.129   1.737
24444WAT     H273575   2.550   6.105   1.877
24445WAT      O73576   2.432   6.843   2.042
24445WAT     H173577   2.484   6.858   1.958
24445WAT     H273578   2.389   6.753   2.038
24446WAT      O73579   6.767   8.868   0.123
24446WAT     H173580   6.788   8.911   0.211
24446WAT     H273581   6.671   8.840   0.122
24447WAT      O73582   7.239   7.589   4.718
24447WAT     H173583   7.337   7.571   4.728
24447WAT     H273584   7.202   7.533   4.644
24448WAT      O73585   4.791   8.294   2.864
24448WAT     H173586   4.807   8.201   2.830
24448WAT     H273587   4.799   8.359   2.789
24449WAT      O73588   2.046   5.334   5.252
24449WAT     H173589   2.087   5.394   5.183
24449WAT     H273590   2.093   5.246   5.253
24450WAT      O73591   7.631   6.306   3.341
24450WAT     H173592   7.614   6.258   3.427
24450WAT     H273593   7.665   6.241   3.273
24451WAT      O73594   5.498   1.285   7.015
24451WAT     H173595   5.581   1.335   6.993
24451WAT     H273596   5.423   1.349   7.032
24452WAT      O73597   6.625   1.136   3.098
24452WAT     H173598   6.574   1.221   3.082
24452WAT     H273599   6.723   1.156   3.097
24453WAT      O73600   6.929   6.150   5.348
24453WAT     H173601   6.930   6.092   5.267
24453WAT     H273602   6.998   6.118   5.413
24454WAT      O73603   7.115   5.128   3.050
24454WAT     H173604   7.018   5.102   3.055
24454WAT     H273605   7.166   5.079   3.121
24455WAT      O73606   7.677   5.063   8.463
24455WAT     H173607   7.684   5.156   8.499
24455WAT     H273608   7.636   5.004   8.533
24456WAT      O73609   6.808   2.826   6.539
24456WAT     H173610   6.743   2.863   6.472
24456WAT     H273611   6.891   2.883   6.540
24457WAT      O73612   1.079   7.279   0.453
24457WAT     H173613   1.028   7.277   0.368
24457WAT     H273614   1.033   7.339   0.519
24458WAT      O73615   1.111   3.505   0.328
24458WAT     H173616   1.032   3.529   0.383
24458WAT     H273617   1.109   3.407   0.307
24459WAT      O73618   1.518   9.009   0.060
24459WAT     H173619   1.521   8.910   0.045
24459WAT     H273620   1.609   9.041   0.085
24460WAT      O73621   0.375   5.277   1.011
24460WAT     H173622   0.276   5.267   1.002
24460WAT     H273623   0.409   5.336   0.938
24461WAT      O73624   4.198   1.618   7.424
24461WAT     H173625   4.155   1.703   7.456
24461WAT     H273626   4.274   1.595   7.484
24462WAT      O73627   9.502   0.319   3.993
24462WAT     H173628   9.478   0.283   3.903
24462WAT     H273629   9.501   0.419   3.991
24463WAT      O73630   0.636   5.270   0.644
24463WAT     H173631   0.593   5.201   0.702
24463WAT     H273632   0.731   5.244   0.626
24464WAT      O73633   3.431   4.024   1.857
24464WAT     H173634   3.513   4.064   1.815
24464WAT     H273635   3.372   4.098   1.891
24465WAT      O73636   0.353   5.889   4.989
24465WAT     H173637   0.384   5.900   4.894
24465WAT     H273638   0.402   5.952   5.048
24466WAT      O73639   4.764   9.727   6.302
24466WAT     H173640   4.853   9.740   6.344
24466WAT     H273641   4.698   9.790   6.343
24467WAT      O73642   4.453   5.293   1.587
24467WAT     H173643   4.525   5.354   1.555
24467WAT     H273644   4.374   5.346   1.615
24468WAT      O73645   0.855   2.873   7.605
24468WAT     H173646   0.804   2.930   7.668
24468WAT     H273647   0.829   2.777   7.617
24469WAT      O73648   0.948   1.207   7.352
24469WAT     H173649   0.912   1.287   7.304
24469WAT     H273650   0.875   1.141   7.367
24470WAT      O73651   2.580   9.291   0.878
24470WAT     H173652   2.670   9.281   0.836
24470WAT     H273653   2.540   9.379   0.851
24471WAT      O73654   3.022   8.238   0.117
24471WAT     H173655   2.976   8.270   0.034
24471WAT     H273656   2.954   8.223   0.189
24472WAT      O73657   2.766   3.599   8.408
24472WAT     H173658   2.732   3.617   8.500
24472WAT     H273659   2.705   3.533   8.362
24473WAT      O73660   4.618   8.650   8.021
24473WAT     H173661   4.716   8.641   8.003
24473WAT     H273662   4.604   8.676   8.116
24474WAT      O73663   6.960   7.028   5.592
24474WAT     H173664   6.909   7.015   5.678
24474WAT     H273665   7.017   7.110   5.600
24475WAT      O73666   1.479   7.482   1.707
24475WAT     H173667   1.496   7.450   1.800
24475WAT     H273668   1.467   7.581   1.707
24476WAT      O73669   3.292   4.215   5.197
24476WAT     H173670   3.360   4.259   5.255
24476WAT     H273671   3.206   4.206   5.247
24477WAT      O73672   5.720   8.141   7.154
24477WAT     H173673   5.635   8.094   7.179
24477WAT     H273674   5.791   8.073   7.133
24478WAT      O73675   5.841   5.786   9.179
24478WAT     H173676   5.925   5.836   9.198
24478WAT     H273677   5.847   5.694   9.216
24479WAT      O73678   0.914   8.955   0.498
24479WAT     H173679   0.852   9.016   0.547
24479WAT     H273680   1.004   8.998   0.492
24480WAT      O73681   9.286   3.442   6.430
24480WAT     H173682   9.253   3.389   6.351
24480WAT     H273683   9.212   3.455   6.495
24481WAT      O73684   5.013   4.067   7.823
24481WAT     H173685   4.973   4.065   7.732
24481WAT     H273686   4.946   4.104   7.888
24482WAT      O73687   8.743   2.460   9.437
24482WAT     H173688   8.821   2.398   9.426
24482WAT     H273689   8.725   2.508   9.351
24483WAT      O73690   8.265   9.827   9.370
24483WAT     H173691   8.173   9.834   9.330
24483WAT     H273692   8.307   9.741   9.342
24484WAT      O73693   7.337   7.099   4.448
24484WAT     H173694   7.413   7.164   4.443
24484WAT     H273695   7.256   7.137   4.405
24485WAT      O73696   5.727   1.552   9.706
24485WAT     H173697   5.664   1.478   9.681
24485WAT     H273698   5.677   1.639   9.707
24486WAT      O73699   5.936   0.749   0.266
24486WAT     H173700   5.961   0.800   0.348
24486WAT     H273701   5.906   0.814   0.195
24487WAT      O73702   9.857   8.852   3.645
24487WAT     H173703   9.803   8.927   3.608
24487WAT     H273704   9.868   8.781   3.575
24488WAT      O73705   3.050   0.023   6.827
24488WAT     H173706   3.002  -0.023   6.752
24488WAT     H273707   3.081  -0.044   6.893
24489WAT      O73708   0.270   4.251   3.134
24489WAT     H173709   0.350   4.242   3.075
24489WAT     H273710   0.284   4.199   3.218
24490WAT      O73711   6.919   9.515   4.114
24490WAT     H173712   7.001   9.573   4.102
24490WAT     H273713   6.928   9.434   4.056
24491WAT      O73714   6.191   6.755   6.937
24491WAT     H173715   6.167   6.836   6.884
24491WAT     H273716   6.111   6.723   6.988
24492WAT      O73717   1.955   6.560   7.948
24492WAT     H173718   1.997   6.596   8.031
24492WAT     H273719   1.909   6.635   7.899
24493WAT      O73720   7.960   7.330   6.050
24493WAT     H173721   7.976   7.232   6.058
24493WAT     H273722   7.876   7.346   5.998
24494WAT      O73723   1.987   0.773   4.823
24494WAT     H173724   1.894   0.806   4.839
24494WAT     H273725   1.993   0.676   4.842
24495WAT      O73726   7.950   6.063   1.443
24495WAT     H173727   7.972   6.160   1.454
24495WAT     H273728   7.966   6.036   1.348
24496WAT      O73729   7.528   4.367   6.569
24496WAT     H173730   7.607   4.327   6.615
24496WAT     H273731   7.479   4.296   6.519
24497WAT      O73732   2.901   7.058   8.621
24497WAT     H173733   2.883   7.144   8.667
24497WAT     H273734   2.986   7.066   8.568
24498WAT      O73735   4.394   9.366   3.980
24498WAT     H173736   4.434   9.458   3.980
24498WAT     H273737   4.392   9.332   3.886
24499WAT      O73738   4.947   2.702   6.644
24499WAT     H173739   5.037   2.741   6.663
24499WAT     H273740   4.876   2.764   6.678
24500WAT      O73741   1.911   8.990   7.212
24500WAT     H173742   1.886   8.907   7.162
24500WAT     H273743   1.984   8.970   7.277
24501WAT      O73744   7.065   2.677   9.300
24501WAT     H173745   7.045   2.758   9.356
24501WAT     H273746   7.121   2.614   9.353
24502WAT      O73747   3.635   3.136   4.439
24502WAT     H173748   3.541   3.136   4.404
24502WAT     H273749   3.684   3.057   4.403
24503WAT      O73750   5.733   1.547   2.505
24503WAT     H173751   5.715   1.459   2.548
24503WAT     H273752   5.691   1.620   2.560
24504WAT      O73753   8.958   2.599   4.352
24504WAT     H173754   8.882   2.653   4.318
24504WAT     H273755   8.930   2.504   4.363
24505WAT      O73756   7.003   6.026   0.621
24505WAT     H173757   6.928   6.080   0.659
24505WAT     H273758   6.965   5.946   0.574
24506WAT      O73759   8.024   8.057   3.923
24506WAT     H173760   8.086   8.104   3.986
24506WAT     H273761   7.954   8.121   3.892
24507WAT      O73762   6.123   6.970   4.805
24507WAT     H173763   6.074   7.007   4.884
24507WAT     H273764   6.139   6.872   4.818
24508WAT      O73765   0.965   3.210   0.518
24508WAT     H173766   0.917   3.211   0.606
24508WAT     H273767   0.909   3.165   0.449
24509WAT      O73768   1.019   1.565   6.366
24509WAT     H173769   1.013   1.617   6.451
24509WAT     H273770   0.996   1.469   6.384
24510WAT      O73771   0.102   0.092   2.070
24510WAT     H173772   0.081  -0.003   2.093
24510WAT     H273773   0.190   0.118   2.110
24511WAT      O73774   6.177   2.759   5.553
24511WAT     H173775   6.152   2.837   5.494
24511WAT     H273776   6.272   2.734   5.536
24512WAT      O73777   3.271   1.084   6.720
24512WAT     H173778   3.292   1.143   6.642
24512WAT     H273779   3.199   1.019   6.695
24513WAT      O73780   0.049   0.719   9.006
24513WAT     H173781   0.040   0.641   8.945
24513WAT     H273782   0.136   0.766   8.987
24514WAT      O73783   1.192   2.735   3.982
24514WAT     H173784   1.213   2.828   4.010
24514WAT     H273785   1.256   2.671   4.024
24515WAT      O73786   5.491   1.052   1.211
24515WAT     H173787   5.481   0.981   1.281
24515WAT     H273788   5.402   1.070   1.169
24516WAT      O73789   0.476   0.594   4.484
24516WAT     H173790   0.505   0.502   4.458
24516WAT     H273791   0.385   0.589   4.526
24517WAT      O73792   1.057   7.657   5.229
24517WAT     H173793   1.089   7.683   5.321
24517WAT     H273794   1.099   7.570   5.203
24518WAT      O73795   1.986   0.643   7.830
24518WAT     H173796   1.906   0.703   7.842
24518WAT     H273797   2.063   0.680   7.880
24519WAT      O73798   7.015   7.404   1.493
24519WAT     H173799   7.028   7.439   1.586
24519WAT     H273800   7.102   7.408   1.444
24520WAT      O73801   7.816   4.241   4.280
24520WAT     H173802   7.744   4.309   4.295
24520WAT     H273803   7.854   4.253   4.188
24521WAT      O73804   4.399   2.913   6.641
24521WAT     H173805   4.416   2.964   6.726
24521WAT     H273806   4.432   2.819   6.652
24522WAT      O73807   9.696   6.168   4.724
24522WAT     H173808   9.767   6.102   4.748
24522WAT     H273809   9.607   6.124   4.729
24523WAT      O73810   9.788   1.662   6.684
24523WAT     H173811   9.877   1.620   6.704
24523WAT     H273812   9.788   1.697   6.590
24524WAT      O73813   5.604   4.922   7.906
24524WAT     H173814   5.611   4.827   7.878
24524WAT     H273815   5.601   4.981   7.825
24525WAT      O73816   3.359   9.021   3.261
24525WAT     H173817   3.387   9.115   3.280
24525WAT     H273818   3.387   8.963   3.338
24526WAT      O73819   1.787   0.793   7.897
24526WAT     H173820   1.788   0.882   7.941
24526WAT     H273821   1.735   0.729   7.953
24527WAT      O73822   9.664   8.095   4.760
24527WAT     H173823   9.665   8.092   4.661
24527WAT     H273824   9.621   8.012   4.796
24528WAT      O73825   7.404   8.714   8.937
24528WAT     H173826   7.484   8.730   8.996
24528WAT     H273827   7.329   8.773   8.967
24529WAT      O73828   1.346   2.520   3.124
24529WAT     H173829   1.319   2.438   3.072
24529WAT     H273830   1.264   2.563   3.162
24530WAT      O73831   3.801   6.183   1.203
24530WAT     H173832   3.721   6.236   1.174
24530WAT     H273833   3.811   6.102   1.144
24531WAT      O73834   9.602   9.394   2.190
24531WAT     H173835   9.660   9.468   2.222
24531WAT     H273836   9.650   9.342   2.119
24532WAT      O73837   3.381   0.085   5.285
24532WAT     H173838   3.481   0.097   5.286
24532WAT     H273839   3.338   0.171   5.258
24533WAT      O73840   5.790   5.483   1.394
24533WAT     H173841   5.738   5.458   1.476
24533WAT     H273842   5.840   5.403   1.360
24534WAT      O73843   6.934   4.529   3.888
24534WAT     H173844   6.940   4.546   3.790
24534WAT     H273845   6.876   4.450   3.906
24535WAT      O73846   1.301   2.684   2.335
24535WAT     H173847   1.234   2.622   2.293
24535WAT     H273848   1.278   2.697   2.432
24536WAT      O73849   6.694   6.507   3.724
24536WAT     H173850   6.670   6.422   3.678
24536WAT     H273851   6.766   6.554   3.673
24537WAT      O73852   3.346   3.340   2.629
24537WAT     H173853   3.358   3.395   2.712
24537WAT     H273854   3.256   3.360   2.589
24538WAT      O73855   4.579   3.979   1.345
24538WAT     H173856   4.499   3.919   1.357
24538WAT     H273857   4.662   3.926   1.361
24539WAT      O73858   8.191   4.396   8.378
24539WAT     H173859   8.153   4.402   8.471
24539WAT     H273860   8.123   4.427   8.312
24540WAT      O73861   2.785   2.266   7.079
24540WAT     H173862   2.805   2.265   7.177
24540WAT     H273863   2.700   2.315   7.062
24541WAT      O73864   5.111   0.571   7.396
24541WAT     H173865   5.053   0.630   7.452
24541WAT     H273866   5.200   0.615   7.382
24542WAT      O73867   6.544   7.772   6.151
24542WAT     H173868   6.509   7.697   6.095
24542WAT     H273869   6.516   7.859   6.112
24543WAT      O73870   7.877   4.648   3.331
24543WAT     H173871   7.934   4.704   3.271
24543WAT     H273872   7.896   4.551   3.315
24544WAT      O73873   9.436   8.296   8.705
24544WAT     H173874   9.396   8.317   8.616
24544WAT     H273875   9.363   8.286   8.773
24545WAT      O73876   8.577   2.798   8.009
24545WAT     H173877   8.581   2.898   8.013
24545WAT     H273878   8.487   2.767   8.039
24546WAT      O73879   2.867   3.378   6.148
24546WAT     H173880   2.913   3.289   6.157
24546WAT     H273881   2.935   3.451   6.150
24547WAT      O73882   8.832   6.892   5.912
24547WAT     H173883   8.918   6.890   5.961
24547WAT     H273884   8.802   6.987   5.900
24548WAT      O73885   3.904   0.459   0.042
24548WAT     H173886   3.965   0.389   0.081
24548WAT     H273887   3.909   0.542   0.098
24549WAT      O73888   5.827   0.028   3.712
24549WAT     H173889   5.924   0.008   3.722
24549WAT     H273890   5.773  -0.051   3.742
24550WAT      O73891   7.622   0.993   7.446
24550WAT     H173892   7.575   1.082   7.444
24550WAT     H273893   7.719   1.006   7.424
24551WAT      O73894   4.535   5.205   6.163
24551WAT     H173895   4.494   5.134   6.105
24551WAT     H273896   4.574   5.277   6.105
24552WAT      O73897   4.967   8.869   5.071
24552WAT     H173898   4.995   8.950   5.121
24552WAT     H273899   4.882   8.833   5.109
24553WAT      O73900   0.580   2.812   1.313
24553WAT     H173901   0.626   2.737   1.265
24553WAT     H273902   0.629   2.832   1.398
24554WAT      O73903   5.502   4.358   0.218
24554WAT     H173904   5.585   4.399   0.257
24554WAT     H273905   5.443   4.431   0.183
24555WAT      O73906   4.426   4.912   2.987
24555WAT     H173907   4.400   4.883   3.079
24555WAT     H273908   4.344   4.918   2.930
24556WAT      O73909   9.633   6.869   8.111
24556WAT     H173910   9.729   6.896   8.101
24556WAT     H273911   9.597   6.907   8.196
24557WAT      O73912   0.248   3.252   4.997
24557WAT     H173913   0.346   3.234   4.992
24557WAT     H273914   0.198   3.166   4.989
24558WAT      O73915   9.223   0.348   9.769
24558WAT     H173916   9.212   0.252   9.744
24558WAT     H273917   9.319   0.368   9.784
24559WAT      O73918   7.880   2.328   1.189
24559WAT     H173919   7.935   2.345   1.107
24559WAT     H273920   7.942   2.316   1.268
24560WAT      O73921   5.670   0.281   2.349
24560WAT     H173922   5.574   0.266   2.372
24560WAT     H273923   5.691   0.379   2.358
24561WAT      O73924   8.012   4.292   4.491
24561WAT     H173925   7.938   4.298   4.424
24561WAT     H273926   8.071   4.372   4.482
24562WAT      O73927   8.423   4.366   9.614
24562WAT     H173928   8.402   4.447   9.668
24562WAT     H273929   8.354   4.356   9.542
24563WAT      O73930   9.617   0.250   8.543
24563WAT     H173931   9.705   0.289   8.517
24563WAT     H273932   9.550   0.324   8.555
24564WAT      O73933   6.706   8.017   4.431
24564WAT     H173934   6.663   7.939   4.477
24564WAT     H273935   6.797   8.032   4.469
24565WAT      O73936   4.228   5.021   5.883
24565WAT     H173937   4.161   5.051   5.951
24565WAT     H273938   4.190   4.944   5.831
24566WAT      O73939   7.432   4.596   2.109
24566WAT     H173940   7.476   4.632   2.191
24566WAT     H273941   7.400   4.503   2.127
24567WAT      O73942   7.525   2.745   5.740
24567WAT     H173943   7.570   2.662   5.770
24567WAT     H273944   7.472   2.784   5.815
24568WAT      O73945   2.784   7.721   6.993
24568WAT     H173946   2.872   7.692   7.030
24568WAT     H273947   2.762   7.813   7.027
24569WAT      O73948   2.261   1.440   7.694
24569WAT     H173949   2.229   1.502   7.621
24569WAT     H273950   2.284   1.494   7.775
24570WAT      O73951   0.336   6.982   3.574
24570WAT     H173952   0.243   7.018   3.574
24570WAT     H273953   0.359   6.949   3.483
24571WAT      O73954   3.752   4.274   0.790
24571WAT     H173955   3.781   4.335   0.864
24571WAT     H273956   3.798   4.301   0.705
24572WAT      O73957   6.982   1.707   8.251
24572WAT     H173958   6.997   1.749   8.341
24572WAT     H273959   7.070   1.685   8.209
24573WAT      O73960   0.327   4.563   4.890
24573WAT     H173961   0.314   4.515   4.803
24573WAT     H273962   0.407   4.623   4.883
24574WAT      O73963   0.166   1.899   5.707
24574WAT     H173964   0.203   1.984   5.745
24574WAT     H273965   0.209   1.821   5.753
24575WAT      O73966   6.947   7.149   6.254
24575WAT     H173967   6.960   7.242   6.288
24575WAT     H273968   7.006   7.086   6.305
24576WAT      O73969   6.545   1.826   3.877
24576WAT     H173970   6.544   1.907   3.935
24576WAT     H273971   6.511   1.850   3.786
24577WAT      O73972   8.652   5.412   9.391
24577WAT     H173973   8.628   5.418   9.294
24577WAT     H273974   8.568   5.399   9.445
24578WAT      O73975   4.782   0.692   3.853
24578WAT     H173976   4.798   0.664   3.948
24578WAT     H273977   4.862   0.668   3.798
24579WAT      O73978   8.925   1.882   8.034
24579WAT     H173979   8.881   1.839   8.113
24579WAT     H273980   8.875   1.857   7.951
24580WAT      O73981   1.766   4.713   5.183
24580WAT     H173982   1.803   4.806   5.172
24580WAT     H273983   1.841   4.648   5.193
24581WAT      O73984   8.562   3.799   3.416
24581WAT     H173985   8.540   3.717   3.470
24581WAT     H273986   8.590   3.772   3.324
24582WAT      O73987   8.622   4.142   0.633
24582WAT     H173988   8.680   4.152   0.714
24582WAT     H273989   8.533   4.105   0.659
24583WAT      O73990   8.466   9.607   5.464
24583WAT     H173991   8.428   9.546   5.534
24583WAT     H273992   8.540   9.661   5.504
24584WAT      O73993   1.421   7.246   7.381
24584WAT     H173994   1.436   7.151   7.409
24584WAT     H273995   1.429   7.305   7.461
24585WAT      O73996   3.063   8.875   4.303
24585WAT     H173997   3.034   8.956   4.252
24585WAT     H273998   3.066   8.796   4.242
24586WAT      O73999   5.136   7.966   5.007
24586WAT     H174000   5.187   8.046   5.040
24586WAT     H274001   5.038   7.985   5.013
24587WAT      O74002   2.902   9.420   2.746
24587WAT     H174003   2.899   9.324   2.718
24587WAT     H274004   2.878   9.478   2.668
24588WAT      O74005   7.714   0.133   4.239
24588WAT     H174006   7.800   0.099   4.201
24588WAT     H274007   7.638   0.109   4.178
24589WAT      O74008   8.815   5.291   8.970
24589WAT     H174009   8.815   5.345   8.886
24589WAT     H274010   8.869   5.207   8.956
24590WAT      O74011   4.318   4.088   9.156
24590WAT     H174012   4.401   4.060   9.203
24590WAT     H274013   4.341   4.149   9.080
24591WAT      O74014   0.920   0.846   9.645
24591WAT     H174015   0.985   0.918   9.673
24591WAT     H274016   0.960   0.792   9.572
24592WAT      O74017   5.576   1.609   6.480
24592WAT     H174018   5.528   1.673   6.539
24592WAT     H274019   5.582   1.520   6.525
24593WAT      O74020   2.916   6.147   1.468
24593WAT     H174021   2.969   6.170   1.550
24593WAT     H274022   2.846   6.079   1.491
24594WAT      O74023   3.711   7.774   2.809
24594WAT     H174024   3.613   7.777   2.829
24594WAT     H274025   3.729   7.820   2.723
24595WAT      O74026   0.581   3.839   2.116
24595WAT     H174027   0.484   3.815   2.112
24595WAT     H274028   0.600   3.886   2.202
24596WAT      O74029   7.472   7.088   5.177
24596WAT     H174030   7.390   7.039   5.208
24596WAT     H274031   7.476   7.085   5.077
24597WAT      O74032   0.742   5.022   8.257
24597WAT     H174033   0.792   4.974   8.184
24597WAT     H274034   0.645   5.000   8.250
24598WAT      O74035   1.215   8.185   3.589
24598WAT     H174036   1.122   8.179   3.624
24598WAT     H274037   1.212   8.206   3.491
24599WAT      O74038   2.893   7.996   3.986
24599WAT     H174039   2.927   8.005   4.079
24599WAT     H274040   2.835   8.074   3.963
24600WAT      O74041   5.832   4.671   8.349
24600WAT     H174042   5.883   4.591   8.382
24600WAT     H274043   5.877   4.754   8.381
24601WAT      O74044   0.256   2.476   1.340
24601WAT     H174045   0.194   2.452   1.265
24601WAT     H274046   0.262   2.575   1.348
24602WAT      O74047   5.671   4.644   4.062
24602WAT     H174048   5.731   4.700   4.119
24602WAT     H274049   5.679   4.548   4.090
24603WAT      O74050   2.872   3.541   4.645
24603WAT     H174051   2.774   3.546   4.631
24603WAT     H274052   2.916   3.504   4.564
24604WAT      O74053   3.869   8.502   3.522
24604WAT     H174054   3.919   8.580   3.485
24604WAT     H274055   3.912   8.417   3.491
24605WAT      O74056   4.984   2.215   6.115
24605WAT     H174057   4.953   2.141   6.056
24605WAT     H274058   4.978   2.186   6.211
24606WAT      O74059   2.541   4.720   1.759
24606WAT     H174060   2.484   4.754   1.834
24606WAT     H274061   2.548   4.790   1.688
24607WAT      O74062   8.140   0.686   4.352
24607WAT     H174063   8.216   0.752   4.349
24607WAT     H274064   8.171   0.602   4.396
24608WAT      O74065   2.694   2.722   3.023
24608WAT     H174066   2.664   2.813   3.051
24608WAT     H274067   2.731   2.673   3.101
24609WAT      O74068   7.496   3.832   6.704
24609WAT     H174069   7.536   3.864   6.617
24609WAT     H274070   7.534   3.743   6.727
24610WAT      O74071   9.498   8.328   3.925
24610WAT     H174072   9.461   8.411   3.968
24610WAT     H274073   9.440   8.302   3.848
24611WAT      O74074   5.190   1.451   0.570
24611WAT     H174075   5.180   1.368   0.515
24611WAT     H274076   5.109   1.462   0.628
24612WAT      O74077   7.244   5.150   6.352
24612WAT     H174078   7.336   5.170   6.318
24612WAT     H274079   7.250   5.095   6.435
24613WAT      O74080   8.979   4.130   0.414
24613WAT     H174081   9.023   4.059   0.360
24613WAT     H274082   9.043   4.206   0.426
24614WAT      O74083   7.740   5.096   7.863
24614WAT     H174084   7.755   5.173   7.925
24614WAT     H274085   7.642   5.081   7.851
24615WAT      O74086   3.952   7.243   7.139
24615WAT     H174087   3.930   7.322   7.196
24615WAT     H274088   4.003   7.176   7.193
24616WAT      O74089   0.214   2.734   0.098
24616WAT     H174090   0.150   2.786   0.041
24616WAT     H274091   0.278   2.684   0.040
24617WAT      O74092   1.262   5.058   2.144
24617WAT     H174093   1.203   5.130   2.107
24617WAT     H274094   1.311   5.013   2.069
24618WAT      O74095   2.849   3.252   6.522
24618WAT     H174096   2.803   3.341   6.527
24618WAT     H274097   2.945   3.263   6.548
24619WAT      O74098   0.401   3.177   1.296
24619WAT     H174099   0.414   3.169   1.395
24619WAT     H274100   0.408   3.086   1.255
24620WAT      O74101   5.131   1.647   9.194
24620WAT     H174102   5.196   1.631   9.120
24620WAT     H274103   5.141   1.575   9.263
24621WAT      O74104   9.475   9.249   5.856
24621WAT     H174105   9.402   9.308   5.891
24621WAT     H274106   9.552   9.250   5.920
24622WAT      O74107   7.075   8.209   0.682
24622WAT     H174108   7.163   8.161   0.678
24622WAT     H274109   7.090   8.307   0.664
24623WAT      O74110   3.553   8.608   1.867
24623WAT     H174111   3.556   8.612   1.967
24623WAT     H274112   3.634   8.561   1.833
24624WAT      O74113   2.956   6.088   9.748
24624WAT     H174114   2.992   6.134   9.829
24624WAT     H274115   3.001   6.000   9.736
24625WAT      O74116   8.500   4.632   7.814
24625WAT     H174117   8.519   4.710   7.873
24625WAT     H274118   8.479   4.665   7.721
24626WAT      O74119   8.302   3.662   9.239
24626WAT     H174120   8.398   3.676   9.212
24626WAT     H274121   8.267   3.745   9.282
24627WAT      O74122   0.889   2.667   7.235
24627WAT     H174123   0.872   2.678   7.138
24627WAT     H274124   0.931   2.578   7.253
24628WAT      O74125   7.334   9.585   0.578
24628WAT     H174126   7.296   9.588   0.671
24628WAT     H274127   7.328   9.492   0.543
24629WAT      O74128   5.947   5.637   8.777
24629WAT     H174129   5.976   5.723   8.820
24629WAT     H274130   5.913   5.574   8.846
24630WAT      O74131   4.966   9.783   8.649
24630WAT     H174132   4.982   9.832   8.735
24630WAT     H274133   5.045   9.726   8.628
24631WAT      O74134   3.562   7.657   6.000
24631WAT     H174135   3.468   7.664   5.966
24631WAT     H274136   3.626   7.685   5.929
24632WAT      O74137   3.447   8.612   9.287
24632WAT     H174138   3.349   8.630   9.299
24632WAT     H274139   3.479   8.659   9.205
24633WAT      O74140   2.617   8.389   0.560
24633WAT     H174141   2.527   8.434   0.556
24633WAT     H274142   2.666   8.408   0.475
24634WAT      O74143   3.324   6.276   1.485
24634WAT     H174144   3.319   6.227   1.398
24634WAT     H274145   3.251   6.243   1.545
24635WAT      O74146   4.774   5.611   1.127
24635WAT     H174147   4.692   5.575   1.170
24635WAT     H274148   4.773   5.711   1.131
24636WAT      O74149   6.396   0.519   3.339
24636WAT     H174150   6.489   0.492   3.363
24636WAT     H274151   6.380   0.614   3.366
24637WAT      O74152   4.389   7.369   8.127
24637WAT     H174153   4.452   7.417   8.066
24637WAT     H274154   4.307   7.424   8.142
24638WAT      O74155   0.151   4.052   9.762
24638WAT     H174156   0.179   4.127   9.822
24638WAT     H274157   0.197   4.062   9.673
24639WAT      O74158   2.710   2.434   1.178
24639WAT     H174159   2.683   2.340   1.159
24639WAT     H274160   2.755   2.473   1.097
24640WAT      O74161   2.418   9.007   6.173
24640WAT     H174162   2.344   8.967   6.226
24640WAT     H274163   2.505   8.996   6.222
24641WAT      O74164   9.413   9.068   0.501
24641WAT     H174165   9.439   9.095   0.593
24641WAT     H274166   9.315   9.081   0.489
24642WAT      O74167   2.394   3.732   8.458
24642WAT     H174168   2.361   3.790   8.533
24642WAT     H274169   2.484   3.763   8.428
24643WAT      O74170   6.285   8.229   2.361
24643WAT     H174171   6.191   8.232   2.395
24643WAT     H274172   6.308   8.135   2.336
24644WAT      O74173   2.987   8.706   7.480
24644WAT     H174174   2.959   8.774   7.412
24644WAT     H274175   3.027   8.627   7.433
24645WAT      O74176   9.876   1.563   4.795
24645WAT     H174177   9.890   1.659   4.819
24645WAT     H274178   9.893   1.550   4.698
24646WAT      O74179   6.423   0.397   4.194
24646WAT     H174180   6.442   0.302   4.217
24646WAT     H274181   6.478   0.457   4.252
24647WAT      O74182   9.449   7.047   6.967
24647WAT     H174183   9.474   6.953   6.947
24647WAT     H274184   9.509   7.109   6.917
24648WAT      O74185   8.560   0.227   6.855
24648WAT     H174186   8.574   0.225   6.756
24648WAT     H274187   8.618   0.157   6.898
24649WAT      O74188   6.770   6.978   5.791
24649WAT     H174189   6.740   6.936   5.877
24649WAT     H274190   6.694   6.978   5.726
24650WAT      O74191   8.171   9.039   7.354
24650WAT     H174192   8.078   9.057   7.388
24650WAT     H274193   8.179   9.074   7.260
24651WAT      O74194   2.850   0.242   0.593
24651WAT     H174195   2.930   0.218   0.537
24651WAT     H274196   2.816   0.160   0.639
24652WAT      O74197   4.486   8.966   2.976
24652WAT     H174198   4.519   9.060   2.984
24652WAT     H274199   4.436   8.942   3.059
24653WAT      O74200   9.501   3.855   0.690
24653WAT     H174201   9.402   3.867   0.688
24653WAT     H274202   9.532   3.852   0.785
24654WAT      O74203   2.486   0.321   6.812
24654WAT     H174204   2.540   0.243   6.844
24654WAT     H274205   2.409   0.288   6.758
24655WAT      O74206   9.851   8.085   6.178
24655WAT     H174207   9.884   8.002   6.133
24655WAT     H274208   9.891   8.166   6.134
24656WAT      O74209   6.843   0.223   1.429
24656WAT     H174210   6.879   0.226   1.523
24656WAT     H274211   6.828   0.128   1.402
24657WAT      O74212   4.556   4.620   8.084
24657WAT     H174213   4.612   4.698   8.056
24657WAT     H274214   4.540   4.624   8.183
24658WAT      O74215   2.677   6.167   1.981
24658WAT     H174216   2.685   6.267   1.987
24658WAT     H274217   2.743   6.133   1.914
24659WAT      O74218   1.899   2.373   9.105
24659WAT     H174219   1.830   2.320   9.154
24659WAT     H274220   1.988   2.361   9.150
24660WAT      O74221   1.512   2.340   7.927
24660WAT     H174222   1.464   2.379   8.006
24660WAT     H274223   1.495   2.242   7.923
24661WAT      O74224   6.889   3.479   8.470
24661WAT     H174225   6.833   3.402   8.438
24661WAT     H274226   6.946   3.512   8.395
24662WAT      O74227   4.181   5.248   1.940
24662WAT     H174228   4.255   5.183   1.919
24662WAT     H274229   4.095   5.199   1.950
24663WAT      O74230   0.492   3.318   6.113
24663WAT     H174231   0.504   3.403   6.166
24663WAT     H274232   0.453   3.248   6.172
24664WAT      O74233   4.997   5.157   7.330
24664WAT     H174234   5.096   5.161   7.318
24664WAT     H274235   4.953   5.143   7.242
24665WAT      O74236   0.474   2.220   3.472
24665WAT     H174237   0.512   2.229   3.380
24665WAT     H274238   0.403   2.150   3.472
24666WAT      O74239   7.040   1.806   8.490
24666WAT     H174240   7.050   1.904   8.506
24666WAT     H274241   7.123   1.758   8.521
24667WAT      O74242   8.403   1.263   8.741
24667WAT     H174243   8.412   1.179   8.794
24667WAT     H274244   8.491   1.287   8.701
24668WAT      O74245   8.800   6.269   6.367
24668WAT     H174246   8.786   6.189   6.426
24668WAT     H274247   8.892   6.266   6.328
24669WAT      O74248   6.505   2.159   1.967
24669WAT     H174249   6.538   2.182   2.059
24669WAT     H274250   6.422   2.210   1.947
24670WAT      O74251   8.007   3.781   7.195
24670WAT     H174252   8.070   3.767   7.118
24670WAT     H274253   7.914   3.762   7.165
24671WAT      O74254   4.658   2.204   6.236
24671WAT     H174255   4.629   2.274   6.170
24671WAT     H274256   4.709   2.247   6.310
24672WAT      O74257   5.669   3.391   4.818
24672WAT     H174258   5.665   3.311   4.877
24672WAT     H274259   5.628   3.469   4.865
24673WAT      O74260   6.338   2.415   4.965
24673WAT     H174261   6.360   2.414   4.868
24673WAT     H274262   6.270   2.487   4.983
24674WAT      O74263   2.388   8.881   8.185
24674WAT     H174264   2.362   8.975   8.208
24674WAT     H274265   2.311   8.820   8.205
24675WAT      O74266   7.229   6.109   9.058
24675WAT     H174267   7.293   6.184   9.070
24675WAT     H274268   7.273   6.036   9.004
24676WAT      O74269   7.262   2.111   9.433
24676WAT     H174270   7.282   2.189   9.493
24676WAT     H274271   7.223   2.037   9.488
24677WAT      O74272   4.747   4.291   7.171
24677WAT     H174273   4.797   4.300   7.085
24677WAT     H274274   4.792   4.347   7.241
24678WAT      O74275   7.955   7.611   7.182
24678WAT     H174276   8.017   7.677   7.140
24678WAT     H274277   7.999   7.521   7.185
24679WAT      O74278   2.764   9.676   6.129
24679WAT     H174279   2.845   9.621   6.148
24679WAT     H274280   2.720   9.701   6.215
24680WAT      O74281   4.196   9.375   9.310
24680WAT     H174282   4.186   9.468   9.275
24680WAT     H274283   4.189   9.376   9.409
24681WAT      O74284   9.098   9.045   4.650
24681WAT     H174285   9.062   9.073   4.740
24681WAT     H274286   9.113   9.127   4.594
24682WAT      O74287   1.212   1.058   0.625
24682WAT     H174288   1.231   0.971   0.669
24682WAT     H274289   1.278   1.074   0.552
24683WAT      O74290   3.835   7.278   9.568
24683WAT     H174291   3.805   7.226   9.648
24683WAT     H274292   3.864   7.369   9.597
24684WAT      O74293   8.988   1.087   9.815
24684WAT     H174294   8.924   1.092   9.738
24684WAT     H274295   9.066   1.029   9.791
24685WAT      O74296   9.381   8.732   2.821
24685WAT     H174297   9.376   8.820   2.868
24685WAT     H274298   9.475   8.714   2.793
24686WAT      O74299   4.848   0.561   8.519
24686WAT     H174300   4.828   0.469   8.486
24686WAT     H274301   4.771   0.621   8.501
24687WAT      O74302   9.481   9.041   3.239
24687WAT     H174303   9.454   9.121   3.186
24687WAT     H274304   9.556   9.065   3.300
24688WAT      O74305   1.016   5.821   6.021
24688WAT     H174306   1.111   5.817   5.992
24688WAT     H274307   0.958   5.775   5.953
24689WAT      O74308   4.861   0.228   1.364
24689WAT     H174309   4.779   0.283   1.351
24689WAT     H274310   4.874   0.168   1.285
24690WAT      O74311   0.235   7.446   1.356
24690WAT     H174312   0.192   7.512   1.294
24690WAT     H274313   0.167   7.410   1.419
24691WAT      O74314   9.370   5.675   6.889
24691WAT     H174315   9.363   5.603   6.957
24691WAT     H274316   9.459   5.721   6.898
24692WAT      O74317   6.239   8.229   5.795
24692WAT     H174318   6.336   8.220   5.819
24692WAT     H274319   6.183   8.176   5.859
24693WAT      O74320   1.104   1.314   2.461
24693WAT     H174321   1.147   1.296   2.372
24693WAT     H274322   1.075   1.409   2.465
24694WAT      O74323   0.311   5.031   9.468
24694WAT     H174324   0.255   4.954   9.436
24694WAT     H274325   0.321   5.026   9.567
24695WAT      O74326   0.779   0.371   6.648
24695WAT     H174327   0.861   0.395   6.699
24695WAT     H274328   0.800   0.369   6.550
24696WAT      O74329   7.219   0.222   1.299
24696WAT     H174330   7.244   0.174   1.215
24696WAT     H274331   7.211   0.156   1.374
24697WAT      O74332   2.133   2.177   3.007
24697WAT     H174333   2.076   2.224   3.074
24697WAT     H274334   2.151   2.238   2.930
24698WAT      O74335   3.747   9.579   2.020
24698WAT     H174336   3.649   9.591   2.038
24698WAT     H274337   3.796   9.662   2.045
24699WAT      O74338   4.810   2.971   0.169
24699WAT     H174339   4.854   2.977   0.079
24699WAT     H274340   4.745   3.047   0.179
24700WAT      O74341   6.185   4.565   8.518
24700WAT     H174342   6.108   4.504   8.503
24700WAT     H274343   6.217   4.556   8.612
24701WAT      O74344   8.755   0.813   7.746
24701WAT     H174345   8.811   0.754   7.805
24701WAT     H274346   8.814   0.855   7.676
24702WAT      O74347   0.040   3.049   9.474
24702WAT     H174348   0.083   3.067   9.385
24702WAT     H274349   0.067   2.958   9.506
24703WAT      O74350   0.157   9.063   6.570
24703WAT     H174351   0.117   9.147   6.533
24703WAT     H274352   0.084   9.000   6.596
24704WAT      O74353   9.123   4.633   4.600
24704WAT     H174354   9.173   4.693   4.538
24704WAT     H274355   9.147   4.655   4.695
24705WAT      O74356   7.929   1.402   3.300
24705WAT     H174357   7.891   1.459   3.373
24705WAT     H274358   7.924   1.306   3.328
24706WAT      O74359   0.984   6.935   7.163
24706WAT     H174360   0.897   6.954   7.119
24706WAT     H274361   1.009   7.011   7.223
24707WAT      O74362   6.678   8.719   6.478
24707WAT     H174363   6.728   8.720   6.565
24707WAT     H274364   6.681   8.627   6.439
24708WAT      O74365   1.605   2.144   8.292
24708WAT     H174366   1.692   2.161   8.245
24708WAT     H274367   1.623   2.126   8.389
24709WAT      O74368   2.754   6.374   9.856
24709WAT     H174369   2.699   6.293   9.835
24709WAT     H274370   2.697   6.443   9.900
24710WAT      O74371   2.435   8.540   9.362
24710WAT     H174372   2.431   8.451   9.316
24710WAT     H274373   2.503   8.598   9.316
24711WAT      O74374   1.319   1.809   0.549
24711WAT     H174375   1.233   1.840   0.509
24711WAT     H274376   1.389   1.879   0.535
24712WAT      O74377   7.962   8.329   2.046
24712WAT     H174378   7.876   8.378   2.057
24712WAT     H274379   7.958   8.273   1.964
24713WAT      O74380   2.094   4.770   9.695
24713WAT     H174381   2.190   4.784   9.717
24713WAT     H274382   2.085   4.740   9.600
24714WAT      O74383   0.149   4.627   7.576
24714WAT     H174384   0.051   4.608   7.581
24714WAT     H274385   0.180   4.619   7.481
24715WAT      O74386   0.153   3.211   7.216
24715WAT     H174387   0.065   3.184   7.177
24715WAT     H274388   0.201   3.129   7.250
24716WAT      O74389   2.442   6.893   1.368
24716WAT     H174390   2.364   6.949   1.339
24716WAT     H274391   2.467   6.917   1.462
24717WAT      O74392   1.992   3.628   0.176
24717WAT     H174393   1.928   3.576   0.232
24717WAT     H274394   1.956   3.636   0.082
24718WAT      O74395   7.056   6.864   4.450
24718WAT     H174396   7.057   6.946   4.392
24718WAT     H274397   7.097   6.788   4.401
24719WAT      O74398   2.151   9.213   4.401
24719WAT     H174399   2.223   9.252   4.344
24719WAT     H274400   2.062   9.245   4.370
24720WAT      O74401   5.399   7.916   1.894
24720WAT     H174402   5.366   7.829   1.930
24720WAT     H274403   5.494   7.930   1.923
24721WAT      O74404   5.119   2.757   4.419
24721WAT     H174405   5.039   2.728   4.471
24721WAT     H274406   5.170   2.825   4.471
24722WAT      O74407   7.418   9.121   6.658
24722WAT     H174408   7.329   9.146   6.697
24722WAT     H274409   7.430   9.022   6.664
24723WAT      O74410   8.504   7.396   8.375
24723WAT     H174411   8.531   7.463   8.444
24723WAT     H274412   8.405   7.386   8.376
24724WAT      O74413   1.513   6.041   7.167
24724WAT     H174414   1.528   6.130   7.210
24724WAT     H274415   1.415   6.020   7.169
24725WAT      O74416   4.696   2.554   8.502
24725WAT     H174417   4.679   2.643   8.459
24725WAT     H274418   4.691   2.563   8.601
24726WAT      O74419   3.555   0.017   4.993
24726WAT     H174420   3.497  -0.000   4.912
24726WAT     H274421   3.533   0.108   5.030
24727WAT      O74422   5.430   0.079   5.486
24727WAT     H174423   5.504   0.146   5.491
24727WAT     H274424   5.347   0.119   5.525
24728WAT      O74425   2.494   1.685   8.625
24728WAT     H174426   2.491   1.640   8.536
24728WAT     H274427   2.559   1.636   8.684
24729WAT      O74428   7.604   0.442   8.695
24729WAT     H174429   7.561   0.474   8.611
24729WAT     H274430   7.638   0.348   8.681
24730WAT      O74431   0.700   3.470   5.080
24730WAT     H174432   0.745   3.435   4.998
24730WAT     H274433   0.664   3.394   5.133
24731WAT      O74434   0.302   5.396   3.385
24731WAT     H174435   0.347   5.307   3.387
24731WAT     H274436   0.284   5.422   3.290
24732WAT      O74437   4.712   0.074   2.185
24732WAT     H174438   4.708   0.139   2.109
24732WAT     H274439   4.710  -0.019   2.148
24733WAT      O74440   0.552   5.195   6.453
24733WAT     H174441   0.577   5.249   6.534
24733WAT     H274442   0.613   5.217   6.377
24734WAT      O74443   2.934   1.386   9.191
24734WAT     H174444   2.867   1.320   9.226
24734WAT     H274445   2.998   1.339   9.129
24735WAT      O74446   0.901   2.401   5.482
24735WAT     H174447   0.840   2.357   5.416
24735WAT     H274448   0.994   2.365   5.472
24736WAT      O74449   2.125   4.615   8.920
24736WAT     H174450   2.134   4.620   9.020
24736WAT     H274451   2.203   4.566   8.882
24737WAT      O74452   3.505   6.288   5.190
24737WAT     H174453   3.601   6.282   5.219
24737WAT     H274454   3.470   6.197   5.170
24738WAT      O74455   3.435   3.993   1.403
24738WAT     H174456   3.407   3.933   1.478
24738WAT     H274457   3.481   4.074   1.440
24739WAT      O74458   3.715   1.036   3.364
24739WAT     H174459   3.710   1.133   3.388
24739WAT     H274460   3.803   0.999   3.394
24740WAT      O74461   7.755   8.553   9.743
24740WAT     H174462   7.723   8.521   9.655
24740WAT     H274463   7.741   8.652   9.750
24741WAT      O74464   7.167   5.176   5.300
24741WAT     H174465   7.083   5.149   5.346
24741WAT     H274466   7.164   5.274   5.280
24742WAT      O74467   1.316   8.490   2.932
24742WAT     H174468   1.242   8.427   2.906
24742WAT     H274469   1.394   8.438   2.965
24743WAT      O74470   8.320   6.990   5.967
24743WAT     H174471   8.378   6.975   6.047
24743WAT     H274472   8.343   6.924   5.896
24744WAT      O74473   0.191   1.040   3.318
24744WAT     H174474   0.195   0.986   3.402
24744WAT     H274475   0.276   1.091   3.308
24745WAT      O74476   5.009   3.732   0.396
24745WAT     H174477   4.964   3.791   0.463
24745WAT     H274478   5.025   3.642   0.436
24746WAT      O74479   6.722   9.286   6.253
24746WAT     H174480   6.680   9.368   6.214
24746WAT     H274481   6.715   9.211   6.186
24747WAT      O74482   4.605   1.141   3.648
24747WAT     H174483   4.561   1.228   3.668
24747WAT     H274484   4.698   1.141   3.683
24748WAT      O74485   0.295   6.558   2.975
24748WAT     H174486   0.372   6.586   3.032
24748WAT     H274487   0.252   6.638   2.934
24749WAT      O74488   2.618   2.218   1.033
24749WAT     H174489   2.526   2.248   1.006
24749WAT     H274490   2.612   2.126   1.073
24750WAT      O74491   6.182   4.093   5.282
24750WAT     H174492   6.092   4.051   5.268
24750WAT     H274493   6.244   4.062   5.209
24751WAT      O74494   3.808   4.289   4.853
24751WAT     H174495   3.747   4.211   4.842
24751WAT     H274496   3.891   4.274   4.799
24752WAT      O74497   6.773   6.679   8.805
24752WAT     H174498   6.697   6.624   8.840
24752WAT     H274499   6.737   6.754   8.750
24753WAT      O74500   7.830   3.067   0.754
24753WAT     H174501   7.876   3.104   0.673
24753WAT     H274502   7.885   2.993   0.793
24754WAT      O74503   4.722   3.044   9.029
24754WAT     H174504   4.650   2.989   9.071
24754WAT     H274505   4.811   2.998   9.040
24755WAT      O74506   4.411   1.622   9.544
24755WAT     H174507   4.484   1.673   9.589
24755WAT     H274508   4.423   1.625   9.445
24756WAT      O74509   2.395   4.277   4.096
24756WAT     H174510   2.425   4.223   4.018
24756WAT     H274511   2.458   4.262   4.172
24757WAT      O74512   0.116   6.944   2.693
24757WAT     H174513   0.087   6.969   2.785
24757WAT     H274514   0.036   6.939   2.633
24758WAT      O74515   0.579   7.212   9.103
24758WAT     H174516   0.605   7.293   9.156
24758WAT     H274517   0.544   7.142   9.166
24759WAT      O74518   8.121   6.050   9.691
24759WAT     H174519   8.049   6.113   9.665
24759WAT     H274520   8.158   6.006   9.608
24760WAT      O74521   2.664   8.220   5.474
24760WAT     H174522   2.689   8.164   5.553
24760WAT     H274523   2.745   8.237   5.418
24761WAT      O74524   7.921   1.669   7.699
24761WAT     H174525   7.968   1.651   7.612
24761WAT     H274526   7.927   1.766   7.721
24762WAT      O74527   8.334   1.732   8.059
24762WAT     H174528   8.250   1.742   8.005
24762WAT     H274529   8.378   1.821   8.070
24763WAT      O74530   0.984   7.547   7.610
24763WAT     H174531   1.061   7.484   7.597
24763WAT     H274532   0.913   7.527   7.541
24764WAT      O74533   4.341   7.986   3.191
24764WAT     H174534   4.425   7.984   3.136
24764WAT     H274535   4.335   8.072   3.242
24765WAT      O74536   4.695   4.367   0.335
24765WAT     H174537   4.675   4.269   0.329
24765WAT     H274538   4.779   4.381   0.386
24766WAT      O74539   7.806   2.174   5.562
24766WAT     H174540   7.725   2.159   5.505
24766WAT     H274541   7.888   2.169   5.505
24767WAT      O74542   6.437   3.451   9.135
24767WAT     H174543   6.378   3.499   9.070
24767WAT     H274544   6.388   3.371   9.171
24768WAT      O74545   2.961   9.062   2.978
24768WAT     H174546   2.888   8.995   2.970
24768WAT     H274547   2.922   9.150   3.005
24769WAT      O74548   4.425   9.407   2.681
24769WAT     H174549   4.393   9.371   2.594
24769WAT     H274550   4.517   9.444   2.670
24770WAT      O74551   2.534   6.925   0.385
24770WAT     H174552   2.517   6.981   0.466
24770WAT     H274553   2.523   6.828   0.408
24771WAT      O74554   3.836   5.327   1.701
24771WAT     H174555   3.863   5.357   1.610
24771WAT     H274556   3.917   5.312   1.757
24772WAT      O74557   1.176   0.150   4.637
24772WAT     H174558   1.175   0.104   4.548
24772WAT     H274559   1.270   0.159   4.669
24773WAT      O74560   3.158   6.271   4.296
24773WAT     H174561   3.093   6.265   4.372
24773WAT     H274562   3.239   6.215   4.317
24774WAT      O74563   7.358   9.587   6.927
24774WAT     H174564   7.383   9.541   6.842
24774WAT     H274565   7.369   9.686   6.915
24775WAT      O74566   4.942   6.447   2.624
24775WAT     H174567   4.875   6.521   2.631
24775WAT     H274568   4.941   6.411   2.531
24776WAT      O74569   0.099   6.637   8.087
24776WAT     H174570   0.099   6.625   7.988
24776WAT     H274571   0.170   6.704   8.112
24777WAT      O74572   5.489   3.902   9.445
24777WAT     H174573   5.542   3.865   9.369
24777WAT     H274574   5.424   3.833   9.477
24778WAT      O74575   4.898   2.013   2.494
24778WAT     H174576   4.949   2.092   2.462
24778WAT     H274577   4.896   2.012   2.594
24779WAT      O74578   9.230   1.226   0.875
24779WAT     H174579   9.258   1.218   0.779
24779WAT     H274580   9.167   1.303   0.884
24780WAT      O74581   3.642   9.598   3.234
24780WAT     H174582   3.578   9.582   3.159
24780WAT     H274583   3.591   9.611   3.319
24781WAT      O74584   3.328   3.390   6.736
24781WAT     H174585   3.303   3.350   6.648
24781WAT     H274586   3.395   3.331   6.781
24782WAT      O74587   9.264   9.558   0.858
24782WAT     H174588   9.223   9.467   0.863
24782WAT     H274589   9.289   9.578   0.764
24783WAT      O74590   0.430   0.996   3.739
24783WAT     H174591   0.337   1.012   3.771
24783WAT     H274592   0.430   0.987   3.639
24784WAT      O74593   1.510   5.239   4.018
24784WAT     H174594   1.548   5.288   4.097
24784WAT     H274595   1.509   5.299   3.938
24785WAT      O74596   8.860   7.121   8.756
24785WAT     H174597   8.819   7.209   8.730
24785WAT     H274598   8.943   7.107   8.703
24786WAT      O74599   3.484   9.574   3.015
24786WAT     H174600   3.394   9.542   3.045
24786WAT     H274601   3.491   9.566   2.915
24787WAT      O74602   5.911   1.829   0.524
24787WAT     H174603   5.857   1.905   0.560
24787WAT     H274604   5.889   1.745   0.574
24788WAT      O74605   4.069   1.207   6.139
24788WAT     H174606   4.110   1.217   6.230
24788WAT     H274607   4.074   1.294   6.091
24789WAT      O74608   4.895   7.129   0.499
24789WAT     H174609   4.982   7.116   0.547
24789WAT     H274610   4.875   7.227   0.493
24790WAT      O74611   1.634   9.805   5.175
24790WAT     H174612   1.560   9.817   5.109
24790WAT     H274613   1.595   9.798   5.267
24791WAT      O74614   5.018   9.419   6.848
24791WAT     H174615   5.057   9.482   6.915
24791WAT     H274616   5.050   9.326   6.866
24792WAT      O74617   3.497   4.275   5.387
24792WAT     H174618   3.597   4.268   5.381
24792WAT     H274619   3.472   4.360   5.433
24793WAT      O74620   2.519   1.955   8.527
24793WAT     H174621   2.481   1.953   8.435
24793WAT     H274622   2.498   1.870   8.575
24794WAT      O74623   4.253   7.771   0.078
24794WAT     H174624   4.250   7.671   0.087
24794WAT     H274625   4.242   7.795  -0.019
24795WAT      O74626   3.093   9.604   7.901
24795WAT     H174627   3.076   9.628   7.996
24795WAT     H274628   3.068   9.509   7.885
24796WAT      O74629   6.134   8.033   4.382
24796WAT     H174630   6.198   7.997   4.449
24796WAT     H274631   6.126   8.132   4.393
24797WAT      O74632   7.705   7.722   9.547
24797WAT     H174633   7.792   7.769   9.566
24797WAT     H274634   7.709   7.679   9.457
24798WAT      O74635   4.305   9.666   2.704
24798WAT     H174636   4.286   9.569   2.685
24798WAT     H274637   4.278   9.720   2.624
24799WAT      O74638   1.910   7.555   4.125
24799WAT     H174639   1.879   7.468   4.164
24799WAT     H274640   1.834   7.620   4.127
24800WAT      O74641   1.668   7.327   7.776
24800WAT     H174642   1.705   7.259   7.713
24800WAT     H274643   1.741   7.387   7.808
24801WAT      O74644   3.647   7.448   1.531
24801WAT     H174645   3.607   7.520   1.475
24801WAT     H274646   3.677   7.373   1.472
24802WAT      O74647   2.614   4.662   9.744
24802WAT     H174648   2.607   4.563   9.754
24802WAT     H274649   2.692   4.684   9.685
24803WAT      O74650   8.090   9.298   3.596
24803WAT     H174651   8.179   9.327   3.631
24803WAT     H274652   8.043   9.376   3.555
24804WAT      O74653   0.623   3.280   5.503
24804WAT     H174654   0.536   3.303   5.547
24804WAT     H274655   0.606   3.251   5.409
24805WAT      O74656   9.860   6.608   8.354
24805WAT     H174657   9.920   6.606   8.274
24805WAT     H274658   9.796   6.531   8.349
24806WAT      O74659   1.590   8.333   1.459
24806WAT     H174660   1.568   8.283   1.375
24806WAT     H274661   1.637   8.418   1.436
24807WAT      O74662   9.762   6.637   0.032
24807WAT     H174663   9.829   6.658  -0.040
24807WAT     H274664   9.805   6.650   0.121
24808WAT      O74665   9.026   8.494   1.148
24808WAT     H174666   9.086   8.563   1.187
24808WAT     H274667   9.076   8.408   1.137
24809WAT      O74668   7.627   0.041   0.805
24809WAT     H174669   7.606  -0.057   0.805
24809WAT     H274670   7.577   0.086   0.879
24810WAT      O74671   1.971   2.175   8.529
24810WAT     H174672   2.030   2.253   8.512
24810WAT     H274673   2.019   2.107   8.584
24811WAT      O74674   1.367   4.975   6.444
24811WAT     H174675   1.387   5.049   6.508
24811WAT     H274676   1.304   4.910   6.487
24812WAT      O74677   6.085   0.084   7.638
24812WAT     H174678   5.990   0.068   7.614
24812WAT     H274679   6.140   0.095   7.555
24813WAT      O74680   1.152   6.867   0.258
24813WAT     H174681   1.066   6.827   0.226
24813WAT     H274682   1.220   6.794   0.269
24814WAT      O74683   7.079   2.340   4.656
24814WAT     H174684   7.031   2.261   4.618
24814WAT     H274685   7.164   2.310   4.700
24815WAT      O74686   3.067   1.267   4.756
24815WAT     H174687   3.123   1.186   4.772
24815WAT     H274688   3.102   1.343   4.810
24816WAT      O74689   0.099   3.518   0.472
24816WAT     H174690   0.160   3.443   0.448
24816WAT     H274691   0.153   3.598   0.497
24817WAT      O74692   7.720   9.287   1.519
24817WAT     H174693   7.666   9.297   1.603
24817WAT     H274694   7.815   9.311   1.538
24818WAT      O74695   1.713   6.953   8.972
24818WAT     H174696   1.719   7.012   9.053
24818WAT     H274697   1.682   6.862   9.000
24819WAT      O74698   6.212   0.138   3.049
24819WAT     H174699   6.277   0.064   3.034
24819WAT     H274700   6.258   0.216   3.090
24820WAT      O74701   3.235   7.496   4.306
24820WAT     H174702   3.241   7.396   4.304
24820WAT     H274703   3.235   7.531   4.212
24821WAT      O74704   2.162   5.649   3.271
24821WAT     H174705   2.163   5.689   3.363
24821WAT     H274706   2.199   5.716   3.206
24822WAT      O74707   9.188   1.196   9.116
24822WAT     H174708   9.127   1.245   9.054
24822WAT     H274709   9.249   1.137   9.063
24823WAT      O74710   0.694   2.586   8.695
24823WAT     H174711   0.727   2.599   8.789
24823WAT     H274712   0.756   2.630   8.631
24824WAT      O74713   9.882   5.780   6.656
24824WAT     H174714   9.877   5.689   6.615
24824WAT     H274715   9.808   5.837   6.620
24825WAT      O74716   9.609   9.603   0.261
24825WAT     H174717   9.660   9.615   0.347
24825WAT     H274718   9.592   9.692   0.220
24826WAT      O74719   4.644   7.450   1.495
24826WAT     H174720   4.623   7.541   1.462
24826WAT     H274721   4.742   7.434   1.490
24827WAT      O74722   3.230   5.621   7.890
24827WAT     H174723   3.205   5.551   7.824
24827WAT     H274724   3.150   5.679   7.909
24828WAT      O74725   3.893   5.899   0.515
24828WAT     H174726   3.951   5.919   0.594
24828WAT     H274727   3.799   5.924   0.536
24829WAT      O74728   1.780   7.328   9.824
24829WAT     H174729   1.691   7.362   9.793
24829WAT     H274730   1.776   7.230   9.838
24830WAT      O74731   9.500   3.461   0.850
24830WAT     H174732   9.568   3.399   0.888
24830WAT     H274733   9.526   3.486   0.757
24831WAT      O74734   8.487   4.990   1.669
24831WAT     H174735   8.428   5.070   1.668
24831WAT     H274736   8.438   4.912   1.631
24832WAT      O74737   7.757   0.192   5.740
24832WAT     H174738   7.692   0.116   5.739
24832WAT     H274739   7.746   0.246   5.657
24833WAT      O74740   8.355   5.733   8.569
24833WAT     H174741   8.316   5.813   8.522
24833WAT     H274742   8.442   5.709   8.526
24834WAT      O74743   8.075   7.476   2.569
24834WAT     H174744   8.056   7.570   2.599
24834WAT     H274745   8.163   7.474   2.523
24835WAT      O74746   8.027   7.070   0.830
24835WAT     H174747   7.963   7.104   0.898
24835WAT     H274748   8.085   7.000   0.870
24836WAT      O74749   5.180   1.682   2.152
24836WAT     H174750   5.245   1.690   2.077
24836WAT     H274751   5.202   1.603   2.208
24837WAT      O74752   8.491   2.691   2.760
24837WAT     H174753   8.493   2.750   2.679
24837WAT     H274754   8.566   2.716   2.822
24838WAT      O74755   9.586   7.023   2.145
24838WAT     H174756   9.619   6.929   2.148
24838WAT     H274757   9.664   7.085   2.140
24839WAT      O74758   2.530   2.580   9.849
24839WAT     H174759   2.515   2.486   9.817
24839WAT     H274760   2.533   2.642   9.770
24840WAT      O74761   5.853   4.706   9.146
24840WAT     H174762   5.932   4.656   9.110
24840WAT     H274763   5.885   4.775   9.211
24841WAT      O74764   7.824   6.512   8.700
24841WAT     H174765   7.907   6.560   8.728
24841WAT     H274766   7.746   6.550   8.748
24842WAT      O74767   7.202   4.969   6.561
24842WAT     H174768   7.189   5.019   6.646
24842WAT     H274769   7.182   4.872   6.575
24843WAT      O74770   1.848   1.153   9.804
24843WAT     H174771   1.882   1.137   9.897
24843WAT     H274772   1.763   1.101   9.791
24844WAT      O74773   0.731   8.202   1.571
24844WAT     H174774   0.800   8.138   1.607
24844WAT     H274775   0.751   8.294   1.603
24845WAT      O74776   2.752   7.546   4.058
24845WAT     H174777   2.678   7.548   4.124
24845WAT     H274778   2.739   7.468   3.996
24846WAT      O74779   6.543   6.391   3.211
24846WAT     H174780   6.593   6.366   3.128
24846WAT     H274781   6.542   6.314   3.274
24847WAT      O74782   9.595   1.016   9.170
24847WAT     H174783   9.555   0.926   9.188
24847WAT     H274784   9.684   1.022   9.214
24848WAT      O74785   5.716   4.598   5.515
24848WAT     H174786   5.784   4.565   5.580
24848WAT     H274787   5.739   4.564   5.423
24849WAT      O74788   0.595   5.082   6.746
24849WAT     H174789   0.496   5.065   6.746
24849WAT     H274790   0.611   5.177   6.719
24850WAT      O74791   4.061   7.789   5.897
24850WAT     H174792   4.110   7.805   5.811
24850WAT     H274793   3.972   7.834   5.893
24851WAT      O74794   3.970   6.289   7.437
24851WAT     H174795   3.879   6.263   7.404
24851WAT     H274796   3.991   6.237   7.520
24852WAT      O74797   0.686   2.765   9.190
24852WAT     H174798   0.734   2.702   9.251
24852WAT     H274799   0.596   2.785   9.227
24853WAT      O74800   5.835   8.802   0.511
24853WAT     H174801   5.755   8.789   0.570
24853WAT     H274802   5.819   8.880   0.450
24854WAT      O74803   2.567   5.179   4.827
24854WAT     H174804   2.626   5.124   4.887
24854WAT     H274805   2.566   5.140   4.736
24855WAT      O74806   2.542   4.896   2.332
24855WAT     H174807   2.585   4.830   2.393
24855WAT     H274808   2.585   4.893   2.242
24856WAT      O74809   2.115   6.905   0.307
24856WAT     H174810   2.185   6.950   0.251
24856WAT     H274811   2.109   6.950   0.396
24857WAT      O74812   2.557   7.114   5.840
24857WAT     H174813   2.470   7.101   5.792
24857WAT     H274814   2.551   7.073   5.931
24858WAT      O74815   1.621   2.062   2.134
24858WAT     H174816   1.541   2.003   2.129
24858WAT     H274817   1.593   2.155   2.157
24859WAT      O74818   3.305   1.988   5.791
24859WAT     H174819   3.343   1.920   5.728
24859WAT     H274820   3.370   2.005   5.865
24860WAT      O74821   1.029   7.825   3.124
24860WAT     H174822   0.935   7.861   3.117
24860WAT     H274823   1.078   7.874   3.195
24861WAT      O74824   3.726   4.546   0.623
24861WAT     H174825   3.816   4.517   0.655
24861WAT     H274826   3.708   4.506   0.534
24862WAT      O74827   3.421   9.809   2.922
24862WAT     H174828   3.371   9.835   2.840
24862WAT     H274829   3.438   9.711   2.922
24863WAT      O74830   2.627   3.783   7.328
24863WAT     H174831   2.690   3.774   7.250
24863WAT     H274832   2.537   3.746   7.302
24864WAT      O74833   6.994   7.233   1.738
24864WAT     H174834   6.982   7.332   1.741
24864WAT     H274835   7.066   7.210   1.673
24865WAT      O74836   2.000   8.571   1.448
24865WAT     H174837   1.975   8.634   1.521
24865WAT     H274838   2.065   8.503   1.482
24866WAT      O74839   1.837   5.186   8.741
24866WAT     H174840   1.744   5.153   8.754
24866WAT     H274841   1.900   5.108   8.746
24867WAT      O74842   3.453   4.297   8.899
24867WAT     H174843   3.380   4.230   8.915
24867WAT     H274844   3.430   4.383   8.943
24868WAT      O74845   6.992   7.844   2.193
24868WAT     H174846   6.898   7.834   2.227
24868WAT     H274847   6.990   7.897   2.108
24869WAT      O74848   3.316   3.941   6.414
24869WAT     H174849   3.384   3.890   6.466
24869WAT     H274850   3.234   3.955   6.470
24870WAT      O74851   3.275   3.323   1.165
24870WAT     H174852   3.300   3.285   1.076
24870WAT     H274853   3.348   3.382   1.198
24871WAT      O74854   7.430   3.492   8.368
24871WAT     H174855   7.340   3.448   8.372
24871WAT     H274856   7.474   3.486   8.458
24872WAT      O74857   2.178   1.600   7.487
24872WAT     H174858   2.156   1.577   7.392
24872WAT     H274859   2.148   1.693   7.507
24873WAT      O74860   9.217   9.431   1.794
24873WAT     H174861   9.224   9.520   1.748
24873WAT     H274862   9.124   9.418   1.827
24874WAT      O74863   2.128   8.341   3.829
24874WAT     H174864   2.128   8.427   3.778
24874WAT     H274865   2.147   8.266   3.767
24875WAT      O74866   3.366   7.108   3.507
24875WAT     H174867   3.444   7.095   3.569
24875WAT     H274868   3.365   7.034   3.440
24876WAT      O74869   8.103   6.962   3.487
24876WAT     H174870   8.090   7.056   3.519
24876WAT     H274871   8.199   6.938   3.492
24877WAT      O74872   3.938   4.321   0.595
24877WAT     H174873   4.011   4.389   0.603
24877WAT     H274874   3.974   4.231   0.622
24878WAT      O74875   5.747   9.118   2.331
24878WAT     H174876   5.784   9.208   2.311
24878WAT     H274877   5.695   9.122   2.416
24879WAT      O74878   1.453   2.185   9.884
24879WAT     H174879   1.391   2.108   9.901
24879WAT     H274880   1.499   2.173   9.797
24880WAT      O74881   9.232   2.282   6.233
24880WAT     H174882   9.281   2.203   6.269
24880WAT     H274883   9.267   2.303   6.142
24881WAT      O74884   1.279   1.951   1.180
24881WAT     H174885   1.266   2.027   1.243
24881WAT     H274886   1.315   1.872   1.230
24882WAT      O74887   1.522   9.025   0.533
24882WAT     H174888   1.556   9.109   0.492
24882WAT     H274889   1.597   8.977   0.579
24883WAT      O74890   6.026   3.500   7.447
24883WAT     H174891   5.954   3.566   7.472
24883WAT     H274892   5.990   3.435   7.381
24884WAT      O74893   9.387   4.240   7.526
24884WAT     H174894   9.472   4.188   7.519
24884WAT     H274895   9.309   4.178   7.516
24885WAT      O74896   3.673   6.507   3.625
24885WAT     H174897   3.649   6.537   3.717
24885WAT     H274898   3.768   6.532   3.605
24886WAT      O74899   7.264   0.030   8.037
24886WAT     H174900   7.187   0.026   8.101
24886WAT     H274901   7.279  -0.060   7.998
24887WAT      O74902   4.978   4.565   1.345
24887WAT     H174903   4.988   4.636   1.415
24887WAT     H274904   5.032   4.590   1.264
24888WAT      O74905   2.950   7.322   0.190
24888WAT     H174906   2.916   7.228   0.192
24888WAT     H274907   3.047   7.322   0.167
24889WAT      O74908   0.658   9.389   8.922
24889WAT     H174909   0.718   9.327   8.973
24889WAT     H274910   0.563   9.364   8.940
24890WAT      O74911   0.336   0.834   4.830
24890WAT     H174912   0.353   0.821   4.928
24890WAT     H274913   0.418   0.808   4.779
24891WAT      O74914   0.459   2.093   9.305
24891WAT     H174915   0.379   2.087   9.246
24891WAT     H274916   0.506   2.179   9.290
24892WAT      O74917   9.644   2.290   1.017
24892WAT     H174918   9.563   2.266   1.070
24892WAT     H274919   9.694   2.207   0.993
24893WAT      O74920   5.558   9.493   2.705
24893WAT     H174921   5.602   9.410   2.739
24893WAT     H274922   5.481   9.469   2.647
24894WAT      O74923   8.799   7.787   2.025
24894WAT     H174924   8.863   7.769   1.950
24894WAT     H274925   8.793   7.886   2.041
24895WAT      O74926   1.010   2.459   4.424
24895WAT     H174927   1.089   2.460   4.363
24895WAT     H274928   0.928   2.483   4.371
24896WAT      O74929   6.376   1.285   5.600
24896WAT     H174930   6.335   1.269   5.690
24896WAT     H274931   6.404   1.380   5.593
24897WAT      O74932   8.573   6.007   2.473
24897WAT     H174933   8.584   6.077   2.543
24897WAT     H274934   8.663   5.982   2.437
24898WAT      O74935   5.588   8.650   0.883
24898WAT     H174936   5.604   8.716   0.810
24898WAT     H274937   5.513   8.683   0.942
24899WAT      O74938   8.506   2.082   6.622
24899WAT     H174939   8.499   2.162   6.681
24899WAT     H274940   8.416   2.041   6.610
24900WAT      O74941   7.811   2.088   1.283
24900WAT     H174942   7.793   2.170   1.229
24900WAT     H274943   7.829   2.011   1.221
24901WAT      O74944   2.022   1.148   8.075
24901WAT     H174945   2.115   1.118   8.096
24901WAT     H274946   2.017   1.179   7.980
24902WAT      O74947   3.750   6.044   7.273
24902WAT     H174948   3.756   6.014   7.178
24902WAT     H274949   3.732   6.143   7.276
24903WAT      O74950   6.619   5.994   3.593
24903WAT     H174951   6.609   5.948   3.682
24903WAT     H274952   6.684   5.943   3.537
24904WAT      O74953   4.393   7.024   1.062
24904WAT     H174954   4.408   7.112   1.017
24904WAT     H274955   4.460   7.012   1.135
24905WAT      O74956   9.315   7.306   5.725
24905WAT     H174957   9.405   7.347   5.743
24905WAT     H274958   9.289   7.248   5.802
24906WAT      O74959   6.958   8.344   2.731
24906WAT     H174960   6.887   8.281   2.700
24906WAT     H274961   6.969   8.336   2.831
24907WAT      O74962   5.198   8.410   5.825
24907WAT     H174963   5.165   8.370   5.911
24907WAT     H274964   5.149   8.496   5.807
24908WAT      O74965   0.864   2.788   2.952
24908WAT     H174966   0.944   2.844   2.974
24908WAT     H274967   0.848   2.789   2.854
24909WAT      O74968   9.743   0.205   2.094
24909WAT     H174969   9.817   0.143   2.068
24909WAT     H274970   9.773   0.299   2.081
24910WAT      O74971   0.734   0.216   9.596
24910WAT     H174972   0.781   0.186   9.678
24910WAT     H274973   0.791   0.198   9.516
24911WAT      O74974   9.195   2.193   2.051
24911WAT     H174975   9.228   2.143   1.971
24911WAT     H274976   9.104   2.230   2.033
24912WAT      O74977   1.389   9.755   2.476
24912WAT     H174978   1.411   9.847   2.441
24912WAT     H274979   1.290   9.748   2.492
24913WAT      O74980   9.737   4.730   8.670
24913WAT     H174981   9.644   4.767   8.681
24913WAT     H274982   9.759   4.672   8.748
24914WAT      O74983   3.754   6.985   8.792
24914WAT     H174984   3.693   6.922   8.745
24914WAT     H274985   3.845   6.944   8.801
24915WAT      O74986   7.318   2.163   2.881
24915WAT     H174987   7.407   2.125   2.854
24915WAT     H274988   7.313   2.167   2.981
24916WAT      O74989   8.875   5.499   5.646
24916WAT     H174990   8.964   5.543   5.657
24916WAT     H274991   8.819   5.516   5.727
24917WAT      O74992   0.076   4.639   6.202
24917WAT     H174993   0.149   4.573   6.187
24917WAT     H274994   0.106   4.708   6.268
24918WAT      O74995   2.765   2.482   1.827
24918WAT     H174996   2.777   2.540   1.907
24918WAT     H274997   2.744   2.538   1.747
24919WAT      O74998   0.148   4.447   3.931
24919WAT     H174999   0.111   4.391   3.856
24919WAT     H275000   0.145   4.395   4.016
24920WAT      O75001   5.392   3.824   0.899
24920WAT     H175002   5.477   3.844   0.947
24920WAT     H275003   5.406   3.747   0.837
24921WAT      O75004   8.719   0.176   6.227
24921WAT     H175005   8.725   0.079   6.206
24921WAT     H275006   8.697   0.226   6.143
24922WAT      O75007   4.951   3.797   7.956
24922WAT     H175008   4.992   3.875   7.910
24922WAT     H275009   4.865   3.772   7.911
24923WAT      O75010   9.621   9.227   0.389
24923WAT     H175011   9.661   9.176   0.313
24923WAT     H275012   9.529   9.192   0.409
24924WAT      O75013   5.984   7.510   1.001
24924WAT     H175014   5.910   7.558   0.953
24924WAT     H275015   6.062   7.499   0.939
24925WAT      O75016   0.778   6.524   8.379
24925WAT     H175017   0.706   6.515   8.311
24925WAT     H275018   0.789   6.437   8.428
24926WAT      O75019   7.525   1.542   8.228
24926WAT     H175020   7.544   1.593   8.143
24926WAT     H275021   7.491   1.605   8.297
24927WAT      O75022   1.313   8.660   7.739
24927WAT     H175023   1.367   8.582   7.707
24927WAT     H275024   1.323   8.737   7.677
24928WAT      O75025   5.423   8.198   1.123
24928WAT     H175026   5.487   8.222   1.197
24928WAT     H275027   5.415   8.099   1.118
24929WAT      O75028   8.597   2.817   9.735
24929WAT     H175029   8.684   2.790   9.692
24929WAT     H275030   8.545   2.735   9.759
24930WAT      O75031   8.067   3.413   4.100
24930WAT     H175032   8.061   3.445   4.195
24930WAT     H275033   8.156   3.436   4.063
24931WAT      O75034   6.577   4.628   7.892
24931WAT     H175035   6.517   4.596   7.965
24931WAT     H275036   6.545   4.591   7.804
24932WAT      O75037   1.912   6.948   2.909
24932WAT     H175038   1.922   6.855   2.946
24932WAT     H275039   1.937   6.948   2.812
24933WAT      O75040   5.842   7.423   4.138
24933WAT     H175041   5.885   7.339   4.106
24933WAT     H275042   5.816   7.479   4.059
24934WAT      O75043   3.662   9.118   9.018
24934WAT     H175044   3.648   9.202   8.965
24934WAT     H275045   3.633   9.039   8.964
24935WAT      O75046   1.731   2.114   0.437
24935WAT     H175047   1.733   2.014   0.447
24935WAT     H275048   1.657   2.140   0.376
24936WAT      O75049   7.002   1.072   0.775
24936WAT     H175050   6.968   0.979   0.761
24936WAT     H275051   6.988   1.125   0.691
24937WAT      O75052   4.250   7.321   6.050
24937WAT     H175053   4.216   7.228   6.035
24937WAT     H275054   4.346   7.327   6.021
24938WAT      O75055   8.257   6.957   9.390
24938WAT     H175056   8.212   7.033   9.344
24938WAT     H275057   8.303   6.899   9.322
24939WAT      O75058   1.791   6.897   6.284
24939WAT     H175059   1.833   6.874   6.371
24939WAT     H275060   1.758   6.991   6.286
24940WAT      O75061   4.403   7.896   7.747
24940WAT     H175062   4.438   7.803   7.745
24940WAT     H275063   4.475   7.960   7.721
24941WAT      O75064   6.990   8.455   0.042
24941WAT     H175065   7.058   8.499  -0.017
24941WAT     H275066   6.933   8.526   0.085
24942WAT      O75067   1.209   8.469   5.142
24942WAT     H175068   1.190   8.378   5.179
24942WAT     H275069   1.137   8.494   5.078
24943WAT      O75070   0.688   2.854   8.034
24943WAT     H175071   0.627   2.924   8.073
24943WAT     H275072   0.654   2.764   8.058
24944WAT      O75073   0.614   8.458   5.520
24944WAT     H175074   0.592   8.537   5.462
24944WAT     H275075   0.550   8.384   5.500
24945WAT      O75076   8.767   9.696   7.678
24945WAT     H175077   8.864   9.684   7.695
24945WAT     H275078   8.728   9.611   7.645
24946WAT      O75079   4.789   8.846   9.745
24946WAT     H175080   4.792   8.752   9.712
24946WAT     H275081   4.867   8.897   9.708
24947WAT      O75082   9.139   1.986   2.733
24947WAT     H175083   9.169   1.969   2.827
24947WAT     H275084   9.061   2.048   2.734
24948WAT      O75085   9.390   5.897   0.783
24948WAT     H175086   9.373   5.853   0.872
24948WAT     H275087   9.423   5.990   0.798
24949WAT      O75088   3.947   8.121   7.849
24949WAT     H175089   3.912   8.202   7.803
24949WAT     H275090   3.952   8.138   7.948
24950WAT      O75091   4.023   4.797   6.069
24950WAT     H175092   3.989   4.746   5.991
24950WAT     H275093   4.021   4.895   6.047
24951WAT      O75094   8.583   0.894   5.591
24951WAT     H175095   8.485   0.896   5.615
24951WAT     H275096   8.598   0.945   5.507
24952WAT      O75097   1.358   3.797   8.212
24952WAT     H175098   1.445   3.843   8.227
24952WAT     H275099   1.323   3.821   8.121
24953WAT      O75100   3.260   6.306   4.864
24953WAT     H175101   3.188   6.255   4.912
24953WAT     H275102   3.243   6.404   4.875
24954WAT      O75103   9.168   0.706   2.659
24954WAT     H175104   9.118   0.652   2.591
24954WAT     H275105   9.266   0.687   2.651
24955WAT      O75106   8.645   9.616   6.907
24955WAT     H175107   8.672   9.713   6.910
24955WAT     H275108   8.714   9.564   6.858
24956WAT      O75109   5.539   0.163   0.727
24956WAT     H175110   5.590   0.212   0.657
24956WAT     H275111   5.578   0.183   0.817
24957WAT      O75112   3.711   8.810   2.482
24957WAT     H175113   3.755   8.858   2.406
24957WAT     H275114   3.777   8.751   2.527
24958WAT      O75115   8.094   1.970   7.877
24958WAT     H175116   8.129   1.878   7.856
24958WAT     H275117   8.007   1.961   7.926
24959WAT      O75118   5.540   5.139   3.956
24959WAT     H175119   5.502   5.131   4.048
24959WAT     H275120   5.476   5.189   3.898
24960WAT      O75121   7.432   7.891   4.958
24960WAT     H175122   7.413   7.986   4.934
24960WAT     H275123   7.346   7.844   4.975
24961WAT      O75124   4.997   9.666   0.187
24961WAT     H175125   4.962   9.594   0.128
24961WAT     H275126   4.978   9.644   0.282
24962WAT      O75127   9.122   3.468   7.029
24962WAT     H175128   9.104   3.491   7.124
24962WAT     H275129   9.056   3.399   6.997
24963WAT      O75130   4.419   8.450   1.437
24963WAT     H175131   4.479   8.411   1.367
24963WAT     H275132   4.425   8.549   1.433
24964WAT      O75133   3.664   5.005   3.793
24964WAT     H175134   3.666   5.076   3.723
24964WAT     H275135   3.569   4.983   3.815
24965WAT      O75136   9.328   8.695   3.254
24965WAT     H175137   9.317   8.717   3.157
24965WAT     H275138   9.298   8.601   3.270
24966WAT      O75139   2.470   2.710   5.145
24966WAT     H175140   2.495   2.786   5.205
24966WAT     H275141   2.476   2.624   5.195
24967WAT      O75142   6.278   6.240   5.901
24967WAT     H175143   6.205   6.305   5.923
24967WAT     H275144   6.359   6.290   5.870
24968WAT      O75145   3.211   2.885   6.074
24968WAT     H175146   3.273   2.962   6.086
24968WAT     H275147   3.254   2.816   6.016
24969WAT      O75148   4.721   5.375   8.617
24969WAT     H175149   4.757   5.283   8.631
24969WAT     H275150   4.797   5.441   8.622
24970WAT      O75151   2.372   3.497   4.895
24970WAT     H175152   2.424   3.495   4.980
24970WAT     H275153   2.282   3.539   4.912
24971WAT      O75154   9.174   7.477   6.310
24971WAT     H175155   9.098   7.506   6.252
24971WAT     H275156   9.176   7.534   6.393
24972WAT      O75157   0.682   7.268   3.314
24972WAT     H175158   0.589   7.230   3.310
24972WAT     H275159   0.729   7.233   3.394
24973WAT      O75160   6.512   5.708   1.346
24973WAT     H175161   6.600   5.728   1.305
24973WAT     H275162   6.499   5.609   1.353
24974WAT      O75163   1.400   5.546   1.264
24974WAT     H175164   1.431   5.620   1.205
24974WAT     H275165   1.369   5.469   1.208
24975WAT      O75166   4.742   5.461   9.505
24975WAT     H175167   4.795   5.398   9.562
24975WAT     H275168   4.678   5.511   9.563
24976WAT      O75169   7.672   5.642   1.181
24976WAT     H175170   7.603   5.643   1.254
24976WAT     H275171   7.690   5.735   1.151
24977WAT      O75172   5.008   5.013   1.504
24977WAT     H175173   5.012   5.102   1.550
24977WAT     H275174   4.913   4.983   1.497
24978WAT      O75175   5.679   3.065   2.508
24978WAT     H175176   5.641   3.026   2.592
24978WAT     H275177   5.700   2.991   2.444
24979WAT      O75178   9.147   3.885   1.314
24979WAT     H175179   9.069   3.869   1.373
24979WAT     H275180   9.124   3.953   1.245
24980WAT      O75181   7.420   4.507   9.114
24980WAT     H175182   7.480   4.437   9.076
24980WAT     H275183   7.474   4.570   9.171
24981WAT      O75184   5.464   0.643   1.244
24981WAT     H175185   5.470   0.672   1.148
24981WAT     H275186   5.507   0.553   1.254
24982WAT      O75187   0.364   5.077   2.975
24982WAT     H175188   0.453   5.117   3.000
24982WAT     H275189   0.367   5.047   2.880
24983WAT      O75190   6.916   6.528   0.168
24983WAT     H175191   6.985   6.472   0.122
24983WAT     H275192   6.917   6.620   0.130
24984WAT      O75193   7.401   4.577   6.674
24984WAT     H175194   7.465   4.652   6.689
24984WAT     H275195   7.441   4.509   6.612
24985WAT      O75196   9.754   0.889   8.767
24985WAT     H175197   9.786   0.795   8.775
24985WAT     H275198   9.784   0.927   8.679
24986WAT      O75199   0.773   1.275   3.974
24986WAT     H175200   0.770   1.351   3.909
24986WAT     H275201   0.833   1.299   4.050
24987WAT      O75202   7.921   0.331   4.515
24987WAT     H175203   7.826   0.304   4.497
24987WAT     H275204   7.922   0.399   4.589
24988WAT      O75205   8.712   7.838   2.891
24988WAT     H175206   8.798   7.859   2.938
24988WAT     H275207   8.726   7.761   2.829
24989WAT      O75208   7.935   0.357   9.724
24989WAT     H175209   7.893   0.280   9.773
24989WAT     H275210   7.926   0.440   9.780
24990WAT      O75211   6.721   8.079   1.779
24990WAT     H175212   6.745   8.089   1.682
24990WAT     H275213   6.622   8.086   1.789
24991WAT      O75214   8.230   4.252   4.913
24991WAT     H175215   8.222   4.242   4.813
24991WAT     H275216   8.308   4.198   4.945
24992WAT      O75217   0.855   3.830   6.895
24992WAT     H175218   0.782   3.895   6.914
24992WAT     H275219   0.943   3.878   6.892
24993WAT      O75220   8.283   0.281   8.046
24993WAT     H175221   8.304   0.216   8.120
24993WAT     H275222   8.223   0.352   8.082
24994WAT      O75223   4.045   7.042   4.429
24994WAT     H175224   3.947   7.052   4.443
24994WAT     H275225   4.066   7.052   4.331
24995WAT      O75226   2.455   1.617   7.355
24995WAT     H175227   2.392   1.547   7.388
24995WAT     H275228   2.548   1.593   7.382
24996WAT      O75229   2.850   2.943   4.003
24996WAT     H175230   2.865   3.021   4.064
24996WAT     H275231   2.757   2.947   3.967
24997WAT      O75232   8.514   7.320   0.303
24997WAT     H175233   8.546   7.225   0.294
24997WAT     H275234   8.416   7.324   0.284
24998WAT      O75235   6.540   2.542   4.487
24998WAT     H175236   6.490   2.622   4.452
24998WAT     H275237   6.495   2.509   4.570
24999WAT      O75238   9.099   5.710   5.673
24999WAT     H175239   9.118   5.681   5.767
24999WAT     H275240   9.183   5.745   5.631
25000WAT      O75241   9.544   1.057   7.134
25000WAT     H175242   9.563   1.039   7.231
25000WAT     H275243   9.605   1.003   7.077
25001WAT      O75244   2.777   8.038   9.239
25001WAT     H175245   2.715   8.025   9.317
25001WAT     H275246   2.761   8.128   9.199
25002WAT      O75247   9.395   4.839   7.984
25002WAT     H175248   9.448   4.755   7.972
25002WAT     H275249   9.305   4.828   7.943
25003WAT      O75250   7.688   1.802   8.531
25003WAT     H175251   7.777   1.774   8.494
25003WAT     H275252   7.701   1.860   8.611
25004WAT      O75253   4.817   9.261   2.949
25004WAT     H175254   4.723   9.290   2.964
25004WAT     H275255   4.824   9.162   2.963
25005WAT      O75256   6.591   6.041   1.113
25005WAT     H175257   6.551   6.120   1.159
25005WAT     H275258   6.522   5.969   1.106
25006WAT      O75259   8.888   2.286   9.687
25006WAT     H175260   8.790   2.291   9.704
25006WAT     H275261   8.929   2.218   9.748
25007WAT      O75262   3.187   7.243   5.777
25007WAT     H175263   3.164   7.205   5.687
25007WAT     H275264   3.274   7.292   5.769
25008WAT      O75265   6.638   9.450   2.729
25008WAT     H175266   6.702   9.501   2.786
25008WAT     H275267   6.647   9.352   2.746
25009WAT      O75268   4.997   8.131   1.030
25009WAT     H175269   4.930   8.081   0.975
25009WAT     H275270   4.982   8.229   1.020
25010WAT      O75271   7.537   7.896   4.163
25010WAT     H175272   7.628   7.923   4.134
25010WAT     H275273   7.472   7.909   4.087
25011WAT      O75274   8.915   2.728   8.821
25011WAT     H175275   8.909   2.641   8.772
25011WAT     H275276   8.852   2.794   8.780
25012WAT      O75277   2.207   1.553   9.849
25012WAT     H175278   2.129   1.497   9.823
25012WAT     H275279   2.198   1.578   9.946
25013WAT      O75280   8.087   8.823   7.659
25013WAT     H175281   8.178   8.827   7.616
25013WAT     H275282   8.086   8.885   7.738
25014WAT      O75283   2.222   0.806   8.891
25014WAT     H175284   2.167   0.856   8.825
25014WAT     H275285   2.315   0.840   8.890
25015WAT      O75286   9.272   0.073   2.437
25015WAT     H175287   9.309   0.050   2.347
25015WAT     H275288   9.190   0.018   2.454
25016WAT      O75289   4.710   1.845   8.901
25016WAT     H175290   4.788   1.839   8.963
25016WAT     H275291   4.731   1.908   8.827
25017WAT      O75292   9.490   7.472   5.382
25017WAT     H175293   9.532   7.562   5.391
25017WAT     H275294   9.391   7.484   5.370
25018WAT      O75295   4.181   1.975   9.331
25018WAT     H175296   4.125   1.993   9.413
25018WAT     H275297   4.278   1.977   9.355
25019WAT      O75298   5.454   2.652   4.837
25019WAT     H175299   5.360   2.623   4.823
25019WAT     H275300   5.481   2.634   4.931
25020WAT      O75301   0.541   6.054   1.658
25020WAT     H175302   0.636   6.060   1.628
25020WAT     H275303   0.537   6.008   1.747
25021WAT      O75304   1.831   9.026   0.237
25021WAT     H175305   1.851   8.988   0.327
25021WAT     H275306   1.818   9.125   0.245
25022WAT      O75307   2.267   2.417   8.677
25022WAT     H175308   2.246   2.331   8.723
25022WAT     H275309   2.196   2.436   8.609
25023WAT      O75310   7.116   0.330   3.247
25023WAT     H175311   7.043   0.262   3.243
25023WAT     H275312   7.088   0.412   3.196
25024WAT      O75313   1.712   6.457   6.577
25024WAT     H175314   1.617   6.427   6.588
25024WAT     H275315   1.744   6.497   6.662
25025WAT      O75316   1.600   6.345   9.513
25025WAT     H175317   1.530   6.276   9.494
25025WAT     H275318   1.677   6.333   9.451
25026WAT      O75319   8.939   5.760   3.904
25026WAT     H175320   9.008   5.832   3.905
25026WAT     H275321   8.856   5.793   3.860
25027WAT      O75322   8.416   3.255   5.489
25027WAT     H175323   8.502   3.305   5.497
25027WAT     H275324   8.403   3.227   5.394
25028WAT      O75325   7.947   8.590   7.797
25028WAT     H175326   7.983   8.667   7.745
25028WAT     H275327   7.855   8.611   7.830
25029WAT      O75328   2.616   8.840   9.325
25029WAT     H175329   2.526   8.865   9.289
25029WAT     H275330   2.686   8.865   9.257
25030WAT      O75331   5.963   8.071   6.741
25030WAT     H175332   5.868   8.043   6.757
25030WAT     H275333   5.967   8.125   6.656
25031WAT      O75334   4.059   4.580   7.320
25031WAT     H175335   3.961   4.566   7.308
25031WAT     H275336   4.103   4.491   7.334
25032WAT      O75337   6.062   3.486   6.687
25032WAT     H175338   6.042   3.564   6.746
25032WAT     H275339   6.145   3.504   6.634
25033WAT      O75340   0.600   8.045   3.934
25033WAT     H175341   0.596   8.136   3.893
25033WAT     H275342   0.513   7.998   3.920
25034WAT      O75343   2.275   4.918   9.438
25034WAT     H175344   2.342   4.844   9.440
25034WAT     H275345   2.297   4.985   9.509
25035WAT      O75346   8.343   8.274   0.923
25035WAT     H175347   8.320   8.368   0.950
25035WAT     H275348   8.436   8.272   0.887
25036WAT      O75349   3.095   3.937   1.871
25036WAT     H175350   3.127   3.848   1.901
25036WAT     H275351   2.995   3.940   1.878
25037WAT      O75352   5.029   5.793   1.372
25037WAT     H175353   4.931   5.798   1.352
25037WAT     H275354   5.042   5.769   1.469
25038WAT      O75355   4.524   1.572   4.952
25038WAT     H175356   4.505   1.531   4.862
25038WAT     H275357   4.502   1.670   4.948
25039WAT      O75358   6.790   7.314   5.551
25039WAT     H175359   6.875   7.342   5.507
25039WAT     H275360   6.784   7.354   5.642
25040WAT      O75361   4.054   5.352   0.799
25040WAT     H175362   4.073   5.352   0.897
25040WAT     H275363   3.983   5.285   0.779
25041WAT      O75364   7.601   4.277   7.589
25041WAT     H175365   7.605   4.275   7.688
25041WAT     H275366   7.608   4.183   7.554
25042WAT      O75367   5.835   9.758   0.668
25042WAT     H175368   5.857   9.856   0.666
25042WAT     H275369   5.768   9.740   0.741
25043WAT      O75370   1.047   2.394   9.598
25043WAT     H175371   1.050   2.294   9.598
25043WAT     H275372   1.140   2.430   9.588
25044WAT      O75373   0.490   6.543   9.787
25044WAT     H175374   0.570   6.526   9.844
25044WAT     H275375   0.410   6.556   9.845
25045WAT      O75376   2.720   3.574   9.626
25045WAT     H175377   2.726   3.476   9.647
25045WAT     H275378   2.651   3.589   9.556
25046WAT      O75379   5.545   8.891   8.063
25046WAT     H175380   5.610   8.815   8.071
25046WAT     H275381   5.492   8.898   8.147
25047WAT      O75382   1.356   6.943   4.050
25047WAT     H175383   1.284   6.894   4.099
25047WAT     H275384   1.413   6.993   4.115
25048WAT      O75385   6.150   7.718   5.910
25048WAT     H175386   6.108   7.662   5.981
25048WAT     H275387   6.212   7.662   5.855
25049WAT      O75388   6.150   5.968   5.076
25049WAT     H175389   6.076   5.903   5.092
25049WAT     H275390   6.203   5.980   5.160
25050WAT      O75391   6.905   3.194   1.708
25050WAT     H175392   6.968   3.218   1.635
25050WAT     H275393   6.954   3.188   1.795
25051WAT      O75394   1.590   4.005   4.589
25051WAT     H175395   1.586   4.079   4.522
25051WAT     H275396   1.683   3.968   4.593
25052WAT      O75397   9.301   4.394   7.257
25052WAT     H175398   9.317   4.394   7.356
25052WAT     H275399   9.255   4.479   7.231
25053WAT      O75400   1.299   0.466   7.374
25053WAT     H175401   1.320   0.555   7.333
25053WAT     H275402   1.230   0.420   7.318
25054WAT      O75403   6.492   3.093   8.704
25054WAT     H175404   6.446   3.178   8.728
25054WAT     H275405   6.471   3.069   8.609
25055WAT      O75406   7.176   8.100   3.031
25055WAT     H175407   7.189   8.065   3.124
25055WAT     H275408   7.153   8.024   2.970
25056WAT      O75409   4.909   7.456   1.828
25056WAT     H175410   4.873   7.377   1.778
25056WAT     H275411   4.945   7.523   1.763
25057WAT      O75412   8.083   6.339   1.870
25057WAT     H175413   8.033   6.418   1.834
25057WAT     H275414   8.079   6.340   1.970
25058WAT      O75415   1.921   3.933   1.430
25058WAT     H175416   1.864   3.856   1.403
25058WAT     H275417   1.965   3.912   1.518
25059WAT      O75418   9.427   8.618   2.282
25059WAT     H175419   9.383   8.693   2.332
25059WAT     H275420   9.524   8.639   2.269
25060WAT      O75421   5.199   7.198   0.167
25060WAT     H175422   5.156   7.129   0.224
25060WAT     H275423   5.136   7.274   0.153
25061WAT      O75424   8.282   6.065   3.710
25061WAT     H175425   8.282   6.007   3.629
25061WAT     H275426   8.250   6.156   3.686
25062WAT      O75427   6.838   2.515   4.168
25062WAT     H175428   6.747   2.492   4.133
25062WAT     H275429   6.836   2.517   4.268
25063WAT      O75430   9.343   1.019   9.509
25063WAT     H175431   9.441   1.001   9.501
25063WAT     H275432   9.297   0.935   9.540
25064WAT      O75433   5.142   0.248   4.488
25064WAT     H175434   5.164   0.214   4.396
25064WAT     H275435   5.070   0.317   4.481
25065WAT      O75436   3.912   2.427   4.766
25065WAT     H175437   3.928   2.485   4.687
25065WAT     H275438   3.983   2.357   4.771
25066WAT      O75439   2.948   0.022   1.353
25066WAT     H175440   2.909  -0.015   1.269
25066WAT     H275441   2.990  -0.052   1.405
25067WAT      O75442   3.850   5.991   3.078
25067WAT     H175443   3.917   5.918   3.066
25067WAT     H275444   3.838   6.010   3.176
25068WAT      O75445   2.151   7.340   1.035
25068WAT     H175446   2.209   7.404   0.985
25068WAT     H275447   2.157   7.359   1.133
25069WAT      O75448   7.158   7.236   5.153
25069WAT     H175449   7.170   7.145   5.193
25069WAT     H275450   7.245   7.285   5.155
25070WAT      O75451   7.516   1.969   2.799
25070WAT     H175452   7.611   1.954   2.770
25070WAT     H275453   7.456   1.962   2.719
25071WAT      O75454   6.333   8.290   7.654
25071WAT     H175455   6.417   8.332   7.618
25071WAT     H275456   6.254   8.335   7.612
25072WAT      O75457   3.841   1.236   7.930
25072WAT     H175458   3.925   1.280   7.961
25072WAT     H275459   3.830   1.148   7.976
25073WAT      O75460   8.946   0.032   5.379
25073WAT     H175461   8.906   0.111   5.426
25073WAT     H275462   9.028   0.062   5.330
25074WAT      O75463   2.088   4.348   5.908
25074WAT     H175464   2.018   4.282   5.880
25074WAT     H275465   2.049   4.440   5.906
25075WAT      O75466   0.189   6.265   8.103
25075WAT     H175467   0.221   6.172   8.123
25075WAT     H275468   0.199   6.322   8.184
25076WAT      O75469   3.085   4.589   9.334
25076WAT     H175470   3.030   4.535   9.270
25076WAT     H275471   3.176   4.548   9.342
25077WAT      O75472   7.726   2.680   7.873
25077WAT     H175473   7.821   2.694   7.901
25077WAT     H275474   7.710   2.584   7.852
25078WAT      O75475   7.959   4.564   6.320
25078WAT     H175476   8.035   4.564   6.256
25078WAT     H275477   7.927   4.470   6.334
25079WAT      O75478   2.091   8.731   4.467
25079WAT     H175479   2.177   8.779   4.451
25079WAT     H275480   2.111   8.641   4.506
25080WAT      O75481   6.183   6.733   7.696
25080WAT     H175482   6.145   6.645   7.721
25080WAT     H275483   6.155   6.756   7.602
25081WAT      O75484   3.310   1.968   7.490
25081WAT     H175485   3.346   1.940   7.401
25081WAT     H275486   3.385   2.003   7.547
25082WAT      O75487   4.512   3.996   8.835
25082WAT     H175488   4.446   4.071   8.839
25082WAT     H275489   4.466   3.910   8.858
25083WAT      O75490   0.437   8.871   3.141
25083WAT     H175491   0.517   8.931   3.129
25083WAT     H275492   0.452   8.811   3.220
25084WAT      O75493   7.117   0.728   3.831
25084WAT     H175494   7.118   0.823   3.862
25084WAT     H275495   7.062   0.721   3.748
25085WAT      O75496   6.411   6.090   4.267
25085WAT     H175497   6.378   6.178   4.301
25085WAT     H275498   6.503   6.102   4.230
25086WAT      O75499   8.436   4.261   4.199
25086WAT     H175500   8.385   4.222   4.123
25086WAT     H275501   8.525   4.216   4.207
25087WAT      O75502   3.215   5.147   1.103
25087WAT     H175503   3.237   5.098   1.187
25087WAT     H275504   3.294   5.202   1.075
25088WAT      O75505   1.016   2.332   3.317
25088WAT     H175506   1.006   2.279   3.401
25088WAT     H275507   1.063   2.277   3.248
25089WAT      O75508   5.956   5.129   3.779
25089WAT     H175509   6.024   5.057   3.779
25089WAT     H275510   6.000   5.217   3.797
25090WAT      O75511   2.697   0.874   4.992
25090WAT     H175512   2.623   0.809   5.009
25090WAT     H275513   2.661   0.967   4.996
25091WAT      O75514   1.350   6.392   2.641
25091WAT     H175515   1.374   6.300   2.610
25091WAT     H275516   1.434   6.445   2.657
25092WAT      O75517   6.835   7.507   5.756
25092WAT     H175518   6.818   7.604   5.739
25092WAT     H275519   6.933   7.492   5.769
25093WAT      O75520   2.465   3.222   1.750
25093WAT     H175521   2.419   3.282   1.684
25093WAT     H275522   2.399   3.188   1.816
25094WAT      O75523   0.274   4.349   7.633
25094WAT     H175524   0.367   4.379   7.614
25094WAT     H275525   0.219   4.352   7.549
25095WAT      O75526   8.393   8.680   5.727
25095WAT     H175527   8.391   8.614   5.652
25095WAT     H275528   8.476   8.665   5.782
25096WAT      O75529   7.584   6.988   8.654
25096WAT     H175530   7.621   6.966   8.564
25096WAT     H275531   7.630   7.069   8.690
25097WAT      O75532   5.295   5.079   0.509
25097WAT     H175533   5.353   5.102   0.431
25097WAT     H275534   5.276   5.162   0.562
25098WAT      O75535   4.733   2.131   9.284
25098WAT     H175536   4.815   2.138   9.228
25098WAT     H275537   4.757   2.100   9.376
25099WAT      O75538   0.979   2.212   8.814
25099WAT     H175539   0.935   2.297   8.787
25099WAT     H275540   0.935   2.176   8.897
25100WAT      O75541   8.591   4.190   9.742
25100WAT     H175542   8.603   4.102   9.695
25100WAT     H275543   8.522   4.244   9.692
25101WAT      O75544   3.576   1.642   5.266
25101WAT     H175545   3.675   1.644   5.257
25101WAT     H275546   3.549   1.572   5.331
25102WAT      O75547   4.466   9.346   6.152
25102WAT     H175548   4.528   9.420   6.177
25102WAT     H275549   4.373   9.369   6.181
25103WAT      O75550   6.918   5.140   3.465
25103WAT     H175551   6.865   5.205   3.520
25103WAT     H275552   6.872   5.128   3.377
25104WAT      O75553   7.392   2.936   3.234
25104WAT     H175554   7.349   3.024   3.250
25104WAT     H275555   7.429   2.933   3.141
25105WAT      O75556   6.547   9.400   1.923
25105WAT     H175557   6.456   9.365   1.900
25105WAT     H275558   6.597   9.422   1.839
25106WAT      O75559   2.975   2.393   9.611
25106WAT     H175560   2.970   2.340   9.696
25106WAT     H275561   2.998   2.488   9.631
25107WAT      O75562   4.025   2.453   6.081
25107WAT     H175563   4.073   2.371   6.051
25107WAT     H275564   3.942   2.427   6.131
25108WAT      O75565   9.751   0.070   9.431
25108WAT     H175566   9.763   0.166   9.405
25108WAT     H275567   9.688   0.064   9.508
25109WAT      O75568   3.838   0.866   3.624
25109WAT     H175569   3.788   0.784   3.595
25109WAT     H275570   3.890   0.902   3.547
25110WAT      O75571   5.952   7.558   5.361
25110WAT     H175572   6.029   7.593   5.414
25110WAT     H275573   5.904   7.635   5.318
25111WAT      O75574   5.651   6.137   0.538
25111WAT     H175575   5.552   6.139   0.555
25111WAT     H275576   5.697   6.090   0.614
25112WAT      O75577   2.930   2.036   9.324
25112WAT     H175578   2.967   2.078   9.407
25112WAT     H275579   2.995   1.967   9.290
25113WAT      O75580   4.362   6.125   2.912
25113WAT     H175581   4.377   6.102   3.008
25113WAT     H275582   4.431   6.080   2.855
25114WAT      O75583   6.178   4.125   3.120
25114WAT     H175584   6.202   4.031   3.097
25114WAT     H275585   6.169   4.179   3.036
25115WAT      O75586   4.707   2.454   4.139
25115WAT     H175587   4.701   2.442   4.238
25115WAT     H275588   4.802   2.450   4.110
25116WAT      O75589   5.226   8.151   0.127
25116WAT     H175590   5.279   8.066   0.134
25116WAT     H275591   5.153   8.151   0.195
25117WAT      O75592   5.598   1.354   9.563
25117WAT     H175593   5.537   1.277   9.580
25117WAT     H275594   5.665   1.329   9.493
25118WAT      O75595   6.755   8.089   2.673
25118WAT     H175596   6.730   8.042   2.757
25118WAT     H275597   6.686   8.070   2.603
25119WAT      O75598   1.026   2.606   1.545
25119WAT     H175599   0.990   2.695   1.573
25119WAT     H275600   1.122   2.600   1.570
25120WAT      O75601   9.403   3.438   1.619
25120WAT     H175602   9.474   3.456   1.551
25120WAT     H275603   9.360   3.524   1.645
25121WAT      O75604   6.143   3.520   3.479
25121WAT     H175605   6.143   3.617   3.502
25121WAT     H275606   6.050   3.489   3.461
25122WAT      O75607   7.616   7.515   6.265
25122WAT     H175608   7.715   7.527   6.253
25122WAT     H275609   7.589   7.426   6.229
25123WAT      O75610   9.332   4.559   6.911
25123WAT     H175611   9.244   4.605   6.916
25123WAT     H275612   9.383   4.574   6.996
25124WAT      O75613   0.204   5.618   1.904
25124WAT     H175614   0.108   5.590   1.901
25124WAT     H275615   0.239   5.604   1.997
25125WAT      O75616   9.868   5.068   0.914
25125WAT     H175617   9.824   5.063   0.825
25125WAT     H275618   9.910   5.158   0.925
25126WAT      O75619   2.243   7.125   8.654
25126WAT     H175620   2.167   7.189   8.645
25126WAT     H275621   2.270   7.120   8.751
25127WAT      O75622   3.073   4.365   2.850
25127WAT     H175623   3.041   4.324   2.764
25127WAT     H275624   3.088   4.292   2.917
25128WAT      O75625   8.341   8.214   5.491
25128WAT     H175626   8.332   8.186   5.395
25128WAT     H275627   8.250   8.231   5.529
25129WAT      O75628   5.363   2.392   7.954
25129WAT     H175629   5.268   2.422   7.950
25129WAT     H275630   5.396   2.396   8.048
25130WAT      O75631   6.878   4.618   5.739
25130WAT     H175632   6.908   4.708   5.769
25130WAT     H275633   6.778   4.617   5.733
25131WAT      O75634   2.210   4.301   3.317
25131WAT     H175635   2.217   4.300   3.217
25131WAT     H275636   2.184   4.392   3.348
25132WAT      O75637   6.300   0.672   8.286
25132WAT     H175638   6.300   0.754   8.229
25132WAT     H275639   6.281   0.592   8.228
25133WAT      O75640   0.955   6.697   5.927
25133WAT     H175641   1.039   6.745   5.901
25133WAT     H275642   0.882   6.764   5.940
25134WAT      O75643   8.862   0.801   8.953
25134WAT     H175644   8.824   0.878   8.903
25134WAT     H275645   8.958   0.820   8.975
25135WAT      O75646   2.580   6.990   4.423
25135WAT     H175647   2.606   6.919   4.488
25135WAT     H275648   2.663   7.027   4.380
25136WAT      O75649   7.512   8.155   6.544
25136WAT     H175650   7.562   8.190   6.623
25136WAT     H275651   7.518   8.055   6.542
25137WAT      O75652   9.068   0.646   7.577
25137WAT     H175653   9.123   0.596   7.511
25137WAT     H275654   9.024   0.724   7.531
25138WAT      O75655   9.410   9.250   1.863
25138WAT     H175656   9.347   9.325   1.842
25138WAT     H275657   9.490   9.256   1.803
25139WAT      O75658   5.097   0.086   4.838
25139WAT     H175659   5.169   0.154   4.853
25139WAT     H275660   5.117   0.005   4.893
25140WAT      O75661   3.561   6.926   4.861
25140WAT     H175662   3.587   6.972   4.776
25140WAT     H275663   3.638   6.870   4.893
25141WAT      O75664   8.567   1.612   8.621
25141WAT     H175665   8.471   1.630   8.644
25141WAT     H275666   8.612   1.699   8.598
25142WAT      O75667   1.287   0.687   7.959
25142WAT     H175668   1.355   0.761   7.962
25142WAT     H275669   1.333   0.602   7.933
25143WAT      O75670   1.292   9.354   0.441
25143WAT     H175671   1.216   9.371   0.504
25143WAT     H275672   1.267   9.282   0.378
25144WAT      O75673   6.042   5.917   0.162
25144WAT     H175674   5.972   5.988   0.165
25144WAT     H275675   6.042   5.867   0.249
25145WAT      O75676   5.068   2.040   5.728
25145WAT     H175677   5.025   2.029   5.818
25145WAT     H275678   4.999   2.061   5.660
25146WAT      O75679   5.452   3.127   7.191
25146WAT     H175680   5.397   3.138   7.274
25146WAT     H275681   5.539   3.084   7.214
25147WAT      O75682   9.419   4.097   8.156
25147WAT     H175683   9.356   4.131   8.087
25147WAT     H275684   9.385   4.121   8.247
25148WAT      O75685   6.375   0.998   6.658
25148WAT     H175686   6.381   0.988   6.559
25148WAT     H275687   6.443   1.065   6.688
25149WAT      O75688   6.272   1.256   1.610
25149WAT     H175689   6.312   1.345   1.591
25149WAT     H275690   6.221   1.223   1.530
25150WAT      O75691   9.599   8.890   4.670
25150WAT     H175692   9.647   8.819   4.619
25150WAT     H275693   9.643   8.904   4.759
25151WAT      O75694   0.360   6.640   0.374
25151WAT     H175695   0.460   6.635   0.364
25151WAT     H275696   0.325   6.713   0.317
25152WAT      O75697   9.402   0.090   4.138
25152WAT     H175698   9.452   0.174   4.119
25152WAT     H275699   9.339   0.071   4.063
25153WAT      O75700   1.684   2.402   0.023
25153WAT     H175701   1.647   2.321   0.066
25153WAT     H275702   1.709   2.469   0.093
25154WAT      O75703   9.365   5.046   2.262
25154WAT     H175704   9.393   5.135   2.226
25154WAT     H275705   9.370   5.046   2.361
25155WAT      O75706   2.844   1.893   4.444
25155WAT     H175707   2.888   1.859   4.527
25155WAT     H275708   2.884   1.848   4.364
25156WAT      O75709   2.790   1.380   8.186
25156WAT     H175710   2.819   1.474   8.206
25156WAT     H275711   2.712   1.382   8.123
25157WAT      O75712   8.422   6.146   6.569
25157WAT     H175713   8.337   6.101   6.597
25157WAT     H275714   8.402   6.211   6.496
25158WAT      O75715   7.121   3.763   3.570
25158WAT     H175716   7.094   3.769   3.474
25158WAT     H275717   7.215   3.796   3.580
25159WAT      O75718   2.212   5.811   0.657
25159WAT     H175719   2.223   5.791   0.754
25159WAT     H275720   2.300   5.842   0.620
25160WAT      O75721   3.286   0.018   2.692
25160WAT     H175722   3.187   0.020   2.704
25160WAT     H275723   3.307  -0.026   2.604
25161WAT      O75724   3.474   7.577   3.438
25161WAT     H175725   3.516   7.620   3.358
25161WAT     H275726   3.431   7.647   3.495
25162WAT      O75727   2.553   5.596   4.670
25162WAT     H175728   2.598   5.524   4.723
25162WAT     H275729   2.491   5.554   4.603
25163WAT      O75730   6.446   0.057   6.407
25163WAT     H175731   6.371   0.025   6.349
25163WAT     H275732   6.514  -0.016   6.416
25164WAT      O75733   9.325   8.251   3.752
25164WAT     H175734   9.346   8.154   3.736
25164WAT     H275735   9.225   8.263   3.753
25165WAT      O75736   4.080   7.140   8.198
25165WAT     H175737   4.006   7.116   8.262
25165WAT     H275738   4.103   7.237   8.210
25166WAT      O75739   6.868   0.876   7.428
25166WAT     H175740   6.873   0.971   7.398
25166WAT     H275741   6.917   0.866   7.515
25167WAT      O75742   0.317   8.689   8.465
25167WAT     H175743   0.340   8.673   8.369
25167WAT     H275744   0.366   8.623   8.522
25168WAT      O75745   6.457   3.740   9.618
25168WAT     H175746   6.478   3.679   9.695
25168WAT     H275747   6.434   3.831   9.653
25169WAT      O75748   1.906   6.807   2.277
25169WAT     H175749   1.949   6.891   2.246
25169WAT     H275750   1.807   6.819   2.280
25170WAT      O75751   1.470   7.320   1.957
25170WAT     H175752   1.376   7.287   1.950
25170WAT     H275753   1.485   7.360   2.048
25171WAT      O75754   0.613   6.923   1.768
25171WAT     H175755   0.523   6.880   1.782
25171WAT     H275756   0.683   6.869   1.814
25172WAT      O75757   6.012   0.952   6.024
25172WAT     H175758   5.948   1.012   6.072
25172WAT     H275759   5.982   0.857   6.031
25173WAT      O75760   3.694   2.636   6.229
25173WAT     H175761   3.662   2.622   6.323
25173WAT     H275762   3.712   2.733   6.214
25174WAT      O75763   8.691   5.714   9.533
25174WAT     H175764   8.696   5.723   9.434
25174WAT     H275765   8.779   5.683   9.569
25175WAT      O75766   5.386   3.549   4.586
25175WAT     H175767   5.387   3.462   4.635
25175WAT     H275768   5.432   3.618   4.641
25176WAT      O75769   9.349   0.443   9.026
25176WAT     H175770   9.257   0.407   9.040
25176WAT     H275771   9.355   0.484   8.935
25177WAT      O75772   8.513   4.451   5.440
25177WAT     H175773   8.423   4.493   5.448
25177WAT     H275774   8.509   4.378   5.372
25178WAT      O75775   6.098   0.144   1.678
25178WAT     H175776   6.115   0.188   1.590
25178WAT     H275777   6.160   0.066   1.688
25179WAT      O75778   7.928   9.828   8.713
25179WAT     H175779   7.984   9.856   8.791
25179WAT     H275780   7.899   9.733   8.725
25180WAT      O75781   2.678   8.322   1.068
25180WAT     H175782   2.739   8.242   1.061
25180WAT     H275783   2.668   8.364   0.978
25181WAT      O75784   1.475   0.744   1.593
25181WAT     H175785   1.490   0.701   1.504
25181WAT     H275786   1.409   0.690   1.645
25182WAT      O75787   1.032   1.596   5.069
25182WAT     H175788   0.958   1.530   5.051
25182WAT     H275789   1.114   1.546   5.097
25183WAT      O75790   5.120   1.932   2.677
25183WAT     H175791   5.140   1.855   2.616
25183WAT     H275792   5.040   1.911   2.733
25184WAT      O75793   7.931   0.879   9.513
25184WAT     H175794   7.956   0.976   9.520
25184WAT     H275795   7.887   0.861   9.425
25185WAT      O75796   3.603   1.308   3.390
25185WAT     H175797   3.591   1.313   3.489
25185WAT     H275798   3.513   1.309   3.345
25186WAT      O75799   7.667   7.674   1.344
25186WAT     H175800   7.700   7.662   1.251
25186WAT     H275801   7.567   7.675   1.345
25187WAT      O75802   7.240   1.121   1.107
25187WAT     H175803   7.337   1.131   1.084
25187WAT     H275804   7.229   1.108   1.205
25188WAT      O75805   8.594   2.750   0.158
25188WAT     H175806   8.595   2.850   0.157
25188WAT     H275807   8.633   2.717   0.244
25189WAT      O75808   0.782   9.502   2.501
25189WAT     H175809   0.757   9.552   2.584
25189WAT     H275810   0.702   9.455   2.465
25190WAT      O75811   1.478   6.453   8.420
25190WAT     H175812   1.473   6.402   8.334
25190WAT     H275813   1.494   6.550   8.399
25191WAT      O75814   4.092   1.987   0.977
25191WAT     H175815   4.054   1.959   0.889
25191WAT     H275816   4.065   2.081   0.997
25192WAT      O75817   9.497   2.326   8.606
25192WAT     H175818   9.431   2.339   8.532
25192WAT     H275819   9.588   2.314   8.567
25193WAT      O75820   3.503   4.290   0.061
25193WAT     H175821   3.531   4.234   0.139
25193WAT     H275822   3.581   4.306   0.000
25194WAT      O75823   3.404   3.492   5.751
25194WAT     H175824   3.481   3.468   5.811
25194WAT     H275825   3.421   3.458   5.659
25195WAT      O75826   4.706   1.897   0.351
25195WAT     H175827   4.739   1.991   0.352
25195WAT     H275828   4.609   1.896   0.372
25196WAT      O75829   3.994   8.396   7.232
25196WAT     H175830   4.088   8.424   7.253
25196WAT     H275831   3.981   8.395   7.133
25197WAT      O75832   3.557   3.489   9.095
25197WAT     H175833   3.537   3.523   9.003
25197WAT     H275834   3.656   3.479   9.106
25198WAT      O75835   1.699   9.741   4.715
25198WAT     H175836   1.610   9.766   4.754
25198WAT     H275837   1.733   9.658   4.760
25199WAT      O75838   4.241   9.360   9.623
25199WAT     H175839   4.289   9.435   9.667
25199WAT     H275840   4.230   9.284   9.687
25200WAT      O75841   1.936   2.452   7.347
25200WAT     H175842   1.893   2.515   7.412
25200WAT     H275843   1.957   2.501   7.263
25201WAT      O75844   7.598   4.158   3.632
25201WAT     H175845   7.563   4.149   3.725
25201WAT     H275846   7.683   4.106   3.623
25202WAT      O75847   9.629   4.168   8.386
25202WAT     H175848   9.665   4.075   8.393
25202WAT     H275849   9.543   4.175   8.437
25203WAT      O75850   1.190   5.047   2.947
25203WAT     H175851   1.272   5.103   2.931
25203WAT     H275852   1.214   4.950   2.940
25204WAT      O75853   9.434   7.667   7.714
25204WAT     H175854   9.425   7.643   7.617
25204WAT     H275855   9.345   7.655   7.759
25205WAT      O75856   3.053   6.320   9.545
25205WAT     H175857   2.958   6.345   9.560
25205WAT     H275858   3.098   6.306   9.634
25206WAT      O75859   2.575   1.081   6.437
25206WAT     H175860   2.673   1.099   6.433
25206WAT     H275861   2.531   1.114   6.353
25207WAT      O75862   5.677   7.486   3.869
25207WAT     H175863   5.597   7.510   3.814
25207WAT     H275864   5.701   7.563   3.928
25208WAT      O75865   4.126   0.888   0.196
25208WAT     H175866   4.146   0.903   0.293
25208WAT     H275867   4.212   0.885   0.145
25209WAT      O75868   4.356   5.414   3.590
25209WAT     H175869   4.312   5.486   3.644
25209WAT     H275870   4.428   5.371   3.645
25210WAT      O75871   2.579   7.634   1.755
25210WAT     H175872   2.676   7.620   1.775
25210WAT     H275873   2.539   7.546   1.727
25211WAT      O75874   5.986   7.249   0.642
25211WAT     H175875   5.902   7.223   0.689
25211WAT     H275876   6.063   7.199   0.682
25212WAT      O75877   1.622   6.726   4.743
25212WAT     H175878   1.665   6.812   4.769
25212WAT     H275879   1.691   6.654   4.735
25213WAT      O75880   6.794   5.930   3.388
25213WAT     H175881   6.861   5.860   3.414
25213WAT     H275882   6.840   6.019   3.383
25214WAT      O75883   5.818   0.206   9.156
25214WAT     H175884   5.760   0.150   9.215
25214WAT     H275885   5.907   0.162   9.145
25215WAT      O75886   3.155   8.850   3.620
25215WAT     H175887   3.196   8.761   3.601
25215WAT     H275888   3.131   8.895   3.533
25216WAT      O75889   4.212   1.591   5.024
25216WAT     H175890   4.307   1.597   4.992
25216WAT     H275891   4.211   1.584   5.123
25217WAT      O75892   3.251   7.159   9.725
25217WAT     H175893   3.162   7.115   9.724
25217WAT     H275894   3.290   7.157   9.632
25218WAT      O75895   3.589   1.980   1.443
25218WAT     H175896   3.617   1.923   1.521
25218WAT     H275897   3.669   2.002   1.387
25219WAT      O75898   1.748   8.757   6.293
25219WAT     H175899   1.730   8.659   6.297
25219WAT     H275900   1.691   8.804   6.359
25220WAT      O75901   2.913   0.364   6.640
25220WAT     H175902   2.925   0.459   6.609
25220WAT     H275903   2.854   0.363   6.721
25221WAT      O75904   5.766   5.306   7.086
25221WAT     H175905   5.856   5.296   7.043
25221WAT     H275906   5.716   5.380   7.041
25222WAT      O75907   9.695   7.733   2.279
25222WAT     H175908   9.685   7.634   2.288
25222WAT     H275909   9.678   7.776   2.368
25223WAT      O75910   2.335   1.942   5.255
25223WAT     H175911   2.235   1.943   5.253
25223WAT     H275912   2.368   2.007   5.323
25224WAT      O75913   5.790   7.789   0.094
25224WAT     H175914   5.851   7.868   0.082
25224WAT     H275915   5.708   7.817   0.143
25225WAT      O75916   9.544   5.681   5.661
25225WAT     H175917   9.617   5.640   5.606
25225WAT     H275918   9.536   5.633   5.748
25226WAT      O75919   4.899   4.002   2.176
25226WAT     H175920   4.906   3.907   2.206
25226WAT     H275921   4.919   4.063   2.253
25227WAT      O75922   0.292   2.992   7.309
25227WAT     H175923   0.388   2.976   7.289
25227WAT     H275924   0.262   2.931   7.381
25228WAT      O75925   5.573   9.108   0.829
25228WAT     H175926   5.661   9.061   0.835
25228WAT     H275927   5.586   9.206   0.844
25229WAT      O75928   0.824   9.435   4.289
25229WAT     H175929   0.885   9.491   4.233
25229WAT     H275930   0.777   9.369   4.231
25230WAT      O75931   0.264   3.905   2.902
25230WAT     H175932   0.323   3.930   2.825
25230WAT     H275933   0.170   3.894   2.869
25231WAT      O75934   1.550   0.962   8.749
25231WAT     H175935   1.546   0.879   8.804
25231WAT     H275936   1.566   0.938   8.653
25232WAT      O75937   9.220   8.335   2.582
25232WAT     H175938   9.272   8.345   2.497
25232WAT     H275939   9.193   8.239   2.593
25233WAT      O75940   4.208   7.852   7.590
25233WAT     H175941   4.282   7.891   7.645
25233WAT     H275942   4.195   7.756   7.615
25234WAT      O75943   3.887   8.611   3.811
25234WAT     H175944   3.827   8.591   3.888
25234WAT     H275945   3.855   8.563   3.730
25235WAT      O75946   0.016   4.806   7.195
25235WAT     H175947   0.017   4.781   7.098
25235WAT     H275948  -0.067   4.769   7.238
25236WAT      O75949   4.736   4.682   1.634
25236WAT     H175950   4.720   4.604   1.695
25236WAT     H275951   4.648   4.718   1.603
25237WAT      O75952   5.167   4.438   4.585
25237WAT     H175953   5.141   4.519   4.534
25237WAT     H275954   5.244   4.460   4.646
25238WAT      O75955   1.713   3.600   0.944
25238WAT     H175956   1.769   3.679   0.970
25238WAT     H275957   1.763   3.516   0.962
25239WAT      O75958   0.050   6.014   4.445
25239WAT     H175959  -0.014   6.014   4.522
25239WAT     H275960   0.030   5.936   4.385
25240WAT      O75961   0.896   4.661   3.898
25240WAT     H175962   0.882   4.614   3.985
25240WAT     H275963   0.992   4.657   3.872
25241WAT      O75964   1.485   1.607   6.849
25241WAT     H175965   1.540   1.607   6.765
25241WAT     H275966   1.391   1.579   6.826
25242WAT      O75967   7.110   1.108   7.921
25242WAT     H175968   7.110   1.148   8.013
25242WAT     H275969   7.028   1.138   7.872
25243WAT      O75970   1.669   1.513   1.276
25243WAT     H175971   1.581   1.485   1.237
25243WAT     H275972   1.737   1.442   1.259
25244WAT      O75973   3.242   2.920   3.809
25244WAT     H175974   3.148   2.886   3.810
25244WAT     H275975   3.242   3.018   3.792
25245WAT      O75976   5.416   6.344   2.843
25245WAT     H175977   5.321   6.369   2.864
25245WAT     H275978   5.468   6.427   2.822
25246WAT      O75979   9.390   9.583   0.564
25246WAT     H175980   9.468   9.524   0.587
25246WAT     H275981   9.380   9.587   0.464
25247WAT      O75982   9.105   3.729   0.937
25247WAT     H175983   9.165   3.739   1.016
25247WAT     H275984   9.136   3.790   0.864
25248WAT      O75985   1.032   3.617   0.052
25248WAT     H175986   1.048   3.574   0.141
25248WAT     H275987   0.942   3.661   0.052
25249WAT      O75988   5.553   6.886   2.955
25249WAT     H175989   5.572   6.812   3.020
25249WAT     H275990   5.609   6.875   2.874
25250WAT      O75991   9.222   5.853   7.846
25250WAT     H175992   9.124   5.843   7.834
25250WAT     H275993   9.241   5.930   7.909
25251WAT      O75994   4.311   9.613   3.523
25251WAT     H175995   4.357   9.698   3.548
25251WAT     H275996   4.378   9.539   3.520
25252WAT      O75997   2.791   3.645   0.564
25252WAT     H175998   2.775   3.732   0.610
25252WAT     H275999   2.814   3.575   0.631
25253WAT      O76000   0.783   1.885   2.358
25253WAT     H176001   0.690   1.922   2.347
25253WAT     H276002   0.777   1.791   2.393
25254WAT      O76003   1.204   4.735   2.879
25254WAT     H176004   1.301   4.727   2.903
25254WAT     H276005   1.166   4.644   2.864
25255WAT      O76006   4.464   3.038   7.813
25255WAT     H176007   4.441   3.113   7.752
25255WAT     H276008   4.387   3.019   7.874
25256WAT      O76009   6.188   7.795   5.113
25256WAT     H176010   6.136   7.722   5.068
25256WAT     H276011   6.125   7.856   5.161
25257WAT      O76012   1.018   5.542   8.119
25257WAT     H176013   1.002   5.456   8.167
25257WAT     H276014   1.100   5.532   8.062
25258WAT      O76015   9.003   1.179   3.479
25258WAT     H176016   9.093   1.204   3.444
25258WAT     H276017   8.948   1.261   3.491
25259WAT      O76018   6.994   6.037   6.894
25259WAT     H176019   7.074   5.998   6.940
25259WAT     H276020   6.912   5.991   6.927
25260WAT      O76021   9.757   4.576   7.545
25260WAT     H176022   9.663   4.595   7.516
25260WAT     H276023   9.757   4.497   7.607
25261WAT      O76024   0.514   8.274   7.417
25261WAT     H176025   0.433   8.304   7.467
25261WAT     H276026   0.506   8.177   7.394
25262WAT      O76027   6.306   5.270   7.802
25262WAT     H176028   6.261   5.182   7.783
25262WAT     H276029   6.337   5.310   7.715
25263WAT      O76030   7.306   7.636   9.170
25263WAT     H176031   7.370   7.613   9.097
25263WAT     H276032   7.337   7.719   9.216
25264WAT      O76033   6.346   5.568   8.183
25264WAT     H176034   6.309   5.626   8.256
25264WAT     H276035   6.337   5.472   8.210
25265WAT      O76036   4.593   6.241   2.681
25265WAT     H176037   4.622   6.315   2.742
25265WAT     H276038   4.611   6.153   2.726
25266WAT      O76039   2.365   1.319   8.282
25266WAT     H176040   2.433   1.258   8.322
25266WAT     H276041   2.304   1.352   8.354
25267WAT      O76042   8.171   8.893   4.628
25267WAT     H176043   8.237   8.863   4.698
25267WAT     H276044   8.207   8.972   4.580
25268WAT      O76045   8.161   8.144   3.608
25268WAT     H176046   8.115   8.190   3.532
25268WAT     H276047   8.093   8.097   3.664
25269WAT      O76048   0.688   6.569   7.929
25269WAT     H176049   0.685   6.660   7.971
25269WAT     H276050   0.759   6.565   7.859
25270WAT      O76051   0.590   4.727   5.232
25270WAT     H176052   0.524   4.662   5.270
25270WAT     H276053   0.566   4.820   5.260
25271WAT      O76054   7.997   3.615   0.193
25271WAT     H176055   7.994   3.703   0.239
25271WAT     H276056   7.987   3.542   0.260
25272WAT      O76057   2.585   5.094   6.195
25272WAT     H176058   2.685   5.093   6.189
25272WAT     H276059   2.552   5.002   6.219
25273WAT      O76060   3.750   6.807   5.956
25273WAT     H176061   3.802   6.756   6.024
25273WAT     H276062   3.794   6.895   5.938
25274WAT      O76063   2.609   8.969   1.726
25274WAT     H176064   2.556   9.025   1.662
25274WAT     H276065   2.701   9.007   1.735
25275WAT      O76066   0.384   0.127   2.827
25275WAT     H176067   0.355   0.178   2.746
25275WAT     H276068   0.484   0.120   2.827
25276WAT      O76069   7.169   5.398   4.458
25276WAT     H176070   7.245   5.443   4.411
25276WAT     H276071   7.193   5.303   4.478
25277WAT      O76072   0.968   3.050   4.682
25277WAT     H176073   0.958   3.148   4.698
25277WAT     H276074   1.004   3.035   4.589
25278WAT      O76075   3.084   9.123   4.951
25278WAT     H176076   3.085   9.065   4.869
25278WAT     H276077   3.093   9.067   5.032
25279WAT      O76078   6.454   1.538   3.957
25279WAT     H176079   6.371   1.500   3.916
25279WAT     H276080   6.470   1.630   3.920
25280WAT      O76081   6.363   3.338   2.735
25280WAT     H176082   6.455   3.355   2.769
25280WAT     H276083   6.297   3.390   2.791
25281WAT      O76084   1.647   3.829   1.771
25281WAT     H176085   1.614   3.920   1.796
25281WAT     H276086   1.598   3.797   1.690
25282WAT      O76087   2.724   4.245   3.704
25282WAT     H176088   2.767   4.330   3.674
25282WAT     H276089   2.720   4.181   3.628
25283WAT      O76090   5.465   3.424   7.046
25283WAT     H176091   5.557   3.460   7.063
25283WAT     H276092   5.455   3.336   7.091
25284WAT      O76093   8.819   3.831   1.152
25284WAT     H176094   8.786   3.840   1.058
25284WAT     H276095   8.881   3.753   1.158
25285WAT      O76096   4.986   3.687   8.699
25285WAT     H176097   4.955   3.663   8.608
25285WAT     H276098   4.914   3.734   8.748
25286WAT      O76099   2.157   8.368   0.534
25286WAT     H176100   2.169   8.402   0.441
25286WAT     H276101   2.164   8.269   0.534
25287WAT      O76102   2.447   8.076   4.782
25287WAT     H176103   2.367   8.017   4.793
25287WAT     H276104   2.422   8.157   4.729
25288WAT      O76105   5.272   8.414   9.149
25288WAT     H176106   5.189   8.409   9.204
25288WAT     H276107   5.248   8.424   9.053
25289WAT      O76108   2.417   7.321   9.199
25289WAT     H176109   2.371   7.241   9.238
25289WAT     H276110   2.516   7.308   9.205
25290WAT      O76111   4.333   0.367   4.496
25290WAT     H176112   4.421   0.342   4.536
25290WAT     H276113   4.334   0.352   4.398
25291WAT      O76114   6.235   5.770   4.565
25291WAT     H176115   6.174   5.691   4.569
25291WAT     H276116   6.264   5.795   4.657
25292WAT      O76117   8.378   8.324   3.915
25292WAT     H176118   8.335   8.259   3.977
25292WAT     H276119   8.415   8.276   3.835
25293WAT      O76120   5.135   7.924   9.233
25293WAT     H176121   5.050   7.926   9.285
25293WAT     H276122   5.141   7.839   9.181
25294WAT      O76123   3.234   4.325   3.215
25294WAT     H176124   3.210   4.252   3.152
25294WAT     H276125   3.334   4.332   3.222
25295WAT      O76126   9.135   1.185   2.041
25295WAT     H176127   9.060   1.124   2.015
25295WAT     H276128   9.098   1.271   2.075
25296WAT      O76129   8.532   3.287   8.915
25296WAT     H176130   8.590   3.341   8.976
25296WAT     H276131   8.506   3.343   8.836
25297WAT      O76132   7.951   9.578   9.426
25297WAT     H176133   8.004   9.541   9.350
25297WAT     H276134   7.974   9.529   9.510
25298WAT      O76135   6.960   6.866   5.014
25298WAT     H176136   6.991   6.844   4.922
25298WAT     H276137   7.008   6.808   5.080
25299WAT      O76138   2.122   5.136   4.166
25299WAT     H176139   2.048   5.068   4.165
25299WAT     H276140   2.094   5.217   4.115
25300WAT      O76141   6.548   6.991   2.642
25300WAT     H176142   6.491   7.061   2.600
25300WAT     H276143   6.614   7.035   2.703
25301WAT      O76144   6.926   5.626   6.437
25301WAT     H176145   6.994   5.593   6.502
25301WAT     H276146   6.835   5.618   6.477
25302WAT      O76147   2.147   4.603   5.077
25302WAT     H176148   2.204   4.522   5.064
25302WAT     H276149   2.128   4.645   4.988
25303WAT      O76150   6.992   1.822   4.610
25303WAT     H176151   7.034   1.737   4.644
25303WAT     H276152   7.046   1.858   4.534
25304WAT      O76153   0.776   8.441   6.650
25304WAT     H176154   0.780   8.525   6.705
25304WAT     H276155   0.780   8.362   6.711
25305WAT      O76156   1.200   1.027   8.061
25305WAT     H176157   1.283   0.983   8.026
25305WAT     H276158   1.148   1.065   7.985
25306WAT      O76159   7.735   5.929   7.185
25306WAT     H176160   7.802   6.001   7.167
25306WAT     H276161   7.681   5.954   7.265
25307WAT      O76162   7.036   8.530   6.406
25307WAT     H176163   6.989   8.612   6.376
25307WAT     H276164   7.057   8.472   6.328
25308WAT      O76165   6.746   6.298   3.027
25308WAT     H176166   6.793   6.211   3.007
25308WAT     H276167   6.717   6.340   2.941
25309WAT      O76168   6.330   7.568   5.773
25309WAT     H176169   6.361   7.636   5.706
25309WAT     H276170   6.269   7.503   5.729
25310WAT      O76171   4.738   3.295   2.231
25310WAT     H176172   4.824   3.244   2.224
25310WAT     H276173   4.729   3.357   2.153
25311WAT      O76174   2.882   4.473   7.747
25311WAT     H176175   2.961   4.446   7.800
25311WAT     H276176   2.886   4.571   7.729
25312WAT      O76177   5.814   1.569   7.351
25312WAT     H176178   5.852   1.476   7.346
25312WAT     H276179   5.853   1.625   7.278
25313WAT      O76180   5.915   3.443   1.196
25313WAT     H176181   5.977   3.498   1.140
25313WAT     H276182   5.820   3.470   1.178
25314WAT      O76183   9.438   1.135   0.409
25314WAT     H176184   9.527   1.092   0.402
25314WAT     H276185   9.431   1.211   0.345
25315WAT      O76186   7.175   2.559   7.959
25315WAT     H176187   7.139   2.629   8.020
25315WAT     H276188   7.261   2.524   7.996
25316WAT      O76189   7.828   8.646   0.979
25316WAT     H176190   7.830   8.646   0.879
25316WAT     H276191   7.826   8.740   1.013
25317WAT      O76192   2.028   5.459   9.191
25317WAT     H176193   1.957   5.474   9.122
25317WAT     H276194   1.993   5.397   9.261
25318WAT      O76195   6.909   7.360   6.633
25318WAT     H176196   6.931   7.273   6.676
25318WAT     H276197   6.952   7.365   6.543
25319WAT      O76198   6.314   6.435   2.243
25319WAT     H176199   6.215   6.438   2.233
25319WAT     H276200   6.351   6.528   2.235
25320WAT      O76201   4.386   2.832   4.684
25320WAT     H176202   4.368   2.903   4.751
25320WAT     H276203   4.425   2.752   4.729
25321WAT      O76204   9.499   8.393   6.623
25321WAT     H176205   9.435   8.361   6.553
25321WAT     H276206   9.454   8.391   6.713
25322WAT      O76207   9.124   7.799   2.607
25322WAT     H176208   9.142   7.777   2.703
25322WAT     H276209   9.206   7.783   2.553
25323WAT      O76210   2.198   1.637   8.351
25323WAT     H176211   2.167   1.608   8.441
25323WAT     H276212   2.297   1.650   8.352
25324WAT      O76213   1.363   0.236   2.854
25324WAT     H176214   1.452   0.273   2.884
25324WAT     H276215   1.378   0.174   2.777
25325WAT      O76216   7.375   3.616   7.880
25325WAT     H176217   7.455   3.567   7.845
25325WAT     H276218   7.301   3.611   7.813
25326WAT      O76219   6.597   4.659   9.843
25326WAT     H176220   6.551   4.731   9.895
25326WAT     H276221   6.536   4.625   9.771
25327WAT      O76222   9.802   1.535   3.485
25327WAT     H176223   9.732   1.560   3.419
25327WAT     H276224   9.775   1.452   3.533
25328WAT      O76225   4.184   3.386   4.822
25328WAT     H176226   4.254   3.339   4.769
25328WAT     H276227   4.227   3.451   4.885
25329WAT      O76228   0.646   8.428   2.724
25329WAT     H176229   0.635   8.329   2.735
25329WAT     H276230   0.596   8.458   2.642
25330WAT      O76231   4.799   1.668   0.849
25330WAT     H176232   4.815   1.755   0.895
25330WAT     H276233   4.743   1.609   0.908
25331WAT      O76234   0.526   6.790   7.524
25331WAT     H176235   0.587   6.782   7.446
25331WAT     H276236   0.556   6.866   7.582
25332WAT      O76237   7.457   9.174   3.198
25332WAT     H176238   7.532   9.208   3.142
25332WAT     H276239   7.387   9.132   3.140
25333WAT      O76240   4.673   7.385   5.325
25333WAT     H176241   4.766   7.348   5.327
25333WAT     H276242   4.614   7.330   5.385
25334WAT      O76243   5.333   6.430   5.786
25334WAT     H176244   5.298   6.519   5.815
25334WAT     H276245   5.394   6.442   5.707
25335WAT      O76246   6.004   2.183   2.056
25335WAT     H176247   6.040   2.248   2.122
25335WAT     H276248   5.927   2.224   2.007
25336WAT      O76249   5.360   7.036   9.187
25336WAT     H176250   5.332   7.129   9.162
25336WAT     H276251   5.280   6.977   9.193
25337WAT      O76252   5.062   0.131   2.115
25337WAT     H176253   5.114   0.203   2.069
25337WAT     H276254   5.012   0.170   2.192
25338WAT      O76255   2.475   3.401   0.472
25338WAT     H176256   2.460   3.377   0.376
25338WAT     H276257   2.490   3.500   0.479
25339WAT      O76258   6.046   3.796   3.509
25339WAT     H176259   5.991   3.780   3.591
25339WAT     H276260   5.986   3.824   3.434
25340WAT      O76261   6.615   1.661   4.617
25340WAT     H176262   6.559   1.589   4.576
25340WAT     H276263   6.706   1.625   4.639
25341WAT      O76264   1.353   5.030   0.386
25341WAT     H176265   1.334   4.961   0.317
25341WAT     H276266   1.447   5.062   0.377
25342WAT      O76267   2.963   3.914   6.407
25342WAT     H176268   3.006   3.942   6.493
25342WAT     H276269   2.999   3.824   6.381
25343WAT      O76270   9.379   7.604   2.859
25343WAT     H176271   9.344   7.577   2.770
25343WAT     H276272   9.372   7.527   2.923
25344WAT      O76273   4.736   2.814   1.214
25344WAT     H176274   4.812   2.753   1.192
25344WAT     H276275   4.759   2.867   1.296
25345WAT      O76276   8.213   8.728   7.209
25345WAT     H176277   8.203   8.653   7.143
25345WAT     H276278   8.286   8.707   7.273
25346WAT      O76279   3.245   1.187   0.012
25346WAT     H176280   3.207   1.150   0.097
25346WAT     H276281   3.174   1.189  -0.058
25347WAT      O76282   7.710   6.676   1.394
25347WAT     H176283   7.631   6.737   1.400
25347WAT     H276284   7.703   6.620   1.311
25348WAT      O76285   6.158   7.265   4.463
25348WAT     H176286   6.233   7.205   4.435
25348WAT     H276287   6.133   7.325   4.386
25349WAT      O76288   5.018   7.613   4.162
25349WAT     H176289   5.063   7.697   4.131
25349WAT     H276290   4.947   7.637   4.228
25350WAT      O76291   6.097   6.272   0.265
25350WAT     H176292   6.003   6.252   0.294
25350WAT     H276293   6.096   6.346   0.198
25351WAT      O76294   9.781   6.866   5.550
25351WAT     H176295   9.803   6.774   5.584
25351WAT     H276296   9.840   6.887   5.472
25352WAT      O76297   4.922   5.004   3.006
25352WAT     H176298   4.886   5.093   3.036
25352WAT     H276299   4.849   4.936   3.010
25353WAT      O76300   1.188   5.633   7.470
25353WAT     H176301   1.157   5.551   7.519
25353WAT     H276302   1.242   5.690   7.532
25354WAT      O76303   2.239   4.747   3.827
25354WAT     H176304   2.314   4.809   3.849
25354WAT     H276305   2.199   4.711   3.911
25355WAT      O76306   4.593   8.578   0.808
25355WAT     H176307   4.568   8.482   0.799
25355WAT     H276308   4.520   8.627   0.856
25356WAT      O76309   5.912   8.764   6.915
25356WAT     H176310   5.832   8.802   6.869
25356WAT     H276311   5.964   8.837   6.958
25357WAT      O76312   9.147   5.097   9.868
25357WAT     H176313   9.160   5.012   9.818
25357WAT     H276314   9.083   5.156   9.819
25358WAT      O76315   9.764   7.988   0.280
25358WAT     H176316   9.828   7.984   0.203
25358WAT     H276317   9.813   7.971   0.365
25359WAT      O76318   2.173   4.408   3.926
25359WAT     H176319   2.118   4.479   3.968
25359WAT     H276320   2.236   4.369   3.994
25360WAT      O76321   2.101   5.002   1.204
25360WAT     H176322   2.109   4.956   1.292
25360WAT     H276323   2.029   4.959   1.149
25361WAT      O76324   5.570   3.248   8.727
25361WAT     H176325   5.573   3.255   8.827
25361WAT     H276326   5.505   3.314   8.691
25362WAT      O76327   9.671   0.437   3.392
25362WAT     H176328   9.628   0.482   3.470
25362WAT     H276329   9.647   0.486   3.308
25363WAT      O76330   3.195   6.819   6.856
25363WAT     H176331   3.290   6.819   6.885
25363WAT     H276332   3.175   6.733   6.808
25364WAT      O76333   0.196   4.695   8.759
25364WAT     H176334   0.150   4.618   8.714
25364WAT     H276335   0.270   4.727   8.700
25365WAT      O76336   0.798   5.000   8.634
25365WAT     H176337   0.894   4.978   8.649
25365WAT     H276338   0.747   4.985   8.718
25366WAT      O76339   9.057   9.249   1.062
25366WAT     H176340   9.123   9.322   1.079
25366WAT     H276341   8.983   9.254   1.130
25367WAT      O76342   5.931   2.234   3.039
25367WAT     H176343   5.871   2.179   2.980
25367WAT     H276344   5.883   2.255   3.124
25368WAT      O76345   9.212   6.047   8.026
25368WAT     H176346   9.205   6.092   7.938
25368WAT     H276347   9.306   6.054   8.060
25369WAT      O76348   8.029   1.371   0.013
25369WAT     H176349   8.079   1.314  -0.053
25369WAT     H276350   7.931   1.354   0.003
25370WAT      O76351   6.067   7.980   9.642
25370WAT     H176352   6.069   8.077   9.665
25370WAT     H276353   6.120   7.965   9.558
25371WAT      O76354   5.502   7.424   1.977
25371WAT     H176355   5.415   7.392   2.014
25371WAT     H276356   5.569   7.430   2.051
25372WAT      O76357   7.311   2.284   5.366
25372WAT     H176358   7.240   2.315   5.303
25372WAT     H276359   7.348   2.362   5.416
25373WAT      O76360   2.555   4.741   5.991
25373WAT     H176361   2.641   4.786   6.014
25373WAT     H276362   2.569   4.681   5.912
25374WAT      O76363   1.673   9.527   0.838
25374WAT     H176364   1.581   9.564   0.853
25374WAT     H276365   1.741   9.596   0.863
25375WAT      O76366   1.164   5.482   4.881
25375WAT     H176367   1.244   5.426   4.901
25375WAT     H276368   1.192   5.572   4.850
25376WAT      O76369   7.737   7.127   2.015
25376WAT     H176370   7.682   7.045   2.031
25376WAT     H276371   7.737   7.149   1.918
25377WAT      O76372   5.316   5.500   5.969
25377WAT     H176373   5.296   5.527   5.875
25377WAT     H276374   5.292   5.574   6.032
25378WAT      O76375   4.600   1.546   1.036
25378WAT     H176376   4.558   1.460   1.006
25378WAT     H276377   4.530   1.605   1.075
25379WAT      O76378   3.790   7.867   8.762
25379WAT     H176379   3.724   7.826   8.699
25379WAT     H276380   3.875   7.813   8.761
25380WAT      O76381   4.408   7.447   9.674
25380WAT     H176382   4.456   7.523   9.629
25380WAT     H276383   4.474   7.390   9.723
25381WAT      O76384   9.698   6.370   1.871
25381WAT     H176385   9.678   6.284   1.824
25381WAT     H276386   9.797   6.385   1.874
25382WAT      O76387   1.840   8.385   7.334
25382WAT     H176388   1.935   8.367   7.358
25382WAT     H276389   1.781   8.319   7.380
25383WAT      O76390   9.178   6.628   4.967
25383WAT     H176391   9.155   6.575   4.885
25383WAT     H276392   9.170   6.725   4.947
25384WAT      O76393   4.231   6.967   0.123
25384WAT     H176394   4.218   7.048   0.065
25384WAT     H276395   4.199   6.987   0.216
25385WAT      O76396   5.639   4.262   5.763
25385WAT     H176397   5.655   4.337   5.828
25385WAT     H276398   5.717   4.201   5.762
25386WAT      O76399   6.368   1.419   8.518
25386WAT     H176400   6.372   1.320   8.526
25386WAT     H276401   6.451   1.453   8.473
25387WAT      O76402   0.225   3.348   5.244
25387WAT     H176403   0.258   3.441   5.229
25387WAT     H276404   0.240   3.294   5.161
25388WAT      O76405   3.015   5.740   4.923
25388WAT     H176406   2.955   5.725   5.002
25388WAT     H276407   3.109   5.750   4.954
25389WAT      O76408   9.081   0.283   1.101
25389WAT     H176409   9.136   0.239   1.030
25389WAT     H276410   9.072   0.381   1.081
25390WAT      O76411   2.515   9.384   0.530
25390WAT     H176412   2.521   9.329   0.446
25390WAT     H276413   2.596   9.442   0.538
25391WAT      O76414   0.186   5.456   5.947
25391WAT     H176415   0.168   5.554   5.958
25391WAT     H276416   0.103   5.404   5.967
25392WAT      O76417   1.864   1.795   4.371
25392WAT     H176418   1.937   1.824   4.434
25392WAT     H276419   1.779   1.783   4.422
25393WAT      O76420   9.840   1.237   2.086
25393WAT     H176421   9.762   1.270   2.034
25393WAT     H276422   9.814   1.154   2.135
25394WAT      O76423   4.997   0.834   5.335
25394WAT     H176424   5.032   0.750   5.376
25394WAT     H276425   4.902   0.847   5.362
25395WAT      O76426   1.517   6.335   0.636
25395WAT     H176427   1.609   6.358   0.667
25395WAT     H276428   1.453   6.340   0.713
25396WAT      O76429   5.218   7.731   3.048
25396WAT     H176430   5.255   7.704   3.137
25396WAT     H276431   5.258   7.818   3.019
25397WAT      O76432   2.476   8.954   0.084
25397WAT     H176433   2.555   8.947   0.023
25397WAT     H276434   2.484   9.036   0.140
25398WAT      O76435   6.681   4.194   7.812
25398WAT     H176436   6.645   4.174   7.904
25398WAT     H276437   6.745   4.270   7.817
25399WAT      O76438   6.401   9.371   2.323
25399WAT     H176439   6.333   9.422   2.377
25399WAT     H276440   6.436   9.295   2.377
25400WAT      O76441   2.501   9.386   7.882
25400WAT     H176442   2.411   9.377   7.925
25400WAT     H276443   2.491   9.427   7.792
25401WAT      O76444   4.325   2.445   0.879
25401WAT     H176445   4.274   2.400   0.806
25401WAT     H276446   4.266   2.511   0.926
25402WAT      O76447   5.222   1.569   5.638
25402WAT     H176448   5.163   1.489   5.628
25402WAT     H276449   5.254   1.598   5.548
25403WAT      O76450   3.187   2.197   1.754
25403WAT     H176451   3.132   2.261   1.809
25403WAT     H276452   3.283   2.226   1.755
25404WAT      O76453   1.416   0.705   4.551
25404WAT     H176454   1.480   0.727   4.478
25404WAT     H276455   1.357   0.784   4.568
25405WAT      O76456   6.560   0.974   0.649
25405WAT     H176457   6.608   0.945   0.566
25405WAT     H276458   6.525   0.893   0.697
25406WAT      O76459   5.260   7.939   6.844
25406WAT     H176460   5.239   8.024   6.892
25406WAT     H276461   5.214   7.938   6.755
25407WAT      O76462   9.687   0.535   4.314
25407WAT     H176463   9.663   0.553   4.410
25407WAT     H276464   9.742   0.609   4.278
25408WAT      O76465   9.395   8.310   2.776
25408WAT     H176466   9.318   8.312   2.712
25408WAT     H276467   9.401   8.220   2.819
25409WAT      O76468   9.472   3.480   5.328
25409WAT     H176469   9.466   3.526   5.417
25409WAT     H276470   9.528   3.398   5.336
25410WAT      O76471   2.669   4.480   4.937
25410WAT     H176472   2.652   4.514   4.844
25410WAT     H276473   2.718   4.392   4.931
25411WAT      O76474   1.845   8.001   1.799
25411WAT     H176475   1.767   8.063   1.789
25411WAT     H276476   1.840   7.955   1.888
25412WAT      O76477   1.958   1.083   7.753
25412WAT     H176478   2.053   1.074   7.725
25412WAT     H276479   1.909   0.998   7.733
25413WAT      O76480   6.178   1.930   6.283
25413WAT     H176481   6.198   1.847   6.335
25413WAT     H276482   6.080   1.949   6.285
25414WAT      O76483   2.061   2.738   7.906
25414WAT     H176484   2.133   2.669   7.907
25414WAT     H276485   1.982   2.705   7.957
25415WAT      O76486   6.567   7.268   3.461
25415WAT     H176487   6.639   7.284   3.393
25415WAT     H276488   6.516   7.185   3.436
25416WAT      O76489   6.462   1.332   1.949
25416WAT     H176490   6.461   1.252   1.889
25416WAT     H276491   6.386   1.393   1.925
25417WAT      O76492   6.899   3.120   9.441
25417WAT     H176493   6.955   3.200   9.461
25417WAT     H276494   6.819   3.147   9.387
25418WAT      O76495   4.423   8.526   7.138
25418WAT     H176496   4.429   8.557   7.043
25418WAT     H276497   4.506   8.475   7.162
25419WAT      O76498   0.594   5.171   8.028
25419WAT     H176499   0.660   5.184   8.102
25419WAT     H276500   0.642   5.144   7.944
25420WAT      O76501   8.478   3.188   1.063
25420WAT     H176502   8.393   3.181   1.116
25420WAT     H276503   8.503   3.285   1.053
25421WAT      O76504   4.654   2.601   2.450
25421WAT     H176505   4.727   2.666   2.433
25421WAT     H276506   4.628   2.556   2.364
25422WAT      O76507   3.882   9.397   2.804
25422WAT     H176508   3.838   9.393   2.893
25422WAT     H276509   3.925   9.309   2.784
25423WAT      O76510   0.866   5.482   0.954
25423WAT     H176511   0.859   5.383   0.964
25423WAT     H276512   0.866   5.524   1.045
25424WAT      O76513   1.113   4.636   8.631
25424WAT     H176514   1.131   4.538   8.644
25424WAT     H276515   1.084   4.652   8.537
25425WAT      O76516   8.230   5.710   7.583
25425WAT     H176517   8.307   5.768   7.554
25425WAT     H276518   8.259   5.615   7.584
25426WAT      O76519   9.878   2.031   6.644
25426WAT     H176520   9.880   2.058   6.547
25426WAT     H276521   9.971   2.015   6.676
25427WAT      O76522   2.249   0.305   6.154
25427WAT     H176523   2.225   0.295   6.251
25427WAT     H276524   2.348   0.294   6.143
25428WAT      O76525   5.461   0.833   8.392
25428WAT     H176526   5.385   0.769   8.381
25428WAT     H276527   5.538   0.786   8.436
25429WAT      O76528   1.875   7.489   8.326
25429WAT     H176529   1.828   7.529   8.248
25429WAT     H276530   1.811   7.430   8.377
25430WAT      O76531   9.878   2.191   0.554
25430WAT     H176532   9.924   2.184   0.465
25430WAT     H276533   9.936   2.243   0.616
25431WAT      O76534   1.381   2.431   7.073
25431WAT     H176535   1.326   2.479   7.005
25431WAT     H276536   1.467   2.481   7.087
25432WAT      O76537   2.856   1.196   4.383
25432WAT     H176538   2.873   1.116   4.325
25432WAT     H276539   2.764   1.190   4.421
25433WAT      O76540   9.864   4.084   8.024
25433WAT     H176541   9.772   4.112   8.052
25433WAT     H276542   9.929   4.107   8.096
25434WAT      O76543   0.519   4.136   6.843
25434WAT     H176544   0.557   4.052   6.880
25434WAT     H276545   0.578   4.213   6.868
25435WAT      O76546   8.271   5.856   9.808
25435WAT     H176547   8.209   5.929   9.781
25435WAT     H276548   8.345   5.849   9.741
25436WAT      O76549   3.862   9.328   3.366
25436WAT     H176550   3.787   9.324   3.432
25436WAT     H276551   3.949   9.313   3.413
25437WAT      O76552   4.300   6.508   9.216
25437WAT     H176553   4.265   6.431   9.162
25437WAT     H276554   4.241   6.523   9.295
25438WAT      O76555   0.214   5.025   2.171
25438WAT     H176556   0.280   4.953   2.194
25438WAT     H276557   0.142   4.987   2.113
25439WAT      O76558   2.379   2.349   0.469
25439WAT     H176559   2.421   2.273   0.520
25439WAT     H276560   2.280   2.346   0.481
25440WAT      O76561   5.127   1.061   2.512
25440WAT     H176562   5.074   1.063   2.427
25440WAT     H276563   5.196   0.989   2.506
25441WAT      O76564   0.817   6.942   5.916
25441WAT     H176565   0.737   6.991   5.949
25441WAT     H276566   0.877   7.006   5.867
25442WAT      O76567   2.761   9.832   7.700
25442WAT     H176568   2.824   9.832   7.622
25442WAT     H276569   2.812   9.817   7.785
25443WAT      O76570   1.027   4.958   0.832
25443WAT     H176571   1.073   4.936   0.918
25443WAT     H276572   1.085   4.930   0.755
25444WAT      O76573   5.916   4.482   3.598
25444WAT     H176574   5.919   4.575   3.636
25444WAT     H276575   5.877   4.420   3.665
25445WAT      O76576   0.673   1.312   7.646
25445WAT     H176577   0.745   1.343   7.707
25445WAT     H276578   0.646   1.219   7.670
25446WAT      O76579   7.029   3.813   9.186
25446WAT     H176580   7.056   3.786   9.278
25446WAT     H276581   7.110   3.841   9.134
25447WAT      O76582   9.808   6.001   0.968
25447WAT     H176583   9.722   6.000   1.018
25447WAT     H276584   9.847   6.094   0.971
25448WAT      O76585   1.516   1.799   6.136
25448WAT     H176586   1.519   1.894   6.107
25448WAT     H276587   1.460   1.746   6.072
25449WAT      O76588   2.333   4.095   8.465
25449WAT     H176589   2.323   4.040   8.381
25449WAT     H276590   2.382   4.042   8.534
25450WAT      O76591   8.956   7.733   7.365
25450WAT     H176592   8.995   7.742   7.456
25450WAT     H276593   8.857   7.719   7.373
25451WAT      O76594   6.175   9.043   3.544
25451WAT     H176595   6.167   9.004   3.636
25451WAT     H276596   6.267   9.080   3.531
25452WAT      O76597   1.314   2.102   4.979
25452WAT     H176598   1.221   2.107   5.016
25452WAT     H276599   1.328   2.175   4.913
25453WAT      O76600   7.300   2.134   1.443
25453WAT     H176601   7.342   2.090   1.522
25453WAT     H276602   7.257   2.064   1.385
25454WAT      O76603   5.022   4.826   2.185
25454WAT     H176604   4.968   4.786   2.259
25454WAT     H276605   5.062   4.912   2.216
25455WAT      O76606   2.254   6.439   2.369
25455WAT     H176607   2.172   6.496   2.363
25455WAT     H276608   2.232   6.354   2.418
25456WAT      O76609   9.186   9.689   1.697
25456WAT     H176610   9.230   9.772   1.731
25456WAT     H276611   9.133   9.711   1.615
25457WAT      O76612   4.670   3.210   0.300
25457WAT     H176613   4.750   3.260   0.268
25457WAT     H276614   4.685   3.176   0.393
25458WAT      O76615   0.861   1.071   4.276
25458WAT     H176616   0.803   1.048   4.199
25458WAT     H276617   0.893   1.165   4.267
25459WAT      O76618   2.208   2.386   5.801
25459WAT     H176619   2.181   2.352   5.711
25459WAT     H276620   2.266   2.318   5.846
25460WAT      O76621   6.491   5.683   5.084
25460WAT     H176622   6.471   5.656   5.178
25460WAT     H276623   6.534   5.773   5.084
25461WAT      O76624   0.617   7.174   6.743
25461WAT     H176625   0.682   7.203   6.814
25461WAT     H276626   0.554   7.107   6.782
25462WAT      O76627   4.470   4.155   2.272
25462WAT     H176628   4.546   4.163   2.336
25462WAT     H276629   4.504   4.163   2.178
25463WAT      O76630   7.112   0.631   9.099
25463WAT     H176631   7.116   0.687   9.182
25463WAT     H276632   7.116   0.534   9.124
25464WAT      O76633   3.988   3.202   4.958
25464WAT     H176634   3.927   3.226   5.033
25464WAT     H276635   4.045   3.281   4.934
25465WAT      O76636   9.351   5.657   7.396
25465WAT     H176637   9.302   5.578   7.359
25465WAT     H276638   9.368   5.642   7.494
25466WAT      O76639   9.093   2.509   8.173
25466WAT     H176640   9.184   2.549   8.176
25466WAT     H276641   9.076   2.470   8.083
25467WAT      O76642   7.041   0.039   8.216
25467WAT     H176643   7.066   0.104   8.289
25467WAT     H276644   6.989   0.087   8.146
25468WAT      O76645   1.613   7.892   2.281
25468WAT     H176646   1.517   7.902   2.307
25468WAT     H276647   1.664   7.851   2.357
25469WAT      O76648   8.699   4.707   0.382
25469WAT     H176649   8.625   4.672   0.324
25469WAT     H276650   8.776   4.733   0.325
25470WAT      O76651   7.711   7.574   8.037
25470WAT     H176652   7.695   7.673   8.036
25470WAT     H276653   7.629   7.527   8.003
25471WAT      O76654   4.285   0.250   3.619
25471WAT     H176655   4.224   0.194   3.675
25471WAT     H276656   4.367   0.273   3.672
25472WAT      O76657   3.527   0.640   1.778
25472WAT     H176658   3.469   0.721   1.770
25472WAT     H276659   3.623   0.666   1.769
25473WAT      O76660   8.688   6.254   7.089
25473WAT     H176661   8.662   6.225   6.996
25473WAT     H276662   8.740   6.339   7.083
25474WAT      O76663   1.352   8.384   8.186
25474WAT     H176664   1.329   8.422   8.097
25474WAT     H276665   1.279   8.406   8.252
25475WAT      O76666   1.391   4.046   0.332
25475WAT     H176667   1.327   4.015   0.403
25475WAT     H276668   1.342   4.105   0.267
25476WAT      O76669   2.933   7.650   7.367
25476WAT     H176670   2.989   7.671   7.287
25476WAT     H276671   2.989   7.602   7.434
25477WAT      O76672   2.717   6.505   1.612
25477WAT     H176673   2.748   6.575   1.677
25477WAT     H276674   2.631   6.466   1.644
25478WAT      O76675   3.976   4.976   1.202
25478WAT     H176676   3.960   5.070   1.232
25478WAT     H276677   4.021   4.976   1.113
25479WAT      O76678   3.187   2.002   1.195
25479WAT     H176679   3.155   2.095   1.211
25479WAT     H276680   3.117   1.952   1.143
25480WAT      O76681   5.582   8.573   5.008
25480WAT     H176682   5.553   8.583   4.913
25480WAT     H276683   5.638   8.651   5.034
25481WAT      O76684   7.352   3.780   1.112
25481WAT     H176685   7.321   3.705   1.054
25481WAT     H276686   7.436   3.754   1.159
25482WAT      O76687   4.250   7.558   3.987
25482WAT     H176688   4.182   7.514   3.929
25482WAT     H276689   4.216   7.646   4.019
25483WAT      O76690   7.321   2.580   1.782
25483WAT     H176691   7.317   2.521   1.702
25483WAT     H276692   7.413   2.579   1.820
25484WAT      O76693   3.528   9.822   7.792
25484WAT     H176694   3.546   9.897   7.855
25484WAT     H276695   3.448   9.771   7.823
25485WAT      O76696   5.434   9.559   0.855
25485WAT     H176697   5.356   9.562   0.916
25485WAT     H276698   5.428   9.632   0.787
25486WAT      O76699   7.080   4.096   0.189
25486WAT     H176700   7.113   4.186   0.220
25486WAT     H276701   6.982   4.101   0.174
25487WAT      O76702   7.208   0.125   6.280
25487WAT     H176703   7.171   0.159   6.194
25487WAT     H276704   7.133   0.105   6.343
25488WAT      O76705   7.533   4.752   2.313
25488WAT     H176706   7.571   4.681   2.374
25488WAT     H276707   7.590   4.834   2.318
25489WAT      O76708   8.543   5.483   5.508
25489WAT     H176709   8.626   5.428   5.516
25489WAT     H276710   8.556   5.569   5.557
25490WAT      O76711   4.268   9.328   7.657
25490WAT     H176712   4.177   9.304   7.692
25490WAT     H276713   4.260   9.407   7.596
25491WAT      O76714   4.124   4.441   4.574
25491WAT     H176715   4.217   4.477   4.567
25491WAT     H276716   4.122   4.365   4.639
25492WAT      O76717   6.314   8.099   0.010
25492WAT     H176718   6.260   8.181   0.031
25492WAT     H276719   6.255   8.020   0.003
25493WAT      O76720   2.960   9.762   6.570
25493WAT     H176721   3.043   9.755   6.514
25493WAT     H276722   2.934   9.670   6.600
25494WAT      O76723   7.951   2.287   9.778
25494WAT     H176724   7.896   2.302   9.860
25494WAT     H276725   8.036   2.338   9.785
25495WAT      O76726   1.334   9.711   3.656
25495WAT     H176727   1.330   9.684   3.752
25495WAT     H276728   1.420   9.681   3.616
25496WAT      O76729   2.467   7.996   4.216
25496WAT     H176730   2.490   7.944   4.298
25496WAT     H276731   2.471   7.936   4.136
25497WAT      O76732   7.887   7.387   8.104
25497WAT     H176733   7.812   7.448   8.078
25497WAT     H276734   7.930   7.421   8.188
25498WAT      O76735   8.307   7.573   3.530
25498WAT     H176736   8.386   7.573   3.469
25498WAT     H276737   8.224   7.553   3.476
25499WAT      O76738   9.609   1.255   9.687
25499WAT     H176739   9.640   1.258   9.592
25499WAT     H276740   9.657   1.326   9.740
25500WAT      O76741   6.398   9.736   5.032
25500WAT     H176742   6.356   9.825   5.016
25500WAT     H276743   6.412   9.723   5.131
25501WAT      O76744   4.360   0.977   1.557
25501WAT     H176745   4.372   1.009   1.463
25501WAT     H276746   4.426   1.022   1.617
25502WAT      O76747   5.320   5.832   1.736
25502WAT     H176748   5.392   5.844   1.668
25502WAT     H276749   5.327   5.740   1.776
25503WAT      O76750   8.895   6.975   4.285
25503WAT     H176751   8.951   6.980   4.368
25503WAT     H276752   8.942   7.022   4.210
25504WAT      O76753   6.313   1.070   9.617
25504WAT     H176754   6.224   1.025   9.610
25504WAT     H276755   6.340   1.105   9.527
25505WAT      O76756   4.055   3.021   4.736
25505WAT     H176757   3.962   3.012   4.702
25505WAT     H276758   4.055   3.068   4.824
25506WAT      O76759   9.693   9.490   8.020
25506WAT     H176760   9.738   9.565   8.068
25506WAT     H276761   9.704   9.501   7.922
25507WAT      O76762   6.220   0.569   4.109
25507WAT     H176763   6.305   0.519   4.128
25507WAT     H276764   6.242   0.650   4.054
25508WAT      O76765   8.265   2.928   7.466
25508WAT     H176766   8.342   2.890   7.414
25508WAT     H276767   8.181   2.880   7.441
25509WAT      O76768   9.627   1.438   5.564
25509WAT     H176769   9.577   1.513   5.608
25509WAT     H276770   9.724   1.462   5.559
25510WAT      O76771   9.313   2.542   3.821
25510WAT     H176772   9.225   2.549   3.867
25510WAT     H276773   9.326   2.448   3.788
25511WAT      O76774   2.054   1.253   5.998
25511WAT     H176775   2.117   1.321   6.036
25511WAT     H276776   1.993   1.297   5.932
25512WAT      O76777   0.626   3.254   5.223
25512WAT     H176778   0.718   3.216   5.209
25512WAT     H276779   0.558   3.193   5.183
25513WAT      O76780   8.187   3.769   2.452
25513WAT     H176781   8.171   3.833   2.528
25513WAT     H276782   8.188   3.676   2.487
25514WAT      O76783   9.672   3.091   5.588
25514WAT     H176784   9.641   3.018   5.649
25514WAT     H276785   9.739   3.148   5.635
25515WAT      O76786   1.280   7.708   3.423
25515WAT     H176787   1.280   7.769   3.502
25515WAT     H276788   1.343   7.633   3.439
25516WAT      O76789   6.831   2.258   2.371
25516WAT     H176790   6.897   2.191   2.338
25516WAT     H276791   6.741   2.214   2.381
25517WAT      O76792   4.859   2.055   2.789
25517WAT     H176793   4.899   2.033   2.878
25517WAT     H276794   4.820   2.147   2.792
25518WAT      O76795   1.797   2.126   1.376
25518WAT     H176796   1.713   2.084   1.408
25518WAT     H276797   1.778   2.220   1.346
25519WAT      O76798   0.668   3.963   5.038
25519WAT     H176799   0.608   3.952   4.958
25519WAT     H276800   0.744   4.024   5.015
25520WAT      O76801   5.314   6.376   7.936
25520WAT     H176802   5.293   6.453   7.876
25520WAT     H276803   5.242   6.367   8.005
25521WAT      O76804   1.803   4.490   2.586
25521WAT     H176805   1.849   4.512   2.672
25521WAT     H276806   1.710   4.459   2.605
25522WAT      O76807   6.650   9.691   7.794
25522WAT     H176808   6.698   9.744   7.724
25522WAT     H276809   6.662   9.735   7.883
25523WAT      O76810   9.165   5.935   2.925
25523WAT     H176811   9.105   5.885   2.863
25523WAT     H276812   9.132   6.029   2.934
25524WAT      O76813   8.866   0.675   6.027
25524WAT     H176814   8.828   0.647   5.939
25524WAT     H276815   8.798   0.660   6.099
25525WAT      O76816   2.759   8.544   2.893
25525WAT     H176817   2.743   8.590   2.805
25525WAT     H276818   2.678   8.556   2.951
25526WAT      O76819   3.058   2.644   9.613
25526WAT     H176820   2.980   2.704   9.628
25526WAT     H276821   3.100   2.667   9.525
25527WAT      O76822   0.052   1.318   8.709
25527WAT     H176823  -0.000   1.398   8.737
25527WAT     H276824   0.072   1.261   8.789
25528WAT      O76825   4.740   2.001   1.136
25528WAT     H176826   4.692   2.004   1.048
25528WAT     H276827   4.773   2.093   1.159
25529WAT      O76828   1.089   7.916   2.525
25529WAT     H176829   1.035   7.898   2.443
25529WAT     H276830   1.100   7.831   2.577
25530WAT      O76831   5.938   3.169   1.917
25530WAT     H176832   5.959   3.159   1.820
25530WAT     H276833   5.864   3.235   1.928
25531WAT      O76834   6.843   8.876   7.593
25531WAT     H176835   6.823   8.973   7.583
25531WAT     H276836   6.933   8.864   7.635
25532WAT      O76837   7.265   3.170   4.707
25532WAT     H176838   7.276   3.264   4.741
25532WAT     H276839   7.276   3.106   4.782
25533WAT      O76840   1.044   5.890   6.391
25533WAT     H176841   1.028   5.930   6.481
25533WAT     H276842   1.069   5.962   6.326
25534WAT      O76843   6.424   2.707   6.655
25534WAT     H176844   6.514   2.665   6.660
25534WAT     H276845   6.400   2.724   6.559
25535WAT      O76846   9.429   6.091   3.144
25535WAT     H176847   9.459   6.019   3.207
25535WAT     H276848   9.427   6.056   3.051
25536WAT      O76849   5.427   0.509   3.595
25536WAT     H176850   5.399   0.603   3.611
25536WAT     H276851   5.406   0.482   3.501
25537WAT      O76852   4.116   9.637   7.576
25537WAT     H176853   4.020   9.653   7.555
25537WAT     H276854   4.171   9.643   7.492
25538WAT      O76855   6.275   8.620   7.105
25538WAT     H176856   6.268   8.576   7.195
25538WAT     H276857   6.226   8.566   7.037
25539WAT      O76858   6.174   4.018   0.800
25539WAT     H176859   6.261   4.009   0.849
25539WAT     H276860   6.192   4.043   0.705
25540WAT      O76861   9.180   4.064   7.462
25540WAT     H176862   9.206   3.979   7.415
25540WAT     H276863   9.085   4.056   7.494
25541WAT      O76864   9.588   0.013   8.652
25541WAT     H176865   9.590   0.103   8.608
25541WAT     H276866   9.516   0.012   8.722
25542WAT      O76867   7.425   4.914   4.224
25542WAT     H176868   7.386   4.824   4.243
25542WAT     H276869   7.522   4.905   4.202
25543WAT      O76870   8.971   3.358   8.024
25543WAT     H176871   8.880   3.374   8.061
25543WAT     H276872   9.013   3.446   8.001
25544WAT      O76873   6.351   6.346   4.397
25544WAT     H176874   6.294   6.428   4.409
25544WAT     H276875   6.328   6.279   4.467
25545WAT      O76876   7.126   0.011   2.724
25545WAT     H176877   7.162   0.018   2.631
25545WAT     H276878   7.189  -0.041   2.781
25546WAT      O76879   1.382   0.241   0.803
25546WAT     H176880   1.466   0.193   0.778
25546WAT     H276881   1.342   0.283   0.721
25547WAT      O76882   0.953   0.253   4.220
25547WAT     H176883   0.919   0.306   4.297
25547WAT     H276884   0.880   0.194   4.185
25548WAT      O76885   5.677   5.774   4.005
25548WAT     H176886   5.714   5.859   4.044
25548WAT     H276887   5.580   5.788   3.983
25549WAT      O76888   9.027   9.197   4.896
25549WAT     H176889   9.004   9.127   4.963
25549WAT     H276890   9.092   9.262   4.937
25550WAT      O76891   4.915   3.937   9.506
25550WAT     H176892   5.008   3.948   9.542
25550WAT     H276893   4.856   4.008   9.544
25551WAT      O76894   1.606   2.638   1.752
25551WAT     H176895   1.593   2.636   1.653
25551WAT     H276896   1.667   2.563   1.779
25552WAT      O76897   9.476   7.464   4.617
25552WAT     H176898   9.494   7.366   4.629
25552WAT     H276899   9.545   7.517   4.666
25553WAT      O76900   7.401   8.747   3.619
25553WAT     H176901   7.424   8.822   3.556
25553WAT     H276902   7.302   8.738   3.625
25554WAT      O76903   3.143   9.616   9.130
25554WAT     H176904   3.195   9.591   9.049
25554WAT     H276905   3.206   9.634   9.206
25555WAT      O76906   7.664   8.853   2.662
25555WAT     H176907   7.727   8.858   2.585
25555WAT     H276908   7.716   8.857   2.747
25556WAT      O76909   4.130   1.534   6.754
25556WAT     H176910   4.092   1.626   6.757
25556WAT     H276911   4.193   1.521   6.830
25557WAT      O76912   0.633   6.059   6.700
25557WAT     H176913   0.651   5.968   6.737
25557WAT     H276914   0.603   6.051   6.605
25558WAT      O76915   6.568   4.172   4.194
25558WAT     H176916   6.486   4.169   4.137
25558WAT     H276917   6.543   4.193   4.288
25559WAT      O76918   8.427   0.940   4.015
25559WAT     H176919   8.522   0.956   3.989
25559WAT     H276920   8.392   0.860   3.965
25560WAT      O76921   1.516   1.288   1.714
25560WAT     H176922   1.555   1.368   1.668
25560WAT     H276923   1.572   1.265   1.795
25561WAT      O76924   9.783   5.505   5.440
25561WAT     H176925   9.776   5.411   5.474
25561WAT     H276926   9.874   5.520   5.403
25562WAT      O76927   9.328   0.161   7.667
25562WAT     H176928   9.257   0.179   7.735
25562WAT     H276929   9.303   0.081   7.613
25563WAT      O76930   0.537   3.494   2.975
25563WAT     H176931   0.630   3.524   2.953
25563WAT     H276932   0.482   3.573   3.002
25564WAT      O76933   1.207   9.472   0.796
25564WAT     H176934   1.164   9.424   0.720
25564WAT     H276935   1.138   9.526   0.845
25565WAT      O76936   8.452   7.764   8.373
25565WAT     H176937   8.434   7.862   8.387
25565WAT     H276938   8.507   7.730   8.449
25566WAT      O76939   8.353   0.317   7.233
25566WAT     H176940   8.287   0.263   7.180
25566WAT     H276941   8.414   0.256   7.283
25567WAT      O76942   7.928   4.044   1.693
25567WAT     H176943   7.957   4.130   1.652
25567WAT     H276944   8.001   4.008   1.751
25568WAT      O76945   2.269   2.856   1.688
25568WAT     H176946   2.269   2.898   1.779
25568WAT     H276947   2.191   2.793   1.681
25569WAT      O76948   3.582   3.363   0.802
25569WAT     H176949   3.603   3.291   0.736
25569WAT     H276950   3.664   3.388   0.852
25570WAT      O76951   7.497   0.126   1.239
25570WAT     H176952   7.563   0.051   1.232
25570WAT     H276953   7.525   0.188   1.312
25571WAT      O76954   1.656   4.394   9.152
25571WAT     H176955   1.740   4.359   9.192
25571WAT     H276956   1.577   4.357   9.202
25572WAT      O76957   7.596   3.357   9.274
25572WAT     H176958   7.612   3.447   9.315
25572WAT     H276959   7.684   3.312   9.256
25573WAT      O76960   3.261   7.578   4.034
25573WAT     H176961   3.312   7.520   3.971
25573WAT     H276962   3.166   7.583   4.005
25574WAT      O76963   8.454   3.477   2.386
25574WAT     H176964   8.549   3.448   2.398
25574WAT     H276965   8.450   3.550   2.318
25575WAT      O76966   5.621   8.812   5.592
25575WAT     H176967   5.560   8.853   5.660
25575WAT     H276968   5.594   8.717   5.577
25576WAT      O76969   5.010   5.722   8.111
25576WAT     H176970   5.034   5.818   8.121
25576WAT     H276971   4.922   5.714   8.064
25577WAT      O76972   1.032   2.362   7.688
25577WAT     H176973   1.118   2.375   7.640
25577WAT     H276974   1.037   2.407   7.778
25578WAT      O76975   1.668   4.817   4.297
25578WAT     H176976   1.695   4.836   4.203
25578WAT     H276977   1.581   4.863   4.316
25579WAT      O76978   8.660   4.867   4.166
25579WAT     H176979   8.611   4.796   4.114
25579WAT     H276980   8.667   4.840   4.262
25580WAT      O76981   5.644   3.577   1.411
25580WAT     H176982   5.570   3.558   1.476
25580WAT     H276983   5.644   3.507   1.340
25581WAT      O76984   6.677   6.225   4.627
25581WAT     H176985   6.637   6.155   4.569
25581WAT     H276986   6.684   6.190   4.721
25582WAT      O76987   9.798   7.023   6.909
25582WAT     H176988   9.815   6.988   6.817
25582WAT     H276989   9.759   7.115   6.903
25583WAT      O76990   3.012   6.434   6.171
25583WAT     H176991   3.074   6.397   6.102
25583WAT     H276992   3.058   6.435   6.260
25584WAT      O76993   3.906   3.948   6.948
25584WAT     H176994   3.987   3.955   7.007
25584WAT     H276995   3.928   3.982   6.857
25585WAT      O76996   8.279   4.804   8.140
25585WAT     H176997   8.208   4.868   8.170
25585WAT     H276998   8.240   4.712   8.135
25586WAT      O76999   0.063   7.706   1.840
25586WAT     H177000   0.033   7.737   1.930
25586WAT     H277001   0.099   7.613   1.847
25587WAT      O77002   9.654   3.226   8.987
25587WAT     H177003   9.676   3.265   8.897
25587WAT     H277004   9.560   3.194   8.988
25588WAT      O77005   5.952   0.197   7.979
25588WAT     H177006   5.894   0.159   8.051
25588WAT     H277007   6.039   0.148   7.978
25589WAT      O77008   8.457   5.451   6.172
25589WAT     H177009   8.545   5.495   6.189
25589WAT     H277010   8.471   5.353   6.155
25590WAT      O77011   5.096   4.131   6.856
25590WAT     H177012   5.062   4.085   6.774
25590WAT     H277013   5.178   4.183   6.834
25591WAT      O77014   4.714   1.084   6.669
25591WAT     H177015   4.788   1.123   6.615
25591WAT     H277016   4.753   1.031   6.745
25592WAT      O77017   7.922   0.208   3.567
25592WAT     H177018   7.889   0.178   3.477
25592WAT     H277019   7.887   0.146   3.637
25593WAT      O77020   0.817   6.022   0.317
25593WAT     H177021   0.803   6.072   0.232
25593WAT     H277022   0.859   5.934   0.298
25594WAT      O77023   4.120   8.336   0.870
25594WAT     H177024   4.057   8.409   0.896
25594WAT     H277025   4.192   8.374   0.811
25595WAT      O77026   7.805   8.958   3.182
25595WAT     H177027   7.861   8.891   3.231
25595WAT     H277028   7.805   9.044   3.233
25596WAT      O77029   6.067   9.386   0.061
25596WAT     H177030   6.036   9.302   0.104
25596WAT     H277031   6.136   9.365  -0.008
25597WAT      O77032   1.187   8.333   4.642
25597WAT     H177033   1.286   8.331   4.630
25597WAT     H277034   1.146   8.385   4.567
25598WAT      O77035   0.449   0.517   2.989
25598WAT     H177036   0.428   0.489   2.895
25598WAT     H277037   0.405   0.454   3.053
25599WAT      O77038   2.457   2.994   5.512
25599WAT     H177039   2.415   2.950   5.591
25599WAT     H277040   2.398   2.983   5.432
25600WAT      O77041   7.849   7.816   2.054
25600WAT     H177042   7.920   7.849   1.993
25600WAT     H277043   7.850   7.716   2.056
25601WAT      O77044   5.578   6.286   2.394
25601WAT     H177045   5.612   6.240   2.476
25601WAT     H277046   5.488   6.325   2.412
25602WAT      O77047   3.550   4.430   9.551
25602WAT     H177048   3.598   4.343   9.553
25602WAT     H277049   3.514   4.451   9.642
25603WAT      O77050   3.450   9.051   4.148
25603WAT     H177051   3.517   9.104   4.095
25603WAT     H277052   3.359   9.087   4.130
25604WAT      O77053   5.564   1.571   9.232
25604WAT     H177054   5.504   1.599   9.157
25604WAT     H277055   5.579   1.650   9.292
25605WAT      O77056   3.195   2.235   3.803
25605WAT     H177057   3.284   2.206   3.840
25605WAT     H277058   3.206   2.322   3.756
25606WAT      O77059   4.325   0.224   2.173
25606WAT     H177060   4.380   0.287   2.119
25606WAT     H277061   4.378   0.193   2.253
25607WAT      O77062   0.121   7.248   4.433
25607WAT     H177063   0.183   7.171   4.423
25607WAT     H277064   0.054   7.228   4.505
25608WAT      O77065   3.306   9.805   4.548
25608WAT     H177066   3.336   9.716   4.514
25608WAT     H277067   3.224   9.833   4.499
25609WAT      O77068   3.057   4.733   3.679
25609WAT     H177069   3.153   4.754   3.661
25609WAT     H277070   2.999   4.786   3.617
25610WAT      O77071   5.517   4.768   0.410
25610WAT     H177072   5.481   4.826   0.483
25610WAT     H277073   5.452   4.767   0.334
25611WAT      O77074   2.973   5.900   3.647
25611WAT     H177075   2.947   5.834   3.717
25611WAT     H277076   2.933   5.990   3.669
25612WAT      O77077   1.651   0.355   6.387
25612WAT     H177078   1.723   0.403   6.336
25612WAT     H277079   1.581   0.323   6.323
25613WAT      O77080   5.543   8.636   0.102
25613WAT     H177081   5.581   8.590   0.182
25613WAT     H277082   5.582   8.597   0.019
25614WAT      O77083   3.385   9.210   1.747
25614WAT     H177084   3.364   9.307   1.734
25614WAT     H277085   3.463   9.185   1.690
25615WAT      O77086   4.725   8.051   4.360
25615WAT     H177087   4.805   7.992   4.367
25615WAT     H277088   4.701   8.087   4.450
25616WAT      O77089   6.748   5.063   6.238
25616WAT     H177090   6.796   5.002   6.175
25616WAT     H277091   6.729   5.014   6.323
25617WAT      O77092   7.418   5.562   5.656
25617WAT     H177093   7.390   5.512   5.738
25617WAT     H277094   7.446   5.655   5.681
25618WAT      O77095   1.339   2.446   3.719
25618WAT     H177096   1.349   2.406   3.628
25618WAT     H277097   1.426   2.485   3.748
25619WAT      O77098   9.170   1.661   7.705
25619WAT     H177099   9.238   1.588   7.708
25619WAT     H277100   9.182   1.714   7.621
25620WAT      O77101   5.145   5.667   4.424
25620WAT     H177102   5.057   5.707   4.446
25620WAT     H277103   5.191   5.636   4.507
25621WAT      O77104   4.547   9.191   9.647
25621WAT     H177105   4.525   9.172   9.551
25621WAT     H277106   4.499   9.274   9.676
25622WAT      O77107   6.550   9.608   2.105
25622WAT     H177108   6.624   9.612   2.172
25622WAT     H277109   6.567   9.533   2.041
25623WAT      O77110   0.016   4.435   0.125
25623WAT     H177111  -0.067   4.466   0.078
25623WAT     H277112  -0.009   4.375   0.200
25624WAT      O77113   5.309   2.039   4.246
25624WAT     H177114   5.230   2.046   4.185
25624WAT     H277115   5.297   2.102   4.324
25625WAT      O77116   2.859   1.655   5.295
25625WAT     H177117   2.917   1.636   5.375
25625WAT     H277118   2.770   1.612   5.308
25626WAT      O77119   3.404   5.340   6.730
25626WAT     H177120   3.457   5.272   6.679
25626WAT     H277121   3.358   5.401   6.666
25627WAT      O77122   2.756   6.492   7.205
25627WAT     H177123   2.761   6.554   7.127
25627WAT     H277124   2.830   6.424   7.199
25628WAT      O77125   8.147   1.827   4.554
25628WAT     H177126   8.225   1.890   4.559
25628WAT     H277127   8.112   1.810   4.646
25629WAT      O77128   8.272   5.304   9.135
25629WAT     H177129   8.309   5.211   9.137
25629WAT     H277130   8.272   5.342   9.227
25630WAT      O77131   8.599   2.358   4.243
25630WAT     H177132   8.501   2.367   4.223
25630WAT     H277133   8.650   2.427   4.191
25631WAT      O77134   9.159   1.713   7.975
25631WAT     H177135   9.135   1.695   7.880
25631WAT     H277136   9.081   1.755   8.021
25632WAT      O77137   9.869   7.116   1.616
25632WAT     H177138   9.906   7.024   1.602
25632WAT     H277139   9.772   7.116   1.593
25633WAT      O77140   1.657   6.957   2.562
25633WAT     H177141   1.611   6.972   2.475
25633WAT     H277142   1.710   7.038   2.586
25634WAT      O77143   7.151   3.099   7.831
25634WAT     H177144   7.135   3.011   7.877
25634WAT     H277145   7.249   3.109   7.811
25635WAT      O77146   7.109   5.998   4.006
25635WAT     H177147   7.102   6.073   4.072
25635WAT     H277148   7.205   5.977   3.989
25636WAT      O77149   0.995   3.889   7.907
25636WAT     H177150   0.946   3.909   7.992
25636WAT     H277151   0.948   3.815   7.858
25637WAT      O77152   3.279   0.742   5.356
25637WAT     H177153   3.220   0.772   5.280
25637WAT     H277154   3.223   0.726   5.437
25638WAT      O77155   2.494   5.616   9.134
25638WAT     H177156   2.401   5.634   9.101
25638WAT     H277157   2.557   5.684   9.096
25639WAT      O77158   8.998   1.852   0.918
25639WAT     H177159   8.921   1.906   0.950
25639WAT     H277160   8.965   1.770   0.871
25640WAT      O77161   2.476   3.552   1.821
25640WAT     H177162   2.464   3.631   1.880
25640WAT     H277163   2.413   3.558   1.743
25641WAT      O77164   6.338   2.996   1.372
25641WAT     H177165   6.321   2.949   1.285
25641WAT     H277166   6.423   3.047   1.366
25642WAT      O77167   9.875   5.809   4.295
25642WAT     H177168   9.864   5.732   4.232
25642WAT     H277169   9.797   5.870   4.286
25643WAT      O77170   8.357   9.526   1.827
25643WAT     H177171   8.420   9.505   1.752
25643WAT     H277172   8.391   9.607   1.877
25644WAT      O77173   3.463   4.738   7.262
25644WAT     H177174   3.440   4.830   7.293
25644WAT     H277175   3.560   4.720   7.279
25645WAT      O77176   5.730   6.539   9.191
25645WAT     H177177   5.738   6.630   9.152
25645WAT     H277178   5.732   6.545   9.291
25646WAT      O77179   4.697   9.636   7.572
25646WAT     H177180   4.614   9.650   7.518
25646WAT     H277181   4.735   9.546   7.551
25647WAT      O77182   9.363   1.341   9.290
25647WAT     H177183   9.332   1.276   9.221
25647WAT     H277184   9.461   1.357   9.281
25648WAT      O77185   2.590   7.942   2.591
25648WAT     H177186   2.510   7.910   2.539
25648WAT     H277187   2.559   7.997   2.669
25649WAT      O77188   4.670   2.903   2.829
25649WAT     H177189   4.654   2.812   2.792
25649WAT     H277190   4.737   2.897   2.903
25650WAT      O77191   0.555   4.597   1.713
25650WAT     H177192   0.648   4.634   1.709
25650WAT     H277193   0.497   4.656   1.768
25651WAT      O77194   6.963   2.049   1.033
25651WAT     H177195   6.916   1.977   1.083
25651WAT     H277196   6.895   2.112   0.994
25652WAT      O77197   6.038   7.676   6.575
25652WAT     H177198   6.071   7.583   6.588
25652WAT     H277199   6.070   7.711   6.487
25653WAT      O77200   8.032   1.408   3.671
25653WAT     H177201   8.095   1.478   3.636
25653WAT     H277202   8.069   1.317   3.650
25654WAT      O77203   8.291   2.498   0.187
25654WAT     H177204   8.208   2.475   0.239
25654WAT     H277205   8.355   2.422   0.192
25655WAT      O77206   4.296   4.979   0.530
25655WAT     H177207   4.351   4.921   0.470
25655WAT     H277208   4.199   4.955   0.520
25656WAT      O77209   9.080   3.029   1.782
25656WAT     H177210   9.053   3.083   1.703
25656WAT     H277211   9.123   3.088   1.850
25657WAT      O77212   4.420   2.782   2.573
25657WAT     H177213   4.518   2.800   2.587
25657WAT     H277214   4.409   2.692   2.531
25658WAT      O77215   6.300   3.836   1.120
25658WAT     H177216   6.358   3.798   1.192
25658WAT     H277217   6.355   3.852   1.038
25659WAT      O77218   9.422   7.104   8.571
25659WAT     H177219   9.366   7.147   8.641
25659WAT     H277220   9.433   7.166   8.494
25660WAT      O77221   0.691   5.883   3.684
25660WAT     H177222   0.664   5.787   3.679
25660WAT     H277223   0.729   5.911   3.595
25661WAT      O77224   7.088   4.795   7.392
25661WAT     H177225   7.000   4.791   7.438
25661WAT     H277226   7.079   4.760   7.299
25662WAT      O77227   6.147   3.013   6.755
25662WAT     H177228   6.115   2.975   6.841
25662WAT     H277229   6.096   2.973   6.679
25663WAT      O77230   4.347   1.161   9.763
25663WAT     H177231   4.331   1.091   9.694
25663WAT     H277232   4.332   1.251   9.723
25664WAT      O77233   3.685   2.578   3.228
25664WAT     H177234   3.686   2.647   3.301
25664WAT     H277235   3.592   2.570   3.191
25665WAT      O77236   9.648   4.149   2.148
25665WAT     H177237   9.556   4.174   2.179
25665WAT     H277238   9.680   4.069   2.199
25666WAT      O77239   2.442   1.739   5.388
25666WAT     H177240   2.370   1.697   5.443
25666WAT     H277241   2.401   1.804   5.324
25667WAT      O77242   9.841   8.463   8.602
25667WAT     H177243   9.860   8.425   8.511
25667WAT     H277244   9.925   8.462   8.656
25668WAT      O77245   8.066   4.711   7.750
25668WAT     H177246   8.121   4.672   7.823
25668WAT     H277247   8.099   4.678   7.661
25669WAT      O77248   5.724   0.367   8.933
25669WAT     H177249   5.741   0.461   8.961
25669WAT     H277250   5.740   0.306   9.011
25670WAT      O77251   3.085   9.326   4.496
25670WAT     H177252   3.180   9.308   4.472
25670WAT     H277253   3.081   9.385   4.577
25671WAT      O77254   9.601   3.601   8.181
25671WAT     H177255   9.575   3.691   8.146
25671WAT     H277256   9.697   3.582   8.158
25672WAT      O77257   1.589   6.836   6.787
25672WAT     H177258   1.625   6.923   6.820
25672WAT     H277259   1.664   6.772   6.772
25673WAT      O77260   9.105   5.599   1.858
25673WAT     H177261   9.087   5.680   1.802
25673WAT     H277262   9.028   5.536   1.851
25674WAT      O77263   4.349   2.254   4.302
25674WAT     H177264   4.440   2.248   4.262
25674WAT     H277265   4.314   2.347   4.292
25675WAT      O77266   0.955   2.766   1.739
25675WAT     H177267   0.893   2.786   1.814
25675WAT     H277268   1.035   2.717   1.774
25676WAT      O77269   2.578   2.039   3.245
25676WAT     H177270   2.548   2.132   3.224
25676WAT     H277271   2.615   2.036   3.338
25677WAT      O77272   2.813   8.188   0.285
25677WAT     H177273   2.730   8.232   0.252
25677WAT     H277274   2.795   8.090   0.298
25678WAT      O77275   1.293   1.549   8.180
25678WAT     H177276   1.266   1.616   8.249
25678WAT     H277277   1.355   1.482   8.221
25679WAT      O77278   5.957   1.219   7.492
25679WAT     H177279   6.031   1.277   7.459
25679WAT     H277280   5.881   1.222   7.427
25680WAT      O77281   1.702   9.047   1.779
25680WAT     H177282   1.681   9.144   1.775
25680WAT     H277283   1.633   9.000   1.834
25681WAT      O77284   7.367   0.209   9.629
25681WAT     H177285   7.282   0.193   9.680
25681WAT     H277286   7.437   0.245   9.691
25682WAT      O77287   6.855   1.876   4.002
25682WAT     H177288   6.861   1.967   4.044
25682WAT     H277289   6.882   1.883   3.906
25683WAT      O77290   1.846   9.075   5.122
25683WAT     H177291   1.780   9.116   5.186
25683WAT     H277292   1.859   8.979   5.145
25684WAT      O77293   1.887   8.243   8.700
25684WAT     H177294   1.910   8.307   8.773
25684WAT     H277295   1.953   8.168   8.700
25685WAT      O77296   3.662   8.628   6.596
25685WAT     H177297   3.570   8.668   6.603
25685WAT     H277298   3.696   8.609   6.688
25686WAT      O77299   1.673   0.094   2.218
25686WAT     H177300   1.742   0.034   2.259
25686WAT     H277301   1.641   0.054   2.132
25687WAT      O77302   6.932   3.519   1.481
25687WAT     H177303   6.965   3.568   1.400
25687WAT     H277304   6.940   3.579   1.561
25688WAT      O77305   4.118   0.083   9.024
25688WAT     H177306   4.031   0.128   9.047
25688WAT     H277307   4.159   0.045   9.107
25689WAT      O77308   5.159   3.073   7.401
25689WAT     H177309   5.165   3.022   7.487
25689WAT     H277310   5.137   3.010   7.327
25690WAT      O77311   4.130   5.409   1.468
25690WAT     H177312   4.171   5.406   1.560
25690WAT     H277313   4.035   5.438   1.475
25691WAT      O77314   2.159   8.341   4.832
25691WAT     H177315   2.080   8.340   4.893
25691WAT     H277316   2.243   8.334   4.886
25692WAT      O77317   0.669   0.035   2.303
25692WAT     H177318   0.626   0.125   2.294
25692WAT     H277319   0.637  -0.025   2.230
25693WAT      O77320   2.402   2.912   4.488
25693WAT     H177321   2.362   2.956   4.568
25693WAT     H277322   2.501   2.920   4.491
25694WAT      O77323   2.108   4.897   9.065
25694WAT     H177324   2.073   4.980   9.108
25694WAT     H277325   2.141   4.918   8.973
25695WAT      O77326   8.677   5.313   3.117
25695WAT     H177327   8.639   5.347   3.202
25695WAT     H277328   8.606   5.266   3.064
25696WAT      O77329   2.930   1.820   2.658
25696WAT     H177330   2.897   1.908   2.625
25696WAT     H277331   2.980   1.832   2.743
25697WAT      O77332   8.014   3.053   7.062
25697WAT     H177333   8.061   3.077   7.147
25697WAT     H277334   8.068   2.987   7.011
25698WAT      O77335   8.212   8.251   4.667
25698WAT     H177336   8.151   8.172   4.671
25698WAT     H277337   8.307   8.221   4.677
25699WAT      O77338   8.594   6.678   7.981
25699WAT     H177339   8.606   6.648   7.886
25699WAT     H277340   8.546   6.766   7.982
25700WAT      O77341   4.678   4.823   3.295
25700WAT     H177342   4.646   4.917   3.309
25700WAT     H277343   4.634   4.762   3.361
25701WAT      O77344   7.099   0.563   3.096
25701WAT     H177345   7.057   0.653   3.098
25701WAT     H277346   7.180   0.564   3.037
25702WAT      O77347   5.967   8.110   7.913
25702WAT     H177348   6.057   8.067   7.910
25702WAT     H277349   5.923   8.103   7.823
25703WAT      O77350   3.570   0.809   5.410
25703WAT     H177351   3.499   0.763   5.357
25703WAT     H277352   3.542   0.903   5.429
25704WAT      O77353   4.752   3.316   9.067
25704WAT     H177354   4.763   3.220   9.043
25704WAT     H277355   4.657   3.344   9.052
25705WAT      O77356   0.405   1.069   4.110
25705WAT     H177357   0.333   1.000   4.105
25705WAT     H277358   0.488   1.034   4.069
25706WAT      O77359   0.318   5.753   2.980
25706WAT     H177360   0.330   5.826   3.047
25706WAT     H277361   0.385   5.764   2.907
25707WAT      O77362   9.118   5.147   5.233
25707WAT     H177363   9.135   5.230   5.180
25707WAT     H277364   9.036   5.102   5.199
25708WAT      O77365   3.014   7.832   5.486
25708WAT     H177366   2.916   7.846   5.472
25708WAT     H277367   3.029   7.743   5.529
25709WAT      O77368   2.728   4.473   1.230
25709WAT     H177369   2.653   4.529   1.266
25709WAT     H277370   2.815   4.523   1.240
25710WAT      O77371   9.369   1.369   2.403
25710WAT     H177372   9.465   1.394   2.390
25710WAT     H277373   9.311   1.448   2.382
25711WAT      O77374   3.257   6.243   9.715
25711WAT     H177375   3.273   6.319   9.778
25711WAT     H277376   3.245   6.159   9.768
25712WAT      O77377   0.214   0.584   4.566
25712WAT     H177378   0.168   0.670   4.586
25712WAT     H277379   0.183   0.514   4.631
25713WAT      O77380   3.181   9.649   4.224
25713WAT     H177381   3.116   9.624   4.295
25713WAT     H277382   3.163   9.597   4.141
25714WAT      O77383   1.951   4.068   6.704
25714WAT     H177384   2.011   4.010   6.649
25714WAT     H277385   1.857   4.058   6.671
25715WAT      O77386   0.126   6.593   7.818
25715WAT     H177387   0.218   6.598   7.779
25715WAT     H277388   0.059   6.625   7.750
25716WAT      O77389   3.854   8.348   0.092
25716WAT     H177390   3.832   8.287   0.168
25716WAT     H277391   3.846   8.443   0.122
25717WAT      O77392   3.124   0.721   1.382
25717WAT     H177393   3.119   0.632   1.337
25717WAT     H277394   3.056   0.782   1.341
25718WAT      O77395   1.053   4.927   8.332
25718WAT     H177396   0.962   4.970   8.331
25718WAT     H277397   1.042   4.827   8.336
25719WAT      O77398   5.838   5.856   2.254
25719WAT     H177399   5.906   5.783   2.243
25719WAT     H277400   5.885   5.945   2.254
25720WAT      O77401   8.791   5.985   9.278
25720WAT     H177402   8.705   5.949   9.243
25720WAT     H277403   8.807   5.950   9.370
25721WAT      O77404   9.886   4.199   1.723
25721WAT     H177405   9.801   4.188   1.774
25721WAT     H277406   9.944   4.118   1.737
25722WAT      O77407   2.370   1.798   8.020
25722WAT     H177408   2.457   1.791   8.068
25722WAT     H277409   2.329   1.707   8.013
25723WAT      O77410   2.061   7.158   9.058
25723WAT     H177411   1.983   7.108   9.020
25723WAT     H277412   2.045   7.257   9.051
25724WAT      O77413   0.837   7.402   8.483
25724WAT     H177414   0.846   7.477   8.549
25724WAT     H277415   0.907   7.333   8.502
25725WAT      O77416   3.918   5.281   6.611
25725WAT     H177417   3.899   5.244   6.520
25725WAT     H277418   4.016   5.300   6.620
25726WAT      O77419   6.231   2.666   3.990
25726WAT     H177420   6.163   2.654   3.918
25726WAT     H277421   6.248   2.578   4.035
25727WAT      O77422   8.126   9.351   3.196
25727WAT     H177423   8.148   9.255   3.177
25727WAT     H277424   8.183   9.385   3.271
25728WAT      O77425   6.315   9.360   7.067
25728WAT     H177426   6.260   9.425   7.119
25728WAT     H277427   6.292   9.267   7.095
25729WAT      O77428   6.803   8.709   0.917
25729WAT     H177429   6.827   8.701   0.820
25729WAT     H277430   6.858   8.782   0.959
25730WAT      O77431   5.451   0.647   9.090
25730WAT     H177432   5.430   0.696   9.175
25730WAT     H277433   5.400   0.561   9.087
25731WAT      O77434   3.118   4.446   5.545
25731WAT     H177435   3.061   4.528   5.536
25731WAT     H277436   3.073   4.381   5.607
25732WAT      O77437   5.347   2.940   0.172
25732WAT     H177438   5.409   2.894   0.235
25732WAT     H277439   5.255   2.904   0.183
25733WAT      O77440   7.522   7.606   6.497
25733WAT     H177441   7.557   7.579   6.407
25733WAT     H277442   7.433   7.563   6.512
25734WAT      O77443   0.343   8.942   7.742
25734WAT     H177444   0.262   8.950   7.683
25734WAT     H277445   0.424   8.928   7.685
25735WAT      O77446   4.474   2.251   7.281
25735WAT     H177447   4.453   2.322   7.214
25735WAT     H277448   4.400   2.184   7.284
25736WAT      O77449   5.545   0.172   0.343
25736WAT     H177450   5.572   0.223   0.425
25736WAT     H277451   5.577   0.077   0.351
25737WAT      O77452   2.134   7.421   8.362
25737WAT     H177453   2.170   7.353   8.298
25737WAT     H277454   2.035   7.429   8.350
25738WAT      O77455   4.652   8.532   4.034
25738WAT     H177456   4.679   8.608   4.093
25738WAT     H277457   4.733   8.488   3.995
25739WAT      O77458   1.814   0.022   4.139
25739WAT     H177459   1.812  -0.048   4.067
25739WAT     H277460   1.895   0.009   4.196
25740WAT      O77461   0.848   5.317   1.716
25740WAT     H177462   0.880   5.223   1.730
25740WAT     H277463   0.749   5.320   1.724
25741WAT      O77464   7.707   5.203   8.997
25741WAT     H177465   7.719   5.146   8.915
25741WAT     H277466   7.790   5.201   9.051
25742WAT      O77467   6.263   5.758   2.139
25742WAT     H177468   6.305   5.766   2.229
25742WAT     H277469   6.181   5.701   2.146
25743WAT      O77470   0.315   8.005   8.374
25743WAT     H177471   0.243   8.064   8.409
25743WAT     H277472   0.345   7.943   8.447
25744WAT      O77473   5.209   7.568   2.146
25744WAT     H177474   5.201   7.516   2.061
25744WAT     H277475   5.150   7.648   2.142
25745WAT      O77476   1.229   8.847   8.517
25745WAT     H177477   1.314   8.895   8.538
25745WAT     H277478   1.215   8.847   8.418
25746WAT      O77479   0.056   7.837   0.636
25746WAT     H177480   0.027   7.820   0.542
25746WAT     H277481  -0.006   7.793   0.700
25747WAT      O77482   5.085   8.441   5.207
25747WAT     H177483   4.995   8.468   5.243
25747WAT     H277484   5.127   8.519   5.160
25748WAT      O77485   6.602   0.846   2.756
25748WAT     H177486   6.669   0.916   2.781
25748WAT     H277487   6.650   0.764   2.725
25749WAT      O77488   8.610   8.171   1.771
25749WAT     H177489   8.584   8.157   1.867
25749WAT     H277490   8.577   8.095   1.716
25750WAT      O77491   9.313   8.382   8.260
25750WAT     H177492   9.323   8.481   8.258
25750WAT     H277493   9.274   8.351   8.173
25751WAT      O77494   7.736   3.368   6.130
25751WAT     H177495   7.636   3.363   6.130
25751WAT     H277496   7.772   3.316   6.053
25752WAT      O77497   4.114   3.096   4.066
25752WAT     H177498   4.034   3.116   4.009
25752WAT     H277499   4.189   3.064   4.008
25753WAT      O77500   9.783   2.314   2.825
25753WAT     H177501   9.720   2.287   2.898
25753WAT     H277502   9.798   2.413   2.828
25754WAT      O77503   4.922   4.653   7.873
25754WAT     H177504   4.940   4.562   7.835
25754WAT     H277505   4.873   4.708   7.806
25755WAT      O77506   0.041   4.706   3.988
25755WAT     H177507  -0.015   4.725   3.908
25755WAT     H277508   0.109   4.636   3.965
25756WAT      O77509   5.760   9.411   3.170
25756WAT     H177510   5.767   9.509   3.186
25756WAT     H277511   5.826   9.384   3.100
25757WAT      O77512   9.877   6.086   0.022
25757WAT     H177513   9.812   6.076  -0.053
25757WAT     H277514   9.908   5.995   0.051
25758WAT      O77515   6.021   4.943   2.851
25758WAT     H177516   5.990   4.931   2.757
25758WAT     H277517   5.999   4.861   2.904
25759WAT      O77518   1.446   6.466   4.976
25759WAT     H177519   1.542   6.479   5.000
25759WAT     H277520   1.409   6.551   4.939
25760WAT      O77521   6.802   5.308   2.785
25760WAT     H177522   6.723   5.272   2.736
25760WAT     H277523   6.785   5.306   2.883
25761WAT      O77524   9.230   9.625   0.293
25761WAT     H177525   9.255   9.557   0.225
25761WAT     H277526   9.247   9.717   0.256
25762WAT      O77527   2.702   3.509   5.967
25762WAT     H177528   2.757   3.592   5.976
25762WAT     H277529   2.730   3.442   6.035
25763WAT      O77530   6.416   6.968   7.897
25763WAT     H177531   6.413   6.953   7.798
25763WAT     H277532   6.431   7.065   7.916
25764WAT      O77533   4.419   2.134   4.971
25764WAT     H177534   4.498   2.195   4.982
25764WAT     H277535   4.338   2.178   5.007
25765WAT      O77536   3.457   6.927   4.481
25765WAT     H177537   3.507   7.014   4.474
25765WAT     H277538   3.360   6.945   4.495
25766WAT      O77539   2.921   1.044   4.168
25766WAT     H177540   3.012   1.064   4.203
25766WAT     H277541   2.892   0.954   4.200
25767WAT      O77542   1.985   5.748   0.005
25767WAT     H177543   2.038   5.698   0.074
25767WAT     H277544   1.903   5.786   0.047
25768WAT      O77545   8.956   5.781   6.594
25768WAT     H177546   9.027   5.811   6.657
25768WAT     H277547   8.983   5.803   6.500
25769WAT      O77548   0.132   0.760   0.534
25769WAT     H177549   0.208   0.777   0.597
25769WAT     H277550   0.078   0.682   0.567
25770WAT      O77551   8.923   6.296   0.771
25770WAT     H177552   8.948   6.330   0.862
25770WAT     H277553   8.887   6.371   0.716
25771WAT      O77554   7.672   7.229   7.812
25771WAT     H177555   7.696   7.132   7.802
25771WAT     H277556   7.752   7.286   7.793
25772WAT      O77557   5.501   7.951   7.420
25772WAT     H177558   5.428   7.978   7.484
25772WAT     H277559   5.478   7.983   7.329
25773WAT      O77560   1.640   4.194   7.614
25773WAT     H177561   1.610   4.127   7.682
25773WAT     H277562   1.594   4.175   7.527
25774WAT      O77563   2.844   7.785   4.432
25774WAT     H177564   2.850   7.729   4.350
25774WAT     H277565   2.836   7.881   4.406
25775WAT      O77566   1.342   4.028   5.127
25775WAT     H177567   1.392   4.050   5.211
25775WAT     H277568   1.367   3.936   5.096
25776WAT      O77569   6.363   2.027   2.448
25776WAT     H177570   6.301   2.050   2.373
25776WAT     H277571   6.312   2.020   2.533
25777WAT      O77572   5.135   2.088   8.893
25777WAT     H177573   5.131   2.146   8.811
25777WAT     H277574   5.137   1.992   8.865
25778WAT      O77575   3.355   2.500   6.818
25778WAT     H177576   3.367   2.421   6.757
25778WAT     H277577   3.390   2.477   6.908
25779WAT      O77578   2.543   7.121   0.582
25779WAT     H177579   2.640   7.138   0.598
25779WAT     H277580   2.494   7.208   0.579
25780WAT      O77581   6.742   1.825   4.404
25780WAT     H177582   6.837   1.821   4.432
25780WAT     H277583   6.683   1.805   4.483
25781WAT      O77584   8.132   8.618   5.785
25781WAT     H177585   8.230   8.635   5.792
25781WAT     H277586   8.085   8.663   5.861
25782WAT      O77587   4.604   1.318   7.565
25782WAT     H177588   4.623   1.274   7.653
25782WAT     H277589   4.685   1.367   7.534
25783WAT      O77590   2.475   0.260   4.537
25783WAT     H177591   2.528   0.216   4.610
25783WAT     H277592   2.537   0.308   4.475
25784WAT      O77593   9.224   6.275   7.515
25784WAT     H177594   9.254   6.292   7.421
25784WAT     H277595   9.295   6.306   7.578
25785WAT      O77596   1.098   7.813   9.653
25785WAT     H177597   1.093   7.792   9.555
25785WAT     H277598   1.089   7.912   9.666
25786WAT      O77599   5.088   7.096   8.279
25786WAT     H177600   5.014   7.116   8.214
25786WAT     H277601   5.176   7.111   8.235
25787WAT      O77602   7.234   0.559   3.464
25787WAT     H177603   7.261   0.650   3.433
25787WAT     H277604   7.296   0.491   3.427
25788WAT      O77605   0.569   3.797   5.537
25788WAT     H177606   0.553   3.707   5.576
25788WAT     H277607   0.585   3.788   5.439
25789WAT      O77608   6.421   7.594   1.175
25789WAT     H177609   6.423   7.568   1.079
25789WAT     H277610   6.438   7.514   1.232
25790WAT      O77611   6.027   1.782   5.490
25790WAT     H177612   5.927   1.777   5.491
25790WAT     H277613   6.058   1.852   5.553
25791WAT      O77614   8.138   5.252   1.452
25791WAT     H177615   8.055   5.281   1.405
25791WAT     H277616   8.169   5.165   1.414
25792WAT      O77617   9.203   1.147   4.581
25792WAT     H177618   9.202   1.047   4.583
25792WAT     H277619   9.201   1.182   4.674
25793WAT      O77620   1.741   5.422   6.769
25793WAT     H177621   1.755   5.404   6.671
25793WAT     H277622   1.690   5.347   6.810
25794WAT      O77623   5.225   9.721   4.995
25794WAT     H177624   5.190   9.628   4.993
25794WAT     H277625   5.288   9.731   5.072
25795WAT      O77626   1.714   2.713   8.580
25795WAT     H177627   1.634   2.724   8.522
25795WAT     H277628   1.685   2.703   8.676
25796WAT      O77629   0.609   8.142   0.945
25796WAT     H177630   0.565   8.221   0.988
25796WAT     H277631   0.669   8.097   1.011
25797WAT      O77632   3.264   4.033   9.377
25797WAT     H177633   3.239   3.936   9.371
25797WAT     H277634   3.278   4.058   9.472
25798WAT      O77635   2.216   8.260   8.589
25798WAT     H177636   2.139   8.198   8.577
25798WAT     H277637   2.298   8.206   8.613
25799WAT      O77638   0.956   1.310   6.404
25799WAT     H177639   1.048   1.274   6.423
25799WAT     H277640   0.890   1.235   6.411
25800WAT      O77641   4.779   5.486   7.617
25800WAT     H177642   4.768   5.461   7.521
25800WAT     H277643   4.849   5.429   7.658
25801WAT      O77644   5.870   3.053   9.686
25801WAT     H177645   5.805   3.025   9.757
25801WAT     H277646   5.913   2.972   9.646
25802WAT      O77647   9.641   1.962   6.406
25802WAT     H177648   9.696   1.980   6.324
25802WAT     H277649   9.556   1.917   6.380
25803WAT      O77650   8.266   5.830   4.474
25803WAT     H177651   8.243   5.752   4.532
25803WAT     H277652   8.363   5.827   4.451
25804WAT      O77653   1.316   7.552   3.698
25804WAT     H177654   1.327   7.617   3.773
25804WAT     H277655   1.404   7.535   3.654
25805WAT      O77656   1.138   4.353   4.948
25805WAT     H177657   1.052   4.341   4.999
25805WAT     H277658   1.120   4.406   4.865
25806WAT      O77659   2.504   7.880   4.484
25806WAT     H177660   2.422   7.822   4.475
25806WAT     H277661   2.572   7.832   4.539
25807WAT      O77662   7.847   6.865   6.018
25807WAT     H177663   7.777   6.845   6.087
25807WAT     H277664   7.808   6.854   5.927
25808WAT      O77665   2.507   3.856   6.957
25808WAT     H177666   2.553   3.936   6.994
25808WAT     H277667   2.561   3.774   6.976
25809WAT      O77668   1.029   8.369   7.535
25809WAT     H177669   1.043   8.305   7.611
25809WAT     H277670   1.107   8.431   7.529
25810WAT      O77671   0.234   9.154   9.121
25810WAT     H177672   0.235   9.140   9.022
25810WAT     H277673   0.143   9.133   9.156
25811WAT      O77674   0.934   8.936   5.477
25811WAT     H177675   0.873   8.857   5.477
25811WAT     H277676   0.921   8.989   5.394
25812WAT      O77677   0.474   9.305   2.755
25812WAT     H177678   0.428   9.225   2.793
25812WAT     H277679   0.570   9.282   2.736
25813WAT      O77680   7.335   0.767   2.489
25813WAT     H177681   7.297   0.697   2.428
25813WAT     H277682   7.303   0.751   2.582
25814WAT      O77683   6.516   1.768   5.961
25814WAT     H177684   6.458   1.695   5.997
25814WAT     H277685   6.552   1.823   6.037
25815WAT      O77686   7.241   4.973   3.793
25815WAT     H177687   7.205   4.939   3.707
25815WAT     H277688   7.341   4.965   3.793
25816WAT      O77689   9.407   5.497   6.668
25816WAT     H177690   9.399   5.571   6.735
25816WAT     H277691   9.474   5.430   6.700
25817WAT      O77692   7.375   4.015   2.102
25817WAT     H177693   7.347   4.021   2.198
25817WAT     H277694   7.428   3.932   2.088
25818WAT      O77695   8.309   9.773   0.206
25818WAT     H177696   8.380   9.821   0.155
25818WAT     H277697   8.336   9.766   0.302
25819WAT      O77698   3.752   9.338   0.487
25819WAT     H177699   3.714   9.382   0.405
25819WAT     H277700   3.847   9.310   0.469
25820WAT      O77701   5.759   3.751   5.519
25820WAT     H177702   5.810   3.828   5.556
25820WAT     H277703   5.810   3.712   5.442
25821WAT      O77704   4.473   2.091   5.375
25821WAT     H177705   4.536   2.053   5.307
25821WAT     H277706   4.483   2.040   5.461
25822WAT      O77707   8.963   7.968   7.197
25822WAT     H177708   8.945   7.879   7.240
25822WAT     H277709   8.942   8.041   7.262
25823WAT      O77710   2.615   6.735   4.520
25823WAT     H177711   2.639   6.696   4.609
25823WAT     H277712   2.523   6.704   4.494
25824WAT      O77713   8.072   4.991   7.510
25824WAT     H177714   8.115   5.041   7.585
25824WAT     H277715   7.977   5.022   7.499
25825WAT      O77716   6.885   8.922   7.274
25825WAT     H177717   6.959   8.988   7.291
25825WAT     H277718   6.919   8.829   7.289
25826WAT      O77719   9.659   4.842   3.009
25826WAT     H177720   9.573   4.861   3.056
25826WAT     H277721   9.708   4.928   2.993
25827WAT      O77722   2.490   4.869   5.280
25827WAT     H177723   2.513   4.783   5.235
25827WAT     H277724   2.553   4.940   5.250
25828WAT      O77725   6.680   2.659   0.700
25828WAT     H177726   6.770   2.668   0.658
25828WAT     H277727   6.665   2.737   0.762
25829WAT      O77728   5.924   1.783   9.744
25829WAT     H177729   5.875   1.869   9.759
25829WAT     H277730   5.860   1.712   9.714
25830WAT      O77731   7.935   3.935   9.850
25830WAT     H177732   7.882   3.855   9.876
25830WAT     H277733   7.881   4.018   9.863
25831WAT      O77734   0.618   5.164   7.191
25831WAT     H177735   0.590   5.260   7.201
25831WAT     H277736   0.562   5.107   7.252
25832WAT      O77737   9.500   6.793   4.753
25832WAT     H177738   9.552   6.852   4.814
25832WAT     H277739   9.408   6.830   4.742
25833WAT      O77740   2.028   5.773   7.133
25833WAT     H177741   2.019   5.854   7.075
25833WAT     H277742   1.943   5.761   7.184
25834WAT      O77743   2.486   7.125   3.905
25834WAT     H177744   2.583   7.099   3.908
25834WAT     H277745   2.442   7.080   3.827
25835WAT      O77746   4.259   8.189   6.251
25835WAT     H177747   4.273   8.205   6.348
25835WAT     H277748   4.162   8.196   6.229
25836WAT      O77749   9.184   2.829   8.349
25836WAT     H177750   9.227   2.917   8.327
25836WAT     H277751   9.108   2.845   8.412
25837WAT      O77752   2.290   4.034   8.210
25837WAT     H177753   2.330   4.076   8.128
25837WAT     H277754   2.224   3.964   8.183
25838WAT      O77755   5.205   0.094   3.140
25838WAT     H177756   5.148   0.136   3.069
25838WAT     H277757   5.293   0.067   3.102
25839WAT      O77758   4.281   4.004   2.520
25839WAT     H177759   4.304   3.966   2.431
25839WAT     H277760   4.364   4.012   2.575
25840WAT      O77761   4.753   9.390   7.799
25840WAT     H177762   4.796   9.409   7.710
25840WAT     H277763   4.665   9.344   7.784
25841WAT      O77764   8.721   8.344   3.815
25841WAT     H177765   8.692   8.306   3.902
25841WAT     H277766   8.733   8.270   3.749
25842WAT      O77767   6.505   6.369   6.299
25842WAT     H177768   6.563   6.301   6.342
25842WAT     H277769   6.417   6.327   6.274
25843WAT      O77770   6.406   1.206   3.369
25843WAT     H177771   6.489   1.204   3.425
25843WAT     H277772   6.396   1.119   3.321
25844WAT      O77773   2.639   4.816   5.691
25844WAT     H177774   2.628   4.722   5.657
25844WAT     H277775   2.555   4.867   5.673
25845WAT      O77776   7.422   1.888   1.640
25845WAT     H177777   7.495   1.841   1.689
25845WAT     H277778   7.359   1.820   1.601
25846WAT      O77779   7.447   8.307   2.745
25846WAT     H177780   7.493   8.393   2.723
25846WAT     H277781   7.381   8.286   2.673
25847WAT      O77782   9.421   6.793   2.809
25847WAT     H177783   9.505   6.740   2.798
25847WAT     H277784   9.384   6.814   2.719
25848WAT      O77785   0.364   5.047   0.601
25848WAT     H177786   0.426   5.035   0.524
25848WAT     H277787   0.416   5.066   0.684
25849WAT      O77788   1.353   2.047   3.723
25849WAT     H177789   1.294   2.091   3.791
25849WAT     H277790   1.325   2.076   3.631
25850WAT      O77791   2.985   1.561   1.991
25850WAT     H177792   3.001   1.640   1.932
25850WAT     H277793   3.072   1.515   2.011
25851WAT      O77794   9.556   8.328   9.802
25851WAT     H177795   9.463   8.354   9.827
25851WAT     H277796   9.569   8.230   9.820
25852WAT      O77797   5.815   2.181   4.433
25852WAT     H177798   5.854   2.185   4.525
25852WAT     H277799   5.769   2.267   4.413
25853WAT      O77800   7.570   5.925   9.079
25853WAT     H177801   7.564   5.869   8.997
25853WAT     H277802   7.599   6.017   9.055
25854WAT      O77803   6.317   6.792   3.717
25854WAT     H177804   6.227   6.761   3.687
25854WAT     H277805   6.307   6.877   3.769
25855WAT      O77806   5.635   6.810   9.804
25855WAT     H177807   5.580   6.808   9.721
25855WAT     H277808   5.584   6.857   9.876
25856WAT      O77809   6.852   2.379   9.461
25856WAT     H177810   6.811   2.400   9.550
25856WAT     H277811   6.812   2.439   9.391
25857WAT      O77812   7.955   4.522   7.099
25857WAT     H177813   7.966   4.518   7.199
25857WAT     H277814   7.864   4.558   7.077
25858WAT      O77815   4.426   7.690   4.862
25858WAT     H177816   4.409   7.704   4.959
25858WAT     H277817   4.411   7.593   4.840
25859WAT      O77818   9.690   2.270   0.143
25859WAT     H177819   9.762   2.216   0.100
25859WAT     H277820   9.725   2.311   0.227
25860WAT      O77821   9.364   0.436   2.765
25860WAT     H177822   9.292   0.426   2.834
25860WAT     H277823   9.417   0.518   2.783
25861WAT      O77824   8.503   8.089   7.362
25861WAT     H177825   8.412   8.051   7.348
25861WAT     H277826   8.549   8.042   7.438
25862WAT      O77827   7.791   6.206   4.502
25862WAT     H177828   7.837   6.176   4.585
25862WAT     H277829   7.780   6.305   4.503
25863WAT      O77830   9.613   5.916   5.811
25863WAT     H177831   9.578   5.888   5.901
25863WAT     H277832   9.599   5.843   5.745
25864WAT      O77833   7.379   0.926   6.730
25864WAT     H177834   7.305   0.866   6.700
25864WAT     H277835   7.363   0.954   6.825
25865WAT      O77836   5.194   0.297   8.493
25865WAT     H177837   5.288   0.326   8.512
25865WAT     H277838   5.146   0.368   8.442
25866WAT      O77839   2.984   8.406   6.550
25866WAT     H177840   3.050   8.480   6.538
25866WAT     H277841   3.023   8.320   6.518
25867WAT      O77842   8.269   4.952   0.966
25867WAT     H177843   8.352   4.919   0.920
25867WAT     H277844   8.247   4.892   1.043
25868WAT      O77845   7.553   8.813   7.307
25868WAT     H177846   7.593   8.894   7.348
25868WAT     H277847   7.578   8.809   7.210
25869WAT      O77848   6.644   5.625   4.867
25869WAT     H177849   6.664   5.701   4.805
25869WAT     H277850   6.605   5.660   4.951
25870WAT      O77851   0.498   1.677   8.895
25870WAT     H177852   0.562   1.677   8.819
25870WAT     H277853   0.455   1.767   8.903
25871WAT      O77854   3.673   9.208   4.049
25871WAT     H177855   3.727   9.130   4.017
25871WAT     H277856   3.730   9.290   4.047
25872WAT      O77857   2.774   2.667   1.608
25872WAT     H177858   2.844   2.726   1.649
25872WAT     H277859   2.684   2.698   1.636
25873WAT      O77860   3.033   4.239   8.127
25873WAT     H177861   3.016   4.277   8.218
25873WAT     H277862   2.957   4.180   8.100
25874WAT      O77863   8.057   3.931   3.191
25874WAT     H177864   8.112   3.994   3.246
25874WAT     H277865   8.103   3.842   3.187
25875WAT      O77866   0.308   4.953   6.183
25875WAT     H177867   0.315   5.032   6.244
25875WAT     H277868   0.308   4.869   6.237
25876WAT      O77869   4.201   0.539   7.530
25876WAT     H177870   4.155   0.534   7.442
25876WAT     H277871   4.229   0.448   7.558
25877WAT      O77872   5.632   4.190   7.352
25877WAT     H177873   5.692   4.237   7.287
25877WAT     H277874   5.537   4.201   7.324
25878WAT      O77875   2.686   3.235   5.047
25878WAT     H177876   2.742   3.293   4.987
25878WAT     H277877   2.742   3.199   5.121
25879WAT      O77878   5.880   4.021   9.215
25879WAT     H177879   5.884   4.089   9.142
25879WAT     H277880   5.907   3.931   9.179
25880WAT      O77881   1.735   8.098   0.885
25880WAT     H177882   1.763   8.107   0.980
25880WAT     H277883   1.745   8.003   0.855
25881WAT      O77884   1.503   8.149   3.900
25881WAT     H177885   1.600   8.124   3.903
25881WAT     H277886   1.487   8.229   3.958
25882WAT      O77887   7.045   1.077   8.277
25882WAT     H177888   7.047   0.977   8.271
25882WAT     H277889   7.127   1.109   8.325
25883WAT      O77890   0.891   6.269   4.258
25883WAT     H177891   0.836   6.203   4.206
25883WAT     H277892   0.855   6.276   4.351
25884WAT      O77893   7.168   2.593   5.125
25884WAT     H177894   7.247   2.649   5.150
25884WAT     H277895   7.137   2.542   5.205
25885WAT      O77896   2.856   8.303   9.752
25885WAT     H177897   2.836   8.273   9.659
25885WAT     H277898   2.771   8.309   9.804
25886WAT      O77899   7.606   9.692   8.675
25886WAT     H177900   7.516   9.667   8.637
25886WAT     H277901   7.604   9.787   8.704
25887WAT      O77902   6.589   5.363   0.539
25887WAT     H177903   6.522   5.405   0.600
25887WAT     H277904   6.674   5.415   0.541
25888WAT      O77905   3.209   1.680   4.676
25888WAT     H177906   3.145   1.757   4.677
25888WAT     H277907   3.298   1.710   4.709
25889WAT      O77908   1.209   3.746   7.942
25889WAT     H177909   1.144   3.822   7.939
25889WAT     H277910   1.163   3.662   7.914
25890WAT      O77911   7.053   7.386   7.715
25890WAT     H177912   6.992   7.440   7.773
25890WAT     H277913   7.014   7.379   7.624
25891WAT      O77914   6.971   2.557   6.412
25891WAT     H177915   6.900   2.493   6.441
25891WAT     H277916   7.018   2.593   6.492
25892WAT      O77917   1.609   0.237   1.685
25892WAT     H177918   1.647   0.316   1.732
25892WAT     H277919   1.509   0.248   1.677
25893WAT      O77920   5.946   6.790   9.504
25893WAT     H177921   5.883   6.868   9.500
25893WAT     H277922   6.010   6.803   9.580
25894WAT      O77923   9.773   8.211   3.365
25894WAT     H177924   9.851   8.154   3.391
25894WAT     H277925   9.714   8.226   3.445
25895WAT      O77926   7.761   6.052   1.797
25895WAT     H177927   7.757   6.061   1.896
25895WAT     H277928   7.673   6.079   1.758
25896WAT      O77929   6.920   3.016   0.754
25896WAT     H177930   6.983   3.014   0.831
25896WAT     H277931   6.907   3.110   0.723
25897WAT      O77932   2.044   2.703   3.909
25897WAT     H177933   1.970   2.759   3.871
25897WAT     H277934   2.102   2.760   3.967
25898WAT      O77935   1.112   5.077   6.645
25898WAT     H177936   1.155   4.988   6.630
25898WAT     H277937   1.040   5.068   6.715
25899WAT      O77938   5.797   9.254   4.581
25899WAT     H177939   5.742   9.277   4.661
25899WAT     H277940   5.861   9.329   4.563
25900WAT      O77941   1.003   8.265   1.835
25900WAT     H177942   1.016   8.200   1.910
25900WAT     H277943   0.918   8.315   1.848
25901WAT      O77944   7.027   3.081   4.918
25901WAT     H177945   7.111   3.031   4.900
25901WAT     H277946   6.951   3.017   4.926
25902WAT      O77947   7.161   9.544   5.532
25902WAT     H177948   7.251   9.566   5.495
25902WAT     H277949   7.172   9.493   5.618
25903WAT      O77950   3.433   2.353   4.188
25903WAT     H177951   3.446   2.303   4.103
25903WAT     H277952   3.359   2.419   4.177
25904WAT      O77953   1.946   2.304   2.613
25904WAT     H177954   2.024   2.269   2.560
25904WAT     H277955   1.868   2.317   2.553
25905WAT      O77956   9.507   0.504   8.534
25905WAT     H177957   9.595   0.551   8.546
25905WAT     H277958   9.457   0.546   8.458
25906WAT      O77959   7.582   7.914   1.710
25906WAT     H177960   7.485   7.934   1.720
25906WAT     H277961   7.606   7.913   1.613
25907WAT      O77962   7.603   4.743   8.144
25907WAT     H177963   7.532   4.813   8.129
25907WAT     H277964   7.627   4.700   8.057
25908WAT      O77965   5.982   0.173   3.194
25908WAT     H177966   6.054   0.139   3.133
25908WAT     H277967   5.955   0.100   3.258
25909WAT      O77968   2.811   8.076   5.137
25909WAT     H177969   2.723   8.089   5.090
25909WAT     H277970   2.832   8.159   5.190
25910WAT      O77971   9.051   8.988   2.300
25910WAT     H177972   9.150   8.976   2.299
25910WAT     H277973   9.017   8.998   2.207
25911WAT      O77974   9.710   8.563   4.925
25911WAT     H177975   9.679   8.474   4.891
25911WAT     H277976   9.633   8.626   4.929
25912WAT      O77977   8.378   7.795   7.090
25912WAT     H177978   8.448   7.781   7.020
25912WAT     H277979   8.375   7.716   7.151
25913WAT      O77980   0.099   5.944   8.371
25913WAT     H177981   0.089   5.886   8.452
25913WAT     H277982   0.083   6.039   8.396
25914WAT      O77983   0.829   4.952   5.828
25914WAT     H177984   0.789   4.983   5.742
25914WAT     H277985   0.785   5.000   5.904
25915WAT      O77986   1.801   3.785   5.211
25915WAT     H177987   1.826   3.749   5.121
25915WAT     H277988   1.879   3.778   5.272
25916WAT      O77989   1.615   5.597   2.979
25916WAT     H177990   1.673   5.586   2.899
25916WAT     H277991   1.604   5.694   3.000
25917WAT      O77992   7.509   8.874   0.774
25917WAT     H177993   7.606   8.883   0.751
25917WAT     H277994   7.488   8.778   0.795
25918WAT      O77995   3.263   4.422   8.338
25918WAT     H177996   3.181   4.376   8.373
25918WAT     H277997   3.344   4.367   8.359
25919WAT      O77998   2.601   0.612   1.871
25919WAT     H177999   2.584   0.633   1.774
25919WAT     H278000   2.523   0.645   1.925
25920WAT      O78001   5.640   4.828   3.626
25920WAT     H178002   5.580   4.835   3.546
25920WAT     H278003   5.638   4.914   3.677
25921WAT      O78004   9.635   5.288   9.562
25921WAT     H178005   9.537   5.271   9.563
25921WAT     H278006   9.664   5.323   9.652
25922WAT      O78007   2.848   2.494   6.162
25922WAT     H178008   2.931   2.454   6.123
25922WAT     H278009   2.861   2.592   6.176
25923WAT      O78010   2.476   9.639   5.613
25923WAT     H178011   2.448   9.590   5.696
25923WAT     H278012   2.420   9.720   5.602
25924WAT      O78013   6.778   3.336   6.002
25924WAT     H178014   6.825   3.403   5.943
25924WAT     H278015   6.800   3.244   5.970
25925WAT      O78016   5.841   3.543   0.462
25925WAT     H178017   5.904   3.514   0.391
25925WAT     H278018   5.885   3.613   0.519
25926WAT      O78019   6.041   6.760   3.604
25926WAT     H178020   6.011   6.667   3.625
25926WAT     H278021   5.996   6.824   3.667
25927WAT      O78022   1.710   1.681   0.659
25927WAT     H178023   1.794   1.627   0.654
25927WAT     H278024   1.663   1.662   0.745
25928WAT      O78025   4.220   1.325   0.860
25928WAT     H178026   4.305   1.282   0.833
25928WAT     H278027   4.158   1.256   0.897
25929WAT      O78028   8.404   6.499   3.880
25929WAT     H178029   8.453   6.418   3.850
25929WAT     H278030   8.425   6.517   3.976
25930WAT      O78031   1.576   3.222   4.092
25930WAT     H178032   1.486   3.219   4.047
25930WAT     H278033   1.646   3.190   4.028
25931WAT      O78034   8.395   9.386   3.401
25931WAT     H178035   8.399   9.483   3.425
25931WAT     H278036   8.474   9.362   3.345
25932WAT      O78037   0.462   3.105   3.010
25932WAT     H178038   0.530   3.035   3.031
25932WAT     H278039   0.468   3.179   3.077
25933WAT      O78040   0.227   2.257   8.818
25933WAT     H178041   0.321   2.262   8.849
25933WAT     H278042   0.171   2.322   8.869
25934WAT      O78043   8.214   6.494   9.703
25934WAT     H178044   8.132   6.470   9.651
25934WAT     H278045   8.262   6.568   9.656
25935WAT      O78046   8.884   2.926   5.236
25935WAT     H178047   8.816   2.923   5.309
25935WAT     H278048   8.879   2.841   5.183
25936WAT      O78049   5.840   4.922   8.062
25936WAT     H178050   5.823   4.983   8.140
25936WAT     H278051   5.769   4.936   7.993
25937WAT      O78052   9.696   1.071   0.366
25937WAT     H178053   9.731   1.088   0.458
25937WAT     H278054   9.749   1.124   0.300
25938WAT      O78055   0.486   0.891   8.260
25938WAT     H178056   0.465   0.960   8.329
25938WAT     H278057   0.442   0.805   8.285
25939WAT      O78058   1.875   8.498   7.091
25939WAT     H178059   1.839   8.466   7.179
25939WAT     H278060   1.870   8.423   7.025
25940WAT      O78061   5.918   5.789   1.654
25940WAT     H178062   5.924   5.785   1.554
25940WAT     H278063   5.827   5.822   1.680
25941WAT      O78064   2.596   8.062   0.963
25941WAT     H178065   2.507   8.106   0.972
25941WAT     H278066   2.624   8.061   0.867
25942WAT      O78067   4.570   8.865   2.753
25942WAT     H178068   4.557   8.925   2.674
25942WAT     H278069   4.570   8.919   2.837
25943WAT      O78070   4.247   5.945   2.388
25943WAT     H178071   4.215   6.024   2.441
25943WAT     H278072   4.179   5.872   2.393
25944WAT      O78073   0.284   7.155   3.905
25944WAT     H178074   0.246   7.175   3.815
25944WAT     H278075   0.277   7.057   3.923
25945WAT      O78076   4.250   3.444   9.315
25945WAT     H178077   4.337   3.419   9.273
25945WAT     H278078   4.262   3.524   9.373
25946WAT      O78079   2.472   4.890   3.609
25946WAT     H178080   2.495   4.976   3.564
25946WAT     H278081   2.481   4.902   3.708
25947WAT      O78082   6.420   4.083   1.806
25947WAT     H178083   6.362   4.046   1.733
25947WAT     H278084   6.362   4.123   1.878
25948WAT      O78085   8.973   0.250   3.480
25948WAT     H178086   8.950   0.218   3.572
25948WAT     H278087   8.895   0.297   3.440
25949WAT      O78088   4.918   0.140   1.601
25949WAT     H178089   4.940   0.186   1.515
25949WAT     H278090   4.823   0.158   1.626
25950WAT      O78091   3.374   2.311   9.240
25950WAT     H178092   3.355   2.316   9.142
25950WAT     H278093   3.394   2.402   9.275
25951WAT      O78094   6.722   4.157   8.757
25951WAT     H178095   6.661   4.173   8.835
25951WAT     H278096   6.700   4.068   8.716
25952WAT      O78097   1.811   0.139   0.207
25952WAT     H178098   1.718   0.104   0.200
25952WAT     H278099   1.840   0.138   0.303
25953WAT      O78100   8.734   8.266   9.058
25953WAT     H178101   8.810   8.203   9.041
25953WAT     H278102   8.743   8.305   9.149
25954WAT      O78103   5.779   6.481   3.378
25954WAT     H178104   5.874   6.452   3.380
25954WAT     H278105   5.774   6.581   3.366
25955WAT      O78106   1.360   9.152   7.770
25955WAT     H178107   1.341   9.230   7.829
25955WAT     H278108   1.430   9.094   7.813
25956WAT      O78109   9.293   7.536   8.451
25956WAT     H178110   9.234   7.522   8.371
25956WAT     H278111   9.351   7.616   8.436
25957WAT      O78112   2.145   8.922   3.118
25957WAT     H178113   2.085   8.848   3.148
25957WAT     H278114   2.130   8.940   3.020
25958WAT      O78115   0.521   3.719   1.849
25958WAT     H178116   0.577   3.637   1.862
25958WAT     H278117   0.561   3.795   1.900
25959WAT      O78118   7.017   9.840   7.288
25959WAT     H178119   6.931   9.873   7.327
25959WAT     H278120   7.019   9.861   7.190
25960WAT      O78121   6.742   4.790   6.112
25960WAT     H178122   6.648   4.791   6.146
25960WAT     H278123   6.776   4.696   6.113
25961WAT      O78124   3.085   6.243   1.260
25961WAT     H178125   3.010   6.204   1.313
25961WAT     H278126   3.057   6.254   1.165
25962WAT      O78127   9.273   2.778   0.640
25962WAT     H178128   9.348   2.842   0.659
25962WAT     H278129   9.291   2.691   0.685
25963WAT      O78130   7.117   6.940   1.570
25963WAT     H178131   7.029   6.938   1.617
25963WAT     H278132   7.102   6.942   1.471
25964WAT      O78133   3.356   9.752   6.483
25964WAT     H178134   3.318   9.820   6.546
25964WAT     H278135   3.283   9.716   6.425
25965WAT      O78136   7.203   3.306   6.261
25965WAT     H178137   7.250   3.331   6.346
25965WAT     H278138   7.182   3.208   6.262
25966WAT      O78139   4.919   7.226   3.753
25966WAT     H178140   4.895   7.323   3.763
25966WAT     H278141   4.941   7.206   3.657
25967WAT      O78142   5.456   1.125   9.658
25967WAT     H178143   5.543   1.109   9.611
25967WAT     H278144   5.473   1.137   9.756
25968WAT      O78145   7.600   2.846   7.681
25968WAT     H178146   7.531   2.789   7.636
25968WAT     H278147   7.669   2.788   7.723
25969WAT      O78148   5.433   2.890   0.986
25969WAT     H178149   5.397   2.797   0.989
25969WAT     H278150   5.531   2.890   1.006
25970WAT      O78151   5.506   4.153   9.532
25970WAT     H178152   5.479   4.060   9.507
25970WAT     H278153   5.466   4.177   9.621
25971WAT      O78154   2.105   4.273   4.467
25971WAT     H178155   2.070   4.257   4.560
25971WAT     H278156   2.201   4.245   4.463
25972WAT      O78157   4.692   3.746   4.526
25972WAT     H178158   4.630   3.675   4.492
25972WAT     H278159   4.737   3.791   4.449
25973WAT      O78160   2.602   1.663   6.011
25973WAT     H178161   2.641   1.708   5.930
25973WAT     H278162   2.512   1.702   6.029
25974WAT      O78163   4.940   4.338   6.931
25974WAT     H178164   5.003   4.263   6.908
25974WAT     H278165   4.892   4.367   6.848
25975WAT      O78166   8.485   1.690   6.023
25975WAT     H178167   8.470   1.738   5.936
25975WAT     H278168   8.398   1.657   6.059
25976WAT      O78169   6.944   3.615   3.948
25976WAT     H178170   6.872   3.548   3.927
25976WAT     H278171   6.983   3.596   4.037
25977WAT      O78172   1.951   5.526   6.376
25977WAT     H178173   2.018   5.486   6.439
25977WAT     H278174   1.996   5.594   6.318
25978WAT      O78175   9.640   0.298   0.929
25978WAT     H178176   9.662   0.266   1.021
25978WAT     H278177   9.724   0.311   0.877
25979WAT      O78178   3.178   3.702   3.734
25979WAT     H178179   3.150   3.641   3.809
25979WAT     H278180   3.161   3.797   3.760
25980WAT      O78181   1.212   6.004   5.100
25980WAT     H178182   1.157   6.048   5.029
25980WAT     H278183   1.157   5.992   5.182
25981WAT      O78184   5.432   4.223   8.208
25981WAT     H178185   5.336   4.249   8.214
25981WAT     H278186   5.464   4.192   8.298
25982WAT      O78187   4.332   3.401   2.249
25982WAT     H178188   4.310   3.325   2.187
25982WAT     H278189   4.394   3.369   2.320
25983WAT      O78190   1.788   9.422   6.648
25983WAT     H178191   1.751   9.463   6.731
25983WAT     H278192   1.719   9.422   6.576
25984WAT      O78193   6.034   0.120   3.989
25984WAT     H178194   5.942   0.098   4.022
25984WAT     H278195   6.078   0.038   3.952
25985WAT      O78196   5.221   2.355   2.833
25985WAT     H178197   5.126   2.367   2.860
25985WAT     H278198   5.244   2.420   2.760
25986WAT      O78199   1.995   1.254   0.320
25986WAT     H178200   2.046   1.323   0.371
25986WAT     H278201   1.907   1.238   0.365
25987WAT      O78202   8.183   7.224   4.189
25987WAT     H178203   8.125   7.159   4.237
25987WAT     H278204   8.249   7.264   4.254
25988WAT      O78205   7.198   7.117   8.995
25988WAT     H178206   7.259   7.176   8.942
25988WAT     H278207   7.111   7.163   9.011
25989WAT      O78208   7.917   9.731   9.144
25989WAT     H178209   7.982   9.760   9.074
25989WAT     H278210   7.891   9.636   9.128
25990WAT      O78211   8.877   2.076   2.465
25990WAT     H178212   8.959   2.131   2.449
25990WAT     H278213   8.873   2.002   2.398
25991WAT      O78214   1.184   1.117   3.548
25991WAT     H178215   1.172   1.102   3.646
25991WAT     H278216   1.105   1.165   3.511
25992WAT      O78217   9.876   2.280   6.430
25992WAT     H178218   9.934   2.359   6.410
25992WAT     H278219   9.787   2.311   6.464
25993WAT      O78220   8.528   7.946   6.338
25993WAT     H178221   8.618   7.929   6.378
25993WAT     H278222   8.498   8.038   6.363
25994WAT      O78223   0.327   2.749   1.422
25994WAT     H178224   0.423   2.776   1.415
25994WAT     H278225   0.277   2.817   1.476
25995WAT      O78226   9.124   0.688   8.311
25995WAT     H178227   9.054   0.718   8.376
25995WAT     H278228   9.094   0.603   8.267
25996WAT      O78229   8.217   3.972   7.530
25996WAT     H178230   8.278   4.051   7.540
25996WAT     H278231   8.134   4.001   7.482
25997WAT      O78232   8.352   1.616   7.186
25997WAT     H178233   8.392   1.529   7.214
25997WAT     H278234   8.337   1.616   7.087
25998WAT      O78235   5.099   2.252   8.279
25998WAT     H178236   5.005   2.268   8.309
25998WAT     H278237   5.157   2.327   8.311
25999WAT      O78238   1.478   9.268   3.719
25999WAT     H178239   1.565   9.250   3.673
25999WAT     H278240   1.481   9.229   3.811
26000WAT      O78241   9.645   6.778   9.556
26000WAT     H178242   9.679   6.872   9.557
26000WAT     H278243   9.712   6.718   9.599
26001WAT      O78244   1.289   3.855   6.995
26001WAT     H178245   1.320   3.941   7.037
26001WAT     H278246   1.282   3.868   6.896
26002WAT      O78247   6.545   9.410   5.931
26002WAT     H178248   6.546   9.468   5.850
26002WAT     H278249   6.492   9.327   5.912
26003WAT      O78250   9.235   0.571   4.593
26003WAT     H178251   9.313   0.552   4.653
26003WAT     H278252   9.233   0.504   4.519
26004WAT      O78253   8.736   7.340   8.661
26004WAT     H178254   8.718   7.378   8.752
26004WAT     H278255   8.807   7.393   8.616
26005WAT      O78256   2.722   1.486   2.666
26005WAT     H178257   2.662   1.440   2.731
26005WAT     H278258   2.678   1.570   2.635
26006WAT      O78259   0.425   3.156   1.570
26006WAT     H178260   0.377   3.235   1.606
26006WAT     H278261   0.516   3.149   1.611
26007WAT      O78262   2.642   1.723   4.196
26007WAT     H178263   2.741   1.716   4.210
26007WAT     H278264   2.595   1.665   4.263
26008WAT      O78265   5.595   4.896   1.778
26008WAT     H178266   5.540   4.942   1.848
26008WAT     H278267   5.565   4.801   1.769
26009WAT      O78268   0.597   6.623   1.125
26009WAT     H178269   0.635   6.565   1.053
26009WAT     H278270   0.521   6.677   1.088
26010WAT      O78271   2.456   5.934   8.819
26010WAT     H178272   2.502   6.022   8.810
26010WAT     H278273   2.492   5.871   8.750
26011WAT      O78274   6.436   2.589   2.777
26011WAT     H178275   6.453   2.494   2.753
26011WAT     H278276   6.518   2.643   2.760
26012WAT      O78277   3.588   1.570   9.276
26012WAT     H178278   3.607   1.619   9.361
26012WAT     H278279   3.671   1.525   9.244
26013WAT      O78280   1.054   7.616   3.720
26013WAT     H178281   0.995   7.558   3.665
26013WAT     H278282   1.149   7.588   3.708
26014WAT      O78283   8.476   0.067   2.991
26014WAT     H178284   8.556   0.116   3.026
26014WAT     H278285   8.477   0.067   2.891
26015WAT      O78286   8.585   9.104   2.764
26015WAT     H178287   8.531   9.127   2.683
26015WAT     H278288   8.676   9.144   2.756
26016WAT      O78289   3.462   0.358   3.720
26016WAT     H178290   3.374   0.325   3.752
26016WAT     H278291   3.490   0.305   3.639
26017WAT      O78292   5.214   8.209   8.486
26017WAT     H178293   5.128   8.158   8.491
26017WAT     H278294   5.206   8.293   8.541
26018WAT      O78295   7.926   5.529   9.417
26018WAT     H178296   7.842   5.582   9.432
26018WAT     H278297   7.933   5.504   9.321
26019WAT      O78298   8.698   3.669   3.229
26019WAT     H178299   8.666   3.574   3.230
26019WAT     H278300   8.762   3.681   3.152
26020WAT      O78301   0.937   1.456   9.147
26020WAT     H178302   0.848   1.421   9.119
26020WAT     H278303   0.946   1.551   9.118
26021WAT      O78304   1.696   7.444   1.316
26021WAT     H178305   1.603   7.472   1.339
26021WAT     H278306   1.758   7.472   1.390
26022WAT      O78307   5.965   1.338   2.995
26022WAT     H178308   5.894   1.282   3.036
26022WAT     H278309   5.924   1.414   2.944
26023WAT      O78310   9.278   7.114   4.763
26023WAT     H178311   9.205   7.175   4.733
26023WAT     H278312   9.241   7.023   4.781
26024WAT      O78313   1.448   4.441   3.564
26024WAT     H178314   1.504   4.444   3.480
26024WAT     H278315   1.404   4.352   3.572
26025WAT      O78316   8.528   5.858   4.411
26025WAT     H178317   8.603   5.850   4.477
26025WAT     H278318   8.564   5.889   4.323
26026WAT      O78319   9.212   5.677   5.928
26026WAT     H178320   9.307   5.658   5.906
26026WAT     H278321   9.206   5.734   6.010
26027WAT      O78322   0.523   9.013   7.336
26027WAT     H178323   0.577   8.934   7.365
26027WAT     H278324   0.513   9.013   7.237
26028WAT      O78325   9.627   7.885   0.599
26028WAT     H178326   9.565   7.957   0.570
26028WAT     H278327   9.658   7.833   0.519
26029WAT      O78328   6.328   1.927   5.790
26029WAT     H178329   6.413   1.892   5.829
26029WAT     H278330   6.282   1.984   5.858
26030WAT      O78331   7.175   0.789   4.602
26030WAT     H178332   7.200   0.848   4.679
26030WAT     H278333   7.076   0.782   4.596
26031WAT      O78334   8.244   5.776   4.821
26031WAT     H178335   8.148   5.783   4.796
26031WAT     H278336   8.287   5.702   4.769
26032WAT      O78337   6.507   0.952   2.210
26032WAT     H178338   6.544   0.859   2.208
26032WAT     H278339   6.501   0.987   2.116
26033WAT      O78340   5.347   4.740   0.200
26033WAT     H178341   5.314   4.651   0.168
26033WAT     H278342   5.389   4.789   0.124
26034WAT      O78343   5.678   3.475   5.277
26034WAT     H178344   5.729   3.432   5.352
26034WAT     H278345   5.621   3.549   5.313
26035WAT      O78346   3.208   3.839   2.527
26035WAT     H178347   3.148   3.760   2.516
26035WAT     H278348   3.209   3.867   2.623
26036WAT      O78349   9.705   6.026   9.706
26036WAT     H178350   9.659   5.937   9.711
26036WAT     H278351   9.781   6.020   9.642
26037WAT      O78352   7.224   4.072   3.401
26037WAT     H178353   7.282   4.015   3.460
26037WAT     H278354   7.280   4.140   3.354
26038WAT      O78355   8.621   1.342   8.598
26038WAT     H178356   8.642   1.440   8.593
26038WAT     H278357   8.701   1.292   8.630
26039WAT      O78358   9.418   3.994   1.367
26039WAT     H178359   9.330   3.948   1.374
26039WAT     H278360   9.407   4.081   1.320
26040WAT      O78361   6.311   6.456   0.967
26040WAT     H178362   6.298   6.366   1.008
26040WAT     H278363   6.382   6.506   1.017
26041WAT      O78364   2.234   7.896   6.188
26041WAT     H178365   2.319   7.948   6.174
26041WAT     H278366   2.227   7.869   6.284
26042WAT      O78367   3.623   8.590   3.004
26042WAT     H178368   3.664   8.680   2.992
26042WAT     H278369   3.661   8.546   3.085
26043WAT      O78370   3.893   3.349   8.786
26043WAT     H178371   3.842   3.282   8.734
26043WAT     H278372   3.983   3.312   8.810
26044WAT      O78373   8.582   9.508   4.898
26044WAT     H178374   8.492   9.467   4.888
26044WAT     H278375   8.585   9.561   4.984
26045WAT      O78376   0.487   0.833   7.400
26045WAT     H178377   0.460   0.928   7.382
26045WAT     H278378   0.436   0.799   7.479
26046WAT      O78379   0.293   6.754   8.687
26046WAT     H178380   0.274   6.838   8.738
26046WAT     H278381   0.345   6.691   8.745
26047WAT      O78382   1.464   2.287   0.979
26047WAT     H178383   1.440   2.204   0.929
26047WAT     H278384   1.390   2.312   1.041
26048WAT      O78385   7.218   3.187   1.344
26048WAT     H178386   7.191   3.096   1.376
26048WAT     H278387   7.302   3.180   1.290
26049WAT      O78388   8.450   4.934   8.314
26049WAT     H178389   8.405   5.024   8.320
26049WAT     H278390   8.392   4.872   8.262
26050WAT      O78391   9.191   3.700   9.620
26050WAT     H178392   9.215   3.796   9.634
26050WAT     H278393   9.152   3.663   9.704
26051WAT      O78394   0.678   2.001   0.783
26051WAT     H178395   0.701   1.980   0.878
26051WAT     H278396   0.683   1.917   0.729
26052WAT      O78397   4.499   0.358   2.017
26052WAT     H178398   4.469   0.370   1.922
26052WAT     H278399   4.591   0.318   2.017
26053WAT      O78400   3.856   5.446   8.347
26053WAT     H178401   3.776   5.470   8.402
26053WAT     H278402   3.908   5.529   8.326
26054WAT      O78403   6.859   9.259   7.370
26054WAT     H178404   6.948   9.220   7.346
26054WAT     H278405   6.807   9.276   7.286
26055WAT      O78406   3.417   8.377   9.854
26055WAT     H178407   3.497   8.380   9.795
26055WAT     H278408   3.352   8.448   9.826
26056WAT      O78409   4.668   6.557   5.822
26056WAT     H178410   4.702   6.603   5.740
26056WAT     H278411   4.745   6.533   5.881
26057WAT      O78412   5.750   6.057   4.872
26057WAT     H178413   5.808   5.986   4.833
26057WAT     H278414   5.681   6.085   4.805
26058WAT      O78415   2.727   1.430   5.564
26058WAT     H178416   2.666   1.455   5.488
26058WAT     H278417   2.808   1.384   5.527
26059WAT      O78418   6.118   0.415   0.397
26059WAT     H178419   6.093   0.425   0.301
26059WAT     H278420   6.172   0.495   0.425
26060WAT      O78421   2.496   3.587   0.806
26060WAT     H178422   2.448   3.672   0.787
26060WAT     H278423   2.454   3.541   0.884
26061WAT      O78424   6.102   3.061   4.066
26061WAT     H178425   6.123   3.115   3.985
26061WAT     H278426   6.061   3.119   4.137
26062WAT      O78427   0.869   8.180   6.081
26062WAT     H178428   0.898   8.169   5.986
26062WAT     H278429   0.830   8.094   6.114
26063WAT      O78430   1.311   4.348   3.286
26063WAT     H178431   1.327   4.321   3.381
26063WAT     H278432   1.268   4.438   3.284
26064WAT      O78433   9.492   9.251   9.519
26064WAT     H178434   9.500   9.296   9.430
26064WAT     H278435   9.527   9.311   9.590
26065WAT      O78436   1.228   2.311   0.668
26065WAT     H178437   1.314   2.353   0.696
26065WAT     H278438   1.223   2.218   0.705
26066WAT      O78439   5.291   0.243   6.617
26066WAT     H178440   5.389   0.239   6.633
26066WAT     H278441   5.248   0.158   6.646
26067WAT      O78442   6.617   1.225   5.381
26067WAT     H178443   6.638   1.127   5.389
26067WAT     H278444   6.546   1.238   5.311
26068WAT      O78445   5.768   0.108   8.167
26068WAT     H178446   5.702   0.181   8.182
26068WAT     H278447   5.745   0.029   8.224
26069WAT      O78448   0.427   6.935   3.301
26069WAT     H178449   0.521   6.936   3.334
26069WAT     H278450   0.399   7.027   3.275
26070WAT      O78451   7.438   1.293   6.422
26070WAT     H178452   7.414   1.294   6.325
26070WAT     H278453   7.535   1.314   6.433
26071WAT      O78454   4.989   9.291   9.675
26071WAT     H178455   4.910   9.349   9.656
26071WAT     H278456   5.065   9.346   9.708
26072WAT      O78457   2.915   7.153   1.639
26072WAT     H178458   2.938   7.113   1.550
26072WAT     H278459   2.885   7.248   1.626
26073WAT      O78460   5.252   4.597   7.331
26073WAT     H178461   5.271   4.686   7.373
26073WAT     H278462   5.187   4.609   7.256
26074WAT      O78463   1.095   0.198   1.250
26074WAT     H178464   1.141   0.161   1.169
26074WAT     H278465   1.014   0.249   1.221
26075WAT      O78466   4.721   5.721   5.950
26075WAT     H178467   4.680   5.757   5.866
26075WAT     H278468   4.651   5.676   6.005
26076WAT      O78469   7.549   6.346   8.335
26076WAT     H178470   7.527   6.323   8.430
26076WAT     H278471   7.465   6.362   8.284
26077WAT      O78472   9.673   9.100   6.321
26077WAT     H178473   9.628   9.040   6.387
26077WAT     H278474   9.768   9.071   6.308
26078WAT      O78475   6.386   8.691   9.610
26078WAT     H178476   6.362   8.601   9.573
26078WAT     H278477   6.341   8.762   9.555
26079WAT      O78478   6.699   1.554   1.015
26079WAT     H178479   6.735   1.645   1.031
26079WAT     H278480   6.599   1.556   1.020
26080WAT      O78481   2.303   5.657   1.495
26080WAT     H178482   2.205   5.676   1.493
26080WAT     H278483   2.343   5.694   1.579
26081WAT      O78484   1.771   2.398   2.420
26081WAT     H178485   1.845   2.385   2.353
26081WAT     H278486   1.709   2.470   2.388
26082WAT      O78487   8.776   4.008   6.826
26082WAT     H178488   8.798   3.943   6.899
26082WAT     H278489   8.860   4.033   6.777
26083WAT      O78490   8.682   2.081   5.644
26083WAT     H178491   8.586   2.079   5.615
26083WAT     H278492   8.689   2.046   5.737
26084WAT      O78493   7.664   2.424   7.787
26084WAT     H178494   7.595   2.420   7.715
26084WAT     H278495   7.702   2.333   7.803
26085WAT      O78496   1.743   1.145   3.028
26085WAT     H178497   1.778   1.237   3.015
26085WAT     H278498   1.813   1.088   3.070
26086WAT      O78499   2.239   6.200   4.212
26086WAT     H178500   2.278   6.290   4.191
26086WAT     H278501   2.139   6.206   4.209
26087WAT      O78502   9.088   9.808   2.248
26087WAT     H178503   9.141   9.726   2.225
26087WAT     H278504   9.052   9.799   2.340
26088WAT      O78505   0.647   2.344   3.249
26088WAT     H178506   0.703   2.312   3.325
26088WAT     H278507   0.672   2.437   3.225
26089WAT      O78508   5.173   3.354   5.488
26089WAT     H178509   5.106   3.302   5.436
26089WAT     H278510   5.202   3.434   5.436
26090WAT      O78511   5.945   2.385   9.106
26090WAT     H178512   5.858   2.406   9.062
26090WAT     H278513   5.950   2.429   9.195
26091WAT      O78514   5.195   1.662   3.711
26091WAT     H178515   5.152   1.747   3.682
26091WAT     H278516   5.137   1.615   3.778
26092WAT      O78517   2.244   3.154   5.983
26092WAT     H178518   2.163   3.102   5.954
26092WAT     H278519   2.252   3.150   6.082
26093WAT      O78520   7.138   5.336   3.331
26093WAT     H178521   7.092   5.385   3.257
26093WAT     H278522   7.081   5.260   3.361
26094WAT      O78523   4.496   6.534   4.939
26094WAT     H178524   4.521   6.458   4.999
26094WAT     H278525   4.430   6.593   4.985
26095WAT      O78526   4.229   4.347   2.349
26095WAT     H178527   4.282   4.273   2.306
26095WAT     H278528   4.253   4.353   2.445
26096WAT      O78529   7.466   1.730   6.426
26096WAT     H178530   7.442   1.656   6.489
26096WAT     H278531   7.543   1.782   6.464
26097WAT      O78532   8.362   8.611   2.373
26097WAT     H178533   8.455   8.617   2.338
26097WAT     H278534   8.298   8.644   2.304
26098WAT      O78535   1.788   3.347   8.147
26098WAT     H178536   1.779   3.447   8.151
26098WAT     H278537   1.758   3.308   8.234
26099WAT      O78538   8.713   5.625   1.927
26099WAT     H178539   8.771   5.544   1.940
26099WAT     H278540   8.667   5.618   1.838
26100WAT      O78541   1.544   3.390   8.418
26100WAT     H178542   1.471   3.334   8.379
26100WAT     H278543   1.625   3.334   8.431
26101WAT      O78544   4.053   7.522   0.277
26101WAT     H178545   4.137   7.524   0.222
26101WAT     H278546   4.030   7.428   0.300
26102WAT      O78547   6.628   1.839   1.875
26102WAT     H178548   6.702   1.771   1.875
26102WAT     H278549   6.666   1.928   1.899
26103WAT      O78550   0.500   5.784   4.314
26103WAT     H178551   0.430   5.769   4.383
26103WAT     H278552   0.458   5.820   4.231
26104WAT      O78553   8.186   2.425   9.765
26104WAT     H178554   8.170   2.467   9.676
26104WAT     H278555   8.234   2.490   9.825
26105WAT      O78556   8.218   2.360   0.573
26105WAT     H178557   8.309   2.393   0.601
26105WAT     H278558   8.166   2.335   0.654
26106WAT      O78559   1.425   8.713   0.810
26106WAT     H178560   1.476   8.791   0.846
26106WAT     H278561   1.464   8.628   0.844
26107WAT      O78562   0.543   2.366   5.731
26107WAT     H178563   0.458   2.418   5.727
26107WAT     H278564   0.570   2.339   5.639
26108WAT      O78565   9.628   1.568   1.088
26108WAT     H178566   9.602   1.480   1.125
26108WAT     H278567   9.723   1.589   1.114
26109WAT      O78568   2.480   3.128   9.728
26109WAT     H178569   2.470   3.058   9.798
26109WAT     H278570   2.533   3.092   9.651
26110WAT      O78571   2.939   1.159   5.070
26110WAT     H178572   2.947   1.244   5.121
26110WAT     H278573   3.012   1.155   5.002
26111WAT      O78574   2.489   3.845   0.674
26111WAT     H178575   2.586   3.869   0.679
26111WAT     H278576   2.473   3.784   0.597
26112WAT      O78577   4.098   7.797   8.048
26112WAT     H178578   4.173   7.862   8.037
26112WAT     H278579   4.011   7.847   8.045
26113WAT      O78580   7.096   0.886   1.059
26113WAT     H178581   7.163   0.960   1.060
26113WAT     H278582   7.144   0.800   1.039
26114WAT      O78583   6.706   5.010   7.163
26114WAT     H178584   6.779   4.990   7.229
26114WAT     H278585   6.741   5.068   7.090
26115WAT      O78586   0.955   0.395   0.007
26115WAT     H178587   1.015   0.471   0.034
26115WAT     H278588   0.861   0.415   0.035
26116WAT      O78589   5.627   6.875   2.029
26116WAT     H178590   5.584   6.949   1.978
26116WAT     H278591   5.721   6.901   2.052
26117WAT      O78592   2.386   4.794   8.626
26117WAT     H178593   2.425   4.710   8.588
26117WAT     H278594   2.291   4.779   8.652
26118WAT      O78595   2.960   9.454   5.783
26118WAT     H178596   3.050   9.427   5.748
26118WAT     H278597   2.924   9.381   5.841
26119WAT      O78598   0.326   2.253   2.872
26119WAT     H178599   0.380   2.260   2.788
26119WAT     H278600   0.236   2.215   2.851
26120WAT      O78601   4.305   4.818   8.205
26120WAT     H178602   4.376   4.826   8.276
26120WAT     H278603   4.300   4.723   8.173
26121WAT      O78604   2.036   6.010   5.606
26121WAT     H178605   2.136   6.009   5.614
26121WAT     H278606   1.997   6.068   5.678
26122WAT      O78607   8.512   3.351   9.673
26122WAT     H178608   8.455   3.270   9.666
26122WAT     H278609   8.594   3.340   9.616
26123WAT      O78610   6.983   5.343   3.927
26123WAT     H178611   6.967   5.251   3.892
26123WAT     H278612   6.974   5.410   3.853
26124WAT      O78613   2.112   1.996   3.229
26124WAT     H178614   2.134   2.052   3.150
26124WAT     H278615   2.193   1.986   3.286
26125WAT      O78616   1.194   6.286   3.239
26125WAT     H178617   1.203   6.188   3.257
26125WAT     H278618   1.143   6.330   3.313
26126WAT      O78619   2.222   8.191   8.153
26126WAT     H178620   2.163   8.114   8.175
26126WAT     H278621   2.226   8.254   8.230
26127WAT      O78622   0.841   3.671   6.425
26127WAT     H178623   0.766   3.612   6.455
26127WAT     H278624   0.920   3.656   6.484
26128WAT      O78625   2.157   9.273   2.009
26128WAT     H178626   2.168   9.370   1.991
26128WAT     H278627   2.180   9.221   1.927
26129WAT      O78628   4.333   4.194   0.313
26129WAT     H178629   4.373   4.259   0.378
26129WAT     H278630   4.385   4.195   0.228
26130WAT      O78631   9.212   1.000   8.294
26130WAT     H178632   9.197   0.996   8.393
26130WAT     H278633   9.126   1.020   8.247
26131WAT      O78634   8.239   0.713   6.322
26131WAT     H178635   8.257   0.751   6.413
26131WAT     H278636   8.156   0.657   6.325
26132WAT      O78637   0.714   0.134   4.138
26132WAT     H178638   0.766   0.082   4.070
26132WAT     H278639   0.620   0.100   4.142
26133WAT      O78640   1.466   6.476   2.247
26133WAT     H178641   1.384   6.500   2.298
26133WAT     H278642   1.480   6.377   2.250
26134WAT      O78643   4.720   7.000   8.499
26134WAT     H178644   4.669   6.917   8.473
26134WAT     H278645   4.805   6.974   8.544
26135WAT      O78646   9.483   4.163   6.027
26135WAT     H178647   9.514   4.093   6.092
26135WAT     H278648   9.397   4.133   5.985
26136WAT      O78649   8.046   9.321   6.490
26136WAT     H178650   8.114   9.279   6.429
26136WAT     H278651   7.998   9.393   6.440
26137WAT      O78652   8.036   8.698   9.844
26137WAT     H178653   8.025   8.702   9.744
26137WAT     H278654   8.074   8.785   9.876
26138WAT      O78655   8.939   2.855   4.693
26138WAT     H178656   8.973   2.906   4.772
26138WAT     H278657   8.840   2.844   4.702
26139WAT      O78658   3.885   0.744   2.490
26139WAT     H178659   3.829   0.823   2.467
26139WAT     H278660   3.955   0.731   2.419
26140WAT      O78661   9.369   3.684   6.074
26140WAT     H178662   9.310   3.617   6.028
26140WAT     H278663   9.427   3.728   6.006
26141WAT      O78664   4.748   7.871   0.104
26141WAT     H178665   4.697   7.903   0.024
26141WAT     H278666   4.772   7.950   0.161
26142WAT      O78667   8.298   3.517   7.933
26142WAT     H178668   8.210   3.564   7.934
26142WAT     H278669   8.366   3.575   7.888
26143WAT      O78670   1.547   8.075   0.595
26143WAT     H178671   1.598   8.151   0.556
26143WAT     H278672   1.531   8.093   0.693
26144WAT      O78673   3.135   1.251   8.529
26144WAT     H178674   3.195   1.242   8.450
26144WAT     H278675   3.187   1.232   8.613
26145WAT      O78676   9.002   6.817   8.796
26145WAT     H178677   8.931   6.826   8.726
26145WAT     H278678   9.091   6.808   8.752
26146WAT      O78679   5.465   6.515   8.508
26146WAT     H178680   5.447   6.425   8.547
26146WAT     H278681   5.473   6.583   8.581
26147WAT      O78682   3.107   6.906   1.692
26147WAT     H178683   3.199   6.904   1.653
26147WAT     H278684   3.042   6.935   1.621
26148WAT      O78685   2.149   9.242   7.042
26148WAT     H178686   2.216   9.313   7.021
26148WAT     H278687   2.063   9.262   6.995
26149WAT      O78688   9.549   2.804   4.362
26149WAT     H178689   9.597   2.732   4.411
26149WAT     H278690   9.615   2.860   4.312
26150WAT      O78691   4.880   3.955   1.685
26150WAT     H178692   4.972   3.991   1.668
26150WAT     H278693   4.880   3.856   1.674
26151WAT      O78694   0.624   5.712   0.281
26151WAT     H178695   0.678   5.677   0.356
26151WAT     H278696   0.532   5.735   0.313
26152WAT      O78697   4.128   6.113   0.441
26152WAT     H178698   4.128   6.067   0.530
26152WAT     H278699   4.204   6.079   0.386
26153WAT      O78700   4.330   0.686   2.838
26153WAT     H178701   4.308   0.617   2.906
26153WAT     H278702   4.277   0.670   2.755
26154WAT      O78703   9.346   5.685   9.313
26154WAT     H178704   9.269   5.734   9.272
26154WAT     H278705   9.377   5.613   9.250
26155WAT      O78706   6.672   9.451   3.894
26155WAT     H178707   6.682   9.524   3.827
26155WAT     H278708   6.755   9.395   3.896
26156WAT      O78709   2.261   4.617   1.163
26156WAT     H178710   2.163   4.611   1.142
26156WAT     H278711   2.310   4.656   1.085
26157WAT      O78712   1.137   5.957   2.811
26157WAT     H178713   1.096   5.967   2.720
26157WAT     H278714   1.171   5.864   2.822
26158WAT      O78715   0.599   2.421   6.821
26158WAT     H178716   0.513   2.370   6.816
26158WAT     H278717   0.624   2.437   6.916
26159WAT      O78718   1.021   5.845   7.348
26159WAT     H178719   1.092   5.904   7.307
26159WAT     H278720   1.064   5.763   7.385
26160WAT      O78721   5.226   6.112   2.596
26160WAT     H178722   5.143   6.056   2.585
26160WAT     H278723   5.230   6.147   2.690
26161WAT      O78724   6.507   4.166   1.545
26161WAT     H178725   6.456   4.200   1.466
26161WAT     H278726   6.492   4.226   1.623
26162WAT      O78727   1.353   2.319   3.488
26162WAT     H178728   1.278   2.252   3.490
26162WAT     H278729   1.391   2.323   3.395
26163WAT      O78730   6.659   4.100   5.851
26163WAT     H178731   6.643   4.169   5.780
26163WAT     H278732   6.600   4.021   5.834
26164WAT      O78733   0.232   1.283   5.534
26164WAT     H178734   0.324   1.258   5.503
26164WAT     H278735   0.238   1.339   5.617
26165WAT      O78736   5.683   4.866   7.576
26165WAT     H178737   5.634   4.789   7.616
26165WAT     H278738   5.760   4.832   7.521
26166WAT      O78739   5.241   5.638   2.547
26166WAT     H178740   5.158   5.596   2.583
26166WAT     H278741   5.229   5.660   2.450
26167WAT      O78742   8.338   0.069   4.577
26167WAT     H178743   8.251   0.033   4.543
26167WAT     H278744   8.393  -0.006   4.615
26168WAT      O78745   6.602   4.958   3.934
26168WAT     H178746   6.590   4.954   3.835
26168WAT     H278747   6.557   4.879   3.976
26169WAT      O78748   2.844   5.680   0.607
26169WAT     H178749   2.793   5.630   0.537
26169WAT     H278750   2.942   5.678   0.584
26170WAT      O78751   1.811   4.603   2.849
26170WAT     H178752   1.871   4.670   2.893
26170WAT     H278753   1.719   4.639   2.843
26171WAT      O78754   5.667   2.674   6.977
26171WAT     H178755   5.647   2.709   7.069
26171WAT     H278756   5.612   2.722   6.910
26172WAT      O78757   2.248   3.532   9.872
26172WAT     H178758   2.277   3.458   9.811
26172WAT     H278759   2.256   3.620   9.824
26173WAT      O78760   1.663   9.203   8.702
26173WAT     H178761   1.656   9.195   8.603
26173WAT     H278762   1.593   9.145   8.745
26174WAT      O78763   9.125   1.240   6.586
26174WAT     H178764   9.083   1.328   6.608
26174WAT     H278765   9.218   1.238   6.622
26175WAT      O78766   0.518   1.897   2.312
26175WAT     H178767   0.503   1.853   2.401
26175WAT     H278768   0.534   1.827   2.242
26176WAT      O78769   3.667   0.891   0.063
26176WAT     H178770   3.741   0.958   0.074
26176WAT     H278771   3.580   0.933   0.092
26177WAT      O78772   7.822   1.132   0.112
26177WAT     H178773   7.821   1.032   0.109
26177WAT     H278774   7.796   1.169   0.023
26178WAT      O78775   6.107   5.087   7.741
26178WAT     H178776   6.114   5.120   7.647
26178WAT     H278777   6.043   5.010   7.744
26179WAT      O78778   3.235   2.745   9.792
26179WAT     H178779   3.174   2.725   9.716
26179WAT     H278780   3.235   2.668   9.856
26180WAT      O78781   3.797   3.006   0.466
26180WAT     H178782   3.752   2.930   0.421
26180WAT     H278783   3.849   3.059   0.399
26181WAT      O78784   1.265   5.882   7.993
26181WAT     H178785   1.265   5.890   8.093
26181WAT     H278786   1.179   5.917   7.957
26182WAT      O78787   6.197   8.369   1.152
26182WAT     H178788   6.132   8.411   1.215
26182WAT     H278789   6.149   8.303   1.094
26183WAT      O78790   2.133   9.031   8.463
26183WAT     H178791   2.097   8.944   8.427
26183WAT     H278792   2.071   9.066   8.533
26184WAT      O78793   6.944   2.288   8.259
26184WAT     H178794   6.955   2.207   8.202
26184WAT     H278795   6.893   2.263   8.342
26185WAT      O78796   7.338   8.430   3.733
26185WAT     H178797   7.290   8.387   3.657
26185WAT     H278798   7.272   8.463   3.800
26186WAT      O78799   7.158   9.732   5.255
26186WAT     H178800   7.125   9.819   5.292
26186WAT     H278801   7.258   9.731   5.258
26187WAT      O78802   4.491   6.624   3.769
26187WAT     H178803   4.408   6.588   3.726
26187WAT     H278804   4.572   6.587   3.722
26188WAT      O78805   2.413   5.817   0.874
26188WAT     H178806   2.480   5.757   0.831
26188WAT     H278807   2.460   5.893   0.919
26189WAT      O78808   1.613   7.511   4.450
26189WAT     H178809   1.663   7.589   4.487
26189WAT     H278810   1.637   7.428   4.501
26190WAT      O78811   1.793   5.923   6.064
26190WAT     H178812   1.759   5.941   6.157
26190WAT     H278813   1.887   5.956   6.056
26191WAT      O78814   8.696   6.944   7.120
26191WAT     H178815   8.681   7.039   7.148
26191WAT     H278816   8.793   6.926   7.109
26192WAT      O78817   5.035   6.571   7.413
26192WAT     H178818   5.085   6.485   7.408
26192WAT     H278819   5.081   6.639   7.355
26193WAT      O78820   7.785   8.578   3.307
26193WAT     H178821   7.789   8.514   3.384
26193WAT     H278822   7.697   8.625   3.308
26194WAT      O78823   6.441   4.873   3.227
26194WAT     H178824   6.508   4.814   3.273
26194WAT     H278825   6.488   4.940   3.170
26195WAT      O78826   8.878   2.725   5.051
26195WAT     H178827   8.884   2.643   5.107
26195WAT     H278828   8.926   2.710   4.964
26196WAT      O78829   9.607   0.955   9.491
26196WAT     H178830   9.686   0.971   9.433
26196WAT     H278831   9.637   0.927   9.582
26197WAT      O78832   8.034   0.711   7.700
26197WAT     H178833   8.018   0.725   7.798
26197WAT     H278834   8.095   0.633   7.687
26198WAT      O78835   2.826   6.209   8.939
26198WAT     H178836   2.822   6.261   9.024
26198WAT     H278837   2.921   6.190   8.915
26199WAT      O78838   9.781   9.820   0.843
26199WAT     H178839   9.816   9.728   0.862
26199WAT     H278840   9.686   9.813   0.812
26200WAT      O78841   7.352   9.625   8.630
26200WAT     H178842   7.302   9.711   8.631
26200WAT     H278843   7.287   9.549   8.632
26201WAT      O78844   2.234   7.764   5.531
26201WAT     H178845   2.232   7.693   5.602
26201WAT     H278846   2.150   7.818   5.535
26202WAT      O78847   5.917   1.490   9.215
26202WAT     H178848   5.850   1.444   9.274
26202WAT     H278849   6.005   1.442   9.221
26203WAT      O78850   7.683   9.609   7.897
26203WAT     H178851   7.761   9.555   7.928
26203WAT     H278852   7.655   9.671   7.969
26204WAT      O78853   5.362   3.572   4.184
26204WAT     H178854   5.435   3.510   4.212
26204WAT     H278855   5.273   3.528   4.199
26205WAT      O78856   1.587   0.162   9.449
26205WAT     H178857   1.571   0.170   9.547
26205WAT     H278858   1.563   0.249   9.404
26206WAT      O78859   5.942   6.098   8.607
26206WAT     H178860   6.022   6.039   8.616
26206WAT     H278861   5.860   6.046   8.631
26207WAT      O78862   7.700   8.888   9.845
26207WAT     H178863   7.689   8.928   9.936
26207WAT     H278864   7.782   8.830   9.843
26208WAT      O78865   5.274   5.593   1.063
26208WAT     H178866   5.302   5.689   1.060
26208WAT     H278867   5.180   5.587   1.098
26209WAT      O78868   3.195   5.395   0.522
26209WAT     H178869   3.122   5.332   0.497
26209WAT     H278870   3.224   5.447   0.441
26210WAT      O78871   3.475   0.776   4.965
26210WAT     H178872   3.378   0.751   4.972
26210WAT     H278873   3.528   0.697   4.936
26211WAT      O78874   8.654   9.789   3.531
26211WAT     H178875   8.562   9.829   3.528
26211WAT     H278876   8.682   9.777   3.626
26212WAT      O78877   1.390   0.028   5.053
26212WAT     H178878   1.311   0.010   5.112
26212WAT     H278879   1.423   0.121   5.068
26213WAT      O78880   3.937   9.364   7.072
26213WAT     H178881   3.977   9.432   7.011
26213WAT     H278882   4.010   9.322   7.127
26214WAT      O78883   7.634   0.412   0.943
26214WAT     H178884   7.656   0.473   1.019
26214WAT     H278885   7.695   0.333   0.945
26215WAT      O78886   9.488   2.654   9.299
26215WAT     H178887   9.522   2.745   9.275
26215WAT     H278888   9.456   2.608   9.216
26216WAT      O78889   4.769   3.603   4.127
26216WAT     H178890   4.735   3.612   4.034
26216WAT     H278891   4.857   3.650   4.135
26217WAT      O78892   4.892   3.381   0.351
26217WAT     H178893   4.959   3.415   0.416
26217WAT     H278894   4.939   3.335   0.275
26218WAT      O78895   5.203   1.729   5.986
26218WAT     H178896   5.176   1.642   5.945
26218WAT     H278897   5.129   1.763   6.045
26219WAT      O78898   2.382   5.626   9.732
26219WAT     H178899   2.434   5.592   9.653
26219WAT     H278900   2.322   5.553   9.766
26220WAT      O78901   9.745   5.277   7.572
26220WAT     H178902   9.777   5.366   7.541
26220WAT     H278903   9.815   5.233   7.628
26221WAT      O78904   9.763   8.214   9.132
26221WAT     H178905   9.682   8.181   9.181
26221WAT     H278906   9.801   8.293   9.179
26222WAT      O78907   8.328   9.065   6.004
26222WAT     H178908   8.392   9.121   5.951
26222WAT     H278909   8.235   9.083   5.975
26223WAT      O78910   5.483   0.031   2.660
26223WAT     H178911   5.531  -0.045   2.702
26223WAT     H278912   5.387   0.030   2.690
26224WAT      O78913   2.648   4.184   7.328
26224WAT     H178914   2.632   4.281   7.341
26224WAT     H278915   2.718   4.152   7.393
26225WAT      O78916   4.161   5.464   6.264
26225WAT     H178917   4.165   5.465   6.164
26225WAT     H278918   4.237   5.517   6.300
26226WAT      O78919   8.541   1.853   2.493
26226WAT     H178920   8.445   1.826   2.500
26226WAT     H278921   8.581   1.861   2.584
26227WAT      O78922   3.202   1.933   0.139
26227WAT     H178923   3.254   2.013   0.112
26227WAT     H278924   3.109   1.939   0.102
26228WAT      O78925   3.485   8.286   5.865
26228WAT     H178926   3.516   8.380   5.881
26228WAT     H278927   3.392   8.274   5.901
26229WAT      O78928   2.425   0.817   0.999
26229WAT     H178929   2.427   0.801   0.901
26229WAT     H278930   2.455   0.735   1.048
26230WAT      O78931   8.478   0.604   2.402
26230WAT     H178932   8.474   0.532   2.471
26230WAT     H278933   8.469   0.693   2.446
26231WAT      O78934   5.446   4.020   2.393
26231WAT     H178935   5.471   3.998   2.299
26231WAT     H278936   5.461   3.940   2.452
26232WAT      O78937   0.962   4.256   8.757
26232WAT     H178938   0.936   4.345   8.796
26232WAT     H278939   1.057   4.260   8.726
26233WAT      O78940   0.457   5.812   7.492
26233WAT     H178941   0.530   5.827   7.558
26233WAT     H278942   0.390   5.885   7.497
26234WAT      O78943   9.489   4.801   0.508
26234WAT     H178944   9.536   4.732   0.453
26234WAT     H278945   9.533   4.807   0.598
26235WAT      O78946   1.519   3.521   5.518
26235WAT     H178947   1.544   3.467   5.598
26235WAT     H278948   1.602   3.550   5.470
26236WAT      O78949   4.902   6.453   1.324
26236WAT     H178950   4.971   6.393   1.283
26236WAT     H278951   4.923   6.466   1.421
26237WAT      O78952   7.962   1.495   6.967
26237WAT     H178953   8.013   1.413   6.992
26237WAT     H278954   7.868   1.470   6.944
26238WAT      O78955   0.080   3.017   4.380
26238WAT     H178956   0.097   2.937   4.323
26238WAT     H278957   0.030   2.989   4.462
26239WAT      O78958   2.104   8.487   0.758
26239WAT     H178959   2.115   8.434   0.673
26239WAT     H278960   2.019   8.539   0.753
26240WAT      O78961   5.798   7.922   3.847
26240WAT     H178962   5.738   7.998   3.868
26240WAT     H278963   5.894   7.952   3.852
26241WAT      O78964   1.019   0.517   1.643
26241WAT     H178965   1.023   0.485   1.548
26241WAT     H278966   0.954   0.593   1.649
26242WAT      O78967   1.126   9.288   9.641
26242WAT     H178968   1.031   9.300   9.667
26242WAT     H278969   1.175   9.239   9.714
26243WAT      O78970   8.166   0.489   2.226
26243WAT     H178971   8.185   0.524   2.135
26243WAT     H278972   8.231   0.416   2.248
26244WAT      O78973   2.963   6.971   1.436
26244WAT     H178974   3.032   6.902   1.417
26244WAT     H278975   2.883   6.956   1.378
26245WAT      O78976   9.419   6.311   8.944
26245WAT     H178977   9.486   6.382   8.965
26245WAT     H278978   9.468   6.231   8.908
26246WAT      O78979   9.206   9.269   6.358
26246WAT     H178980   9.241   9.363   6.362
26246WAT     H278981   9.217   9.233   6.265
26247WAT      O78982   6.539   9.000   0.505
26247WAT     H178983   6.628   9.015   0.548
26247WAT     H278984   6.483   9.083   0.515
26248WAT      O78985   9.673   9.226   8.123
26248WAT     H178986   9.767   9.196   8.136
26248WAT     H278987   9.672   9.319   8.087
26249WAT      O78988   4.442   4.241   1.334
26249WAT     H178989   4.494   4.310   1.284
26249WAT     H278990   4.500   4.162   1.351
26250WAT      O78991   8.882   5.220   7.425
26250WAT     H178992   8.796   5.244   7.381
26250WAT     H278993   8.919   5.301   7.471
26251WAT      O78994   0.530   4.882   7.996
26251WAT     H178995   0.471   4.896   7.916
26251WAT     H278996   0.625   4.877   7.966
26252WAT      O78997   9.482   7.302   3.351
26252WAT     H178998   9.537   7.381   3.321
26252WAT     H278999   9.388   7.331   3.366
26253WAT      O79000   0.102   4.804   9.846
26253WAT     H179001   0.077   4.832   9.939
26253WAT     H279002   0.019   4.787   9.794
26254WAT      O79003   9.488   4.639   8.395
26254WAT     H179004   9.406   4.659   8.341
26254WAT     H279005   9.566   4.689   8.357
26255WAT      O79006   3.794   6.545   4.150
26255WAT     H179007   3.846   6.469   4.110
26255WAT     H279008   3.791   6.534   4.249
26256WAT      O79009   3.015   5.522   9.466
26256WAT     H179010   3.040   5.619   9.466
26256WAT     H279011   2.961   5.502   9.548
26257WAT      O79012   4.897   9.356   2.337
26257WAT     H179013   4.822   9.348   2.402
26257WAT     H279014   4.968   9.416   2.375
26258WAT      O79015   6.562   8.481   1.389
26258WAT     H179016   6.515   8.403   1.347
26258WAT     H279017   6.501   8.560   1.392
26259WAT      O79018   3.203   7.071   7.237
26259WAT     H179019   3.114   7.104   7.269
26259WAT     H279020   3.209   7.080   7.138
26260WAT      O79021   8.195   7.839   6.585
26260WAT     H179022   8.268   7.907   6.594
26260WAT     H279023   8.144   7.856   6.501
26261WAT      O79024   3.981   1.534   4.639
26261WAT     H179025   4.051   1.569   4.576
26261WAT     H279026   3.896   1.584   4.625
26262WAT      O79027   6.923   0.189   2.751
26262WAT     H179028   6.952   0.241   2.831
26262WAT     H279029   6.990   0.117   2.732
26263WAT      O79030   7.950   5.519   3.326
26263WAT     H179031   7.923   5.565   3.241
26263WAT     H279032   7.874   5.463   3.359
26264WAT      O79033   9.618   4.959   5.472
26264WAT     H179034   9.609   4.960   5.373
26264WAT     H279035   9.659   4.873   5.501
26265WAT      O79036   7.240   5.957   4.360
26265WAT     H179037   7.244   5.972   4.459
26265WAT     H279038   7.291   5.874   4.337
26266WAT      O79039   4.997   4.719   1.556
26266WAT     H179040   5.015   4.817   1.566
26266WAT     H279041   4.903   4.699   1.583
26267WAT      O79042   9.024   8.919   3.132
26267WAT     H179043   9.105   8.956   3.177
26267WAT     H279044   9.031   8.820   3.126
26268WAT      O79045   9.457   5.666   4.629
26268WAT     H179046   9.516   5.715   4.693
26268WAT     H279047   9.513   5.622   4.559
26269WAT      O79048   7.900   1.269   9.034
26269WAT     H179049   7.894   1.299   8.939
26269WAT     H279050   7.809   1.245   9.067
26270WAT      O79051   0.133   7.186   9.192
26270WAT     H179052   0.075   7.221   9.118
26270WAT     H279053   0.154   7.261   9.255
26271WAT      O79054   5.511   5.702   1.206
26271WAT     H179055   5.476   5.638   1.139
26271WAT     H279056   5.491   5.668   1.298
26272WAT      O79057   6.044   2.555   6.448
26272WAT     H179058   6.010   2.472   6.402
26272WAT     H279059   6.141   2.543   6.471
26273WAT      O79060   6.598   3.471   9.535
26273WAT     H179061   6.676   3.467   9.472
26273WAT     H279062   6.624   3.523   9.616
26274WAT      O79063   3.889   8.029   0.554
26274WAT     H179064   3.930   8.108   0.509
26274WAT     H279065   3.908   8.033   0.652
26275WAT      O79066   5.438   1.578   3.990
26275WAT     H179067   5.415   1.673   4.012
26275WAT     H279068   5.431   1.522   4.072
26276WAT      O79069   6.620   5.359   4.910
26276WAT     H179070   6.620   5.453   4.874
26276WAT     H279071   6.602   5.361   5.008
26277WAT      O79072   0.477   3.848   2.533
26277WAT     H179073   0.546   3.895   2.478
26277WAT     H279074   0.451   3.905   2.611
26278WAT      O79075   8.280   8.163   7.647
26278WAT     H179076   8.306   8.069   7.672
26278WAT     H279077   8.199   8.160   7.588
26279WAT      O79078   4.499   3.849   6.502
26279WAT     H179079   4.573   3.906   6.539
26279WAT     H279080   4.490   3.767   6.558
26280WAT      O79081   9.087   6.115   1.519
26280WAT     H179082   9.123   6.163   1.439
26280WAT     H279083   9.009   6.058   1.492
26281WAT      O79084   0.747   4.277   2.441
26281WAT     H179085   0.839   4.296   2.407
26281WAT     H279086   0.738   4.313   2.534
26282WAT      O79087   6.954   4.514   7.538
26282WAT     H179088   7.039   4.474   7.503
26282WAT     H279089   6.974   4.569   7.619
26283WAT      O79090   9.458   0.821   7.817
26283WAT     H179091   9.404   0.777   7.889
26283WAT     H279092   9.459   0.762   7.736
26284WAT      O79093   6.223   6.945   8.828
26284WAT     H179094   6.184   7.026   8.872
26284WAT     H279095   6.262   6.885   8.897
26285WAT      O79096   7.860   0.774   3.735
26285WAT     H179097   7.797   0.850   3.746
26285WAT     H279098   7.814   0.698   3.689
26286WAT      O79099   7.126   6.167   4.212
26286WAT     H179100   7.195   6.106   4.250
26286WAT     H279101   7.044   6.165   4.269
26287WAT      O79102   6.380   6.160   8.596
26287WAT     H179103   6.396   6.252   8.632
26287WAT     H279104   6.464   6.107   8.599
26288WAT      O79105   9.777   7.082   1.264
26288WAT     H179106   9.766   6.999   1.210
26288WAT     H279107   9.711   7.082   1.339
26289WAT      O79108   9.397   1.833   6.380
26289WAT     H179109   9.320   1.808   6.440
26289WAT     H279110   9.429   1.751   6.333
26290WAT      O79111   3.465   1.637   3.621
26290WAT     H179112   3.376   1.591   3.615
26290WAT     H279113   3.536   1.569   3.638
26291WAT      O79114   8.161   2.444   9.120
26291WAT     H179115   8.120   2.358   9.148
26291WAT     H279116   8.099   2.520   9.142
26292WAT      O79117   6.558   8.203   5.491
26292WAT     H179118   6.485   8.138   5.468
26292WAT     H279119   6.564   8.273   5.420
26293WAT      O79120   9.693   2.177   3.594
26293WAT     H179121   9.708   2.221   3.506
26293WAT     H279122   9.622   2.226   3.644
26294WAT      O79123   0.205   7.280   3.685
26294WAT     H179124   0.269   7.321   3.620
26294WAT     H279125   0.125   7.340   3.695
26295WAT      O79126   2.896   3.374   1.413
26295WAT     H179127   2.819   3.390   1.475
26295WAT     H279128   2.981   3.396   1.461
26296WAT      O79129   5.633   9.257   3.358
26296WAT     H179130   5.571   9.208   3.297
26296WAT     H279131   5.695   9.314   3.304
26297WAT      O79132   5.557   0.376   4.898
26297WAT     H179133   5.653   0.387   4.870
26297WAT     H279134   5.515   0.467   4.907
26298WAT      O79135   5.564   2.441   6.130
26298WAT     H179136   5.534   2.412   6.221
26298WAT     H279137   5.607   2.531   6.137
26299WAT      O79138   7.788   4.534   0.621
26299WAT     H179139   7.854   4.459   0.625
26299WAT     H279140   7.699   4.499   0.592
26300WAT      O79141   7.751   8.062   3.406
26300WAT     H179142   7.824   8.007   3.366
26300WAT     H279143   7.790   8.136   3.460
26301WAT      O79144   0.524   0.561   0.739
26301WAT     H179145   0.563   0.631   0.679
26301WAT     H279146   0.429   0.586   0.760
26302WAT      O79147   8.585   6.839   7.637
26302WAT     H179148   8.676   6.799   7.647
26302WAT     H279149   8.549   6.863   7.727
26303WAT      O79150   1.407   3.296   0.256
26303WAT     H179151   1.498   3.324   0.228
26303WAT     H279152   1.344   3.301   0.178
26304WAT      O79153   4.196   4.321   6.895
26304WAT     H179154   4.256   4.396   6.867
26304WAT     H279155   4.188   4.255   6.820
26305WAT      O79156   3.017   6.648   8.168
26305WAT     H179157   2.955   6.704   8.111
26305WAT     H279158   2.969   6.618   8.250
26306WAT      O79159   0.713   6.774   4.606
26306WAT     H179160   0.763   6.859   4.621
26306WAT     H279161   0.771   6.709   4.557
26307WAT      O79162   3.566   1.110   4.951
26307WAT     H179163   3.568   1.210   4.941
26307WAT     H279164   3.652   1.071   4.918
26308WAT      O79165   5.504   4.540   7.381
26308WAT     H179166   5.510   4.441   7.384
26308WAT     H279167   5.414   4.567   7.345
26309WAT      O79168   1.930   7.741   0.487
26309WAT     H179169   2.023   7.734   0.451
26309WAT     H279170   1.867   7.760   0.412
26310WAT      O79171   0.972   8.243   3.175
26310WAT     H179172   1.053   8.262   3.231
26310WAT     H279173   1.000   8.201   3.089
26311WAT      O79174   5.718   3.652   4.554
26311WAT     H179175   5.801   3.698   4.522
26311WAT     H279176   5.714   3.559   4.517
26312WAT      O79177   0.117   4.387   2.161
26312WAT     H179178   0.036   4.389   2.103
26312WAT     H279179   0.158   4.478   2.165
26313WAT      O79180   3.021   3.883   0.877
26313WAT     H179181   3.055   3.887   0.783
26313WAT     H279182   2.932   3.929   0.882
26314WAT      O79183   5.933   6.208   5.773
26314WAT     H179184   5.863   6.180   5.838
26314WAT     H279185   5.997   6.271   5.819
26315WAT      O79186   4.054   7.057   9.179
26315WAT     H179187   4.117   6.981   9.165
26315WAT     H279188   4.007   7.046   9.267
26316WAT      O79189   1.142   2.624   8.026
26316WAT     H179190   1.073   2.553   8.010
26316WAT     H279191   1.205   2.593   8.098
26317WAT      O79192   5.897   4.527   7.802
26317WAT     H179193   5.898   4.568   7.893
26317WAT     H279194   5.814   4.471   7.791
26318WAT      O79195   3.685   1.756   2.280
26318WAT     H179196   3.706   1.666   2.243
26318WAT     H279197   3.660   1.818   2.206
26319WAT      O79198   2.422   7.459   9.555
26319WAT     H179199   2.498   7.393   9.552
26319WAT     H279200   2.336   7.409   9.570
26320WAT      O79201   5.727   1.676   7.588
26320WAT     H179202   5.762   1.641   7.501
26320WAT     H279203   5.725   1.776   7.586
26321WAT      O79204   3.164   6.943   3.316
26321WAT     H179205   3.103   6.977   3.387
26321WAT     H279206   3.148   6.995   3.231
26322WAT      O79207   4.925   1.168   7.046
26322WAT     H179208   4.986   1.122   7.110
26322WAT     H279209   4.972   1.182   6.959
26323WAT      O79210   9.278   6.879   2.568
26323WAT     H179211   9.198   6.834   2.529
26323WAT     H279212   9.249   6.957   2.624
26324WAT      O79213   4.846   8.232   2.067
26324WAT     H179214   4.855   8.239   2.166
26324WAT     H279215   4.755   8.263   2.039
26325WAT      O79216   6.945   4.939   9.411
26325WAT     H179217   7.022   4.951   9.473
26325WAT     H279218   6.868   4.899   9.462
26326WAT      O79219   9.360   6.614   7.754
26326WAT     H179220   9.413   6.636   7.835
26326WAT     H279221   9.382   6.679   7.681
26327WAT      O79222   4.452   5.145   5.193
26327WAT     H179223   4.440   5.225   5.134
26327WAT     H279224   4.429   5.062   5.142
26328WAT      O79225   3.370   2.488   5.572
26328WAT     H179226   3.361   2.396   5.612
26328WAT     H279227   3.290   2.507   5.516
26329WAT      O79228   6.903   9.117   2.369
26329WAT     H179229   6.916   9.104   2.467
26329WAT     H279230   6.991   9.138   2.326
26330WAT      O79231   1.939   9.358   3.599
26330WAT     H179232   1.975   9.450   3.610
26330WAT     H279233   2.009   9.291   3.623
26331WAT      O79234   2.615   1.821   2.095
26331WAT     H179235   2.676   1.848   2.170
26331WAT     H279236   2.637   1.728   2.066
26332WAT      O79237   3.915   8.674   1.314
26332WAT     H179238   3.970   8.713   1.240
26332WAT     H279239   3.945   8.580   1.331
26333WAT      O79240   4.736   6.521   3.695
26333WAT     H179241   4.809   6.480   3.640
26333WAT     H279242   4.751   6.620   3.702
26334WAT      O79243   3.838   8.935   2.730
26334WAT     H179244   3.785   8.931   2.645
26334WAT     H279245   3.796   9.001   2.792
26335WAT      O79246   5.300   4.917   3.394
26335WAT     H179247   5.399   4.920   3.382
26335WAT     H279248   5.265   5.009   3.405
26336WAT      O79249   3.236   7.441   1.330
26336WAT     H179250   3.279   7.520   1.287
26336WAT     H279251   3.225   7.368   1.263
26337WAT      O79252   0.137   8.114   1.911
26337WAT     H179253   0.134   8.036   1.849
26337WAT     H279254   0.066   8.103   1.982
26338WAT      O79255   8.514   6.886   7.373
26338WAT     H179256   8.556   6.884   7.464
26338WAT     H279257   8.585   6.885   7.303
26339WAT      O79258   1.900   4.271   7.144
26339WAT     H179259   1.873   4.321   7.227
26339WAT     H279260   1.901   4.334   7.066
26340WAT      O79261   5.811   7.926   9.725
26340WAT     H179262   5.892   7.971   9.687
26340WAT     H279263   5.798   7.954   9.820
26341WAT      O79264   6.970   7.673   6.990
26341WAT     H179265   6.897   7.646   6.927
26341WAT     H279266   6.967   7.613   7.070
26342WAT      O79267   7.856   6.550   3.436
26342WAT     H179268   7.765   6.567   3.397
26342WAT     H279269   7.859   6.459   3.476
26343WAT      O79270   9.251   5.314   7.882
26343WAT     H179271   9.181   5.258   7.838
26343WAT     H279272   9.336   5.309   7.829
26344WAT      O79273   0.356   4.373   8.508
26344WAT     H179274   0.266   4.381   8.466
26344WAT     H279275   0.361   4.288   8.560
26345WAT      O79276   4.702   8.750   3.536
26345WAT     H179277   4.747   8.750   3.625
26345WAT     H279278   4.642   8.670   3.529
26346WAT      O79279   3.675   5.630   2.315
26346WAT     H179280   3.592   5.575   2.327
26346WAT     H279281   3.755   5.570   2.318
26347WAT      O79282   6.932   9.828   6.075
26347WAT     H179283   6.856   9.826   6.139
26347WAT     H279284   6.905   9.784   5.989
26348WAT      O79285   2.871   0.329   7.953
26348WAT     H179286   2.957   0.362   7.914
26348WAT     H279287   2.809   0.303   7.880
26349WAT      O79288   6.022   0.939   7.421
26349WAT     H179289   6.114   0.964   7.390
26349WAT     H279290   5.969   1.022   7.440
26350WAT      O79291   7.229   5.414   0.336
26350WAT     H179292   7.321   5.435   0.301
26350WAT     H279293   7.220   5.315   0.347
26351WAT      O79294   9.731   9.583   2.285
26351WAT     H179295   9.815   9.553   2.330
26351WAT     H279296   9.752   9.651   2.215
26352WAT      O79297   7.274   3.258   7.429
26352WAT     H179298   7.354   3.232   7.374
26352WAT     H279299   7.252   3.354   7.413
26353WAT      O79300   0.067   0.129   5.677
26353WAT     H179301   0.075   0.216   5.628
26353WAT     H279302   0.157   0.103   5.713
26354WAT      O79303   6.544   0.976   8.428
26354WAT     H179304   6.641   0.998   8.427
26354WAT     H279305   6.532   0.878   8.440
26355WAT      O79306   9.798   7.408   7.844
26355WAT     H179307   9.879   7.408   7.902
26355WAT     H279308   9.750   7.320   7.853
26356WAT      O79309   4.644   4.196   2.474
26356WAT     H179310   4.600   4.118   2.519
26356WAT     H279311   4.641   4.276   2.534
26357WAT      O79312   9.500   6.211   2.364
26357WAT     H179313   9.485   6.113   2.380
26357WAT     H279314   9.584   6.240   2.408
26358WAT      O79315   7.325   0.321   8.873
26358WAT     H179316   7.276   0.404   8.845
26358WAT     H279317   7.349   0.327   8.970
26359WAT      O79318   1.531   4.248   6.046
26359WAT     H179319   1.575   4.309   5.980
26359WAT     H279320   1.493   4.169   5.999
26360WAT      O79321   9.759   3.621   5.454
26360WAT     H179322   9.690   3.564   5.498
26360WAT     H279323   9.809   3.566   5.387
26361WAT      O79324   6.106   0.734   6.802
26361WAT     H179325   6.095   0.711   6.898
26361WAT     H279326   6.203   0.743   6.781
26362WAT      O79327   6.249   4.851   8.441
26362WAT     H179328   6.232   4.762   8.483
26362WAT     H279329   6.326   4.844   8.378
26363WAT      O79330   9.226   5.137   6.314
26363WAT     H179331   9.236   5.084   6.398
26363WAT     H279332   9.220   5.234   6.336
26364WAT      O79333   4.491   1.775   3.254
26364WAT     H179334   4.566   1.708   3.251
26364WAT     H279335   4.505   1.838   3.330
26365WAT      O79336   6.451   3.751   0.324
26365WAT     H179337   6.537   3.716   0.286
26365WAT     H279338   6.436   3.844   0.291
26366WAT      O79339   8.754   7.902   9.401
26366WAT     H179340   8.752   7.917   9.500
26366WAT     H279341   8.816   7.968   9.358
26367WAT      O79342   0.538   2.611   5.079
26367WAT     H179343   0.552   2.567   4.990
26367WAT     H279344   0.589   2.697   5.082
26368WAT      O79345   9.633   2.386   2.391
26368WAT     H179346   9.601   2.342   2.474
26368WAT     H279347   9.730   2.408   2.399
26369WAT      O79348   6.167   5.902   8.165
26369WAT     H179349   6.252   5.898   8.111
26369WAT     H279350   6.142   5.998   8.180
26370WAT      O79351   2.289   4.011   9.325
26370WAT     H179352   2.304   4.059   9.239
26370WAT     H279353   2.195   3.976   9.328
26371WAT      O79354   9.126   8.053   2.247
26371WAT     H179355   9.223   8.043   2.224
26371WAT     H279356   9.118   8.096   2.337
26372WAT      O79357   5.446   0.946   0.767
26372WAT     H179358   5.521   0.950   0.832
26372WAT     H279359   5.359   0.960   0.815
26373WAT      O79360   3.210   4.576   7.324
26373WAT     H179361   3.220   4.596   7.422
26373WAT     H279362   3.292   4.606   7.276
26374WAT      O79363   9.854   7.620   1.592
26374WAT     H179364   9.895   7.646   1.679
26374WAT     H279365   9.893   7.533   1.562
26375WAT      O79366   6.216   6.214   3.010
26375WAT     H179367   6.174   6.141   3.063
26375WAT     H279368   6.308   6.188   2.983
26376WAT      O79369   7.816   2.741   5.355
26376WAT     H179370   7.814   2.750   5.256
26376WAT     H279371   7.880   2.807   5.394
26377WAT      O79372   5.662   9.212   6.247
26377WAT     H179373   5.726   9.275   6.202
26377WAT     H279374   5.572   9.221   6.206
26378WAT      O79375   2.133   6.991   6.103
26378WAT     H179376   2.139   7.029   6.195
26378WAT     H279377   2.194   6.911   6.095
26379WAT      O79378   3.096   5.479   9.830
26379WAT     H179379   3.147   5.415   9.771
26379WAT     H279380   3.030   5.428   9.885
26380WAT      O79381   3.225   8.048   8.332
26380WAT     H179382   3.171   8.111   8.276
26380WAT     H279383   3.167   8.008   8.403
26381WAT      O79384   1.597   9.825   6.539
26381WAT     H179385   1.635   9.872   6.619
26381WAT     H279386   1.510   9.783   6.564
26382WAT      O79387   1.336   2.590   6.692
26382WAT     H179388   1.245   2.567   6.728
26382WAT     H279389   1.382   2.654   6.754
26383WAT      O79390   0.050   9.742   5.516
26383WAT     H179391   0.036   9.664   5.577
26383WAT     H279392   0.069   9.824   5.571
26384WAT      O79393   2.553   9.718   3.476
26384WAT     H179394   2.557   9.817   3.489
26384WAT     H279395   2.551   9.697   3.378
26385WAT      O79396   3.848   9.177   8.520
26385WAT     H179397   3.762   9.131   8.497
26385WAT     H279398   3.836   9.276   8.513
26386WAT      O79399   0.774   4.225   5.264
26386WAT     H179400   0.742   4.156   5.329
26386WAT     H279401   0.812   4.303   5.313
26387WAT      O79402   7.692   6.708   2.100
26387WAT     H179403   7.765   6.693   2.034
26387WAT     H279404   7.617   6.644   2.082
26388WAT      O79405   8.875   1.828   2.281
26388WAT     H179406   8.951   1.770   2.309
26388WAT     H279407   8.793   1.773   2.269
26389WAT      O79408   7.102   3.049   6.232
26389WAT     H179409   7.121   2.953   6.211
26389WAT     H279410   7.003   3.064   6.232
26390WAT      O79411   5.892   6.716   0.290
26390WAT     H179412   5.859   6.763   0.372
26390WAT     H279413   5.976   6.760   0.257
26391WAT      O79414   4.396   1.865   0.541
26391WAT     H179415   4.436   1.818   0.620
26391WAT     H279416   4.316   1.814   0.509
26392WAT      O79417   6.989   1.935   5.754
26392WAT     H179418   7.057   1.900   5.818
26392WAT     H279419   6.947   2.018   5.792
26393WAT      O79420   5.315   2.008   3.814
26393WAT     H179421   5.376   2.065   3.868
26393WAT     H279422   5.369   1.948   3.754
26394WAT      O79423   7.152   0.934   5.903
26394WAT     H179424   7.195   0.903   5.819
26394WAT     H279425   7.198   1.017   5.935
26395WAT      O79426   3.078   0.883   8.506
26395WAT     H179427   3.014   0.809   8.527
26395WAT     H279428   3.151   0.884   8.575
26396WAT      O79429   6.634   8.857   1.141
26396WAT     H179430   6.539   8.859   1.111
26396WAT     H279431   6.688   8.803   1.077
26397WAT      O79432   2.225   1.128   7.446
26397WAT     H179433   2.154   1.198   7.443
26397WAT     H279434   2.190   1.047   7.493
26398WAT      O79435   0.587   9.404   4.752
26398WAT     H179436   0.539   9.420   4.666
26398WAT     H279437   0.542   9.454   4.826
26399WAT      O79438   0.032   7.581   9.605
26399WAT     H179439  -0.023   7.498   9.595
26399WAT     H279440   0.105   7.565   9.671
26400WAT      O79441   3.911   0.419   4.522
26400WAT     H179442   3.927   0.518   4.525
26400WAT     H279443   3.903   0.384   4.615
26401WAT      O79444   7.365   8.524   1.151
26401WAT     H179445   7.342   8.445   1.209
26401WAT     H279446   7.425   8.586   1.202
26402WAT      O79447   0.940   3.186   0.053
26402WAT     H179448   0.903   3.151  -0.033
26402WAT     H279449   0.911   3.280   0.066
26403WAT      O79450   4.895   1.961   1.364
26403WAT     H179451   4.838   1.983   1.443
26403WAT     H279452   4.841   1.969   1.281
26404WAT      O79453   2.206   5.317   8.636
26404WAT     H179454   2.196   5.404   8.684
26404WAT     H279455   2.267   5.257   8.687
26405WAT      O79456   2.520   0.847   1.719
26405WAT     H179457   2.506   0.927   1.661
26405WAT     H279458   2.520   0.875   1.815
26406WAT      O79459   7.138   7.011   6.400
26406WAT     H179460   7.144   6.959   6.485
26406WAT     H279461   7.204   7.086   6.403
26407WAT      O79462   4.465   8.902   5.918
26407WAT     H179463   4.484   9.000   5.932
26407WAT     H279464   4.405   8.870   5.991
26408WAT      O79465   6.141   3.753   2.597
26408WAT     H179466   6.171   3.781   2.688
26408WAT     H279467   6.217   3.709   2.549
26409WAT      O79468   5.996   5.314   7.885
26409WAT     H179469   6.061   5.246   7.852
26409WAT     H279470   6.015   5.335   7.980
26410WAT      O79471   7.032   5.793   7.522
26410WAT     H179472   7.114   5.777   7.576
26410WAT     H279473   6.991   5.880   7.549
26411WAT      O79474   7.051   4.854   2.902
26411WAT     H179475   6.999   4.901   2.831
26411WAT     H279476   6.989   4.819   2.972
26412WAT      O79477   7.408   3.229   8.848
26412WAT     H179478   7.438   3.140   8.884
26412WAT     H279479   7.441   3.301   8.909
26413WAT      O79480   3.841   9.757   5.774
26413WAT     H179481   3.936   9.738   5.751
26413WAT     H279482   3.812   9.840   5.727
26414WAT      O79483   5.817   1.783   3.112
26414WAT     H179484   5.893   1.734   3.156
26414WAT     H279485   5.750   1.810   3.182
26415WAT      O79486   7.196   7.550   1.175
26415WAT     H179487   7.188   7.487   1.252
26415WAT     H279488   7.213   7.497   1.091
26416WAT      O79489   4.715   6.959   5.788
26416WAT     H179490   4.658   6.896   5.841
26416WAT     H279491   4.732   7.042   5.841
26417WAT      O79492   7.255   2.067   9.740
26417WAT     H179493   7.264   2.158   9.699
26417WAT     H279494   7.160   2.038   9.736
26418WAT      O79495   6.280   9.741   3.570
26418WAT     H179496   6.372   9.703   3.582
26418WAT     H279497   6.248   9.722   3.478
26419WAT      O79498   2.382   8.172   3.303
26419WAT     H179499   2.373   8.078   3.270
26419WAT     H279500   2.342   8.234   3.236
26420WAT      O79501   9.546   4.503   0.240
26420WAT     H179502   9.474   4.449   0.283
26420WAT     H279503   9.633   4.456   0.249
26421WAT      O79504   9.081   5.092   8.237
26421WAT     H179505   9.124   5.176   8.269
26421WAT     H279506   9.152   5.026   8.212
26422WAT      O79507   9.130   9.488   2.120
26422WAT     H179508   9.056   9.429   2.091
26422WAT     H279509   9.200   9.434   2.166
26423WAT      O79510   1.247   4.597   0.929
26423WAT     H179511   1.173   4.553   0.879
26423WAT     H279512   1.212   4.676   0.979
26424WAT      O79513   1.654   4.355   1.565
26424WAT     H179514   1.716   4.278   1.551
26424WAT     H279515   1.707   4.435   1.597
26425WAT      O79516   7.625   7.338   0.847
26425WAT     H179517   7.552   7.295   0.795
26425WAT     H279518   7.688   7.384   0.784
26426WAT      O79519   1.144   7.171   3.973
26426WAT     H179520   1.212   7.098   3.972
26426WAT     H279521   1.090   7.166   4.057
26427WAT      O79522   7.005   1.985   7.433
26427WAT     H179523   6.933   2.007   7.367
26427WAT     H279524   6.963   1.954   7.518
26428WAT      O79525   3.889   3.431   9.816
26428WAT     H179526   3.881   3.378   9.731
26428WAT     H279527   3.804   3.422   9.868
26429WAT      O79528   3.074   6.354   9.068
26429WAT     H179529   3.095   6.257   9.083
26429WAT     H279530   3.118   6.409   9.140
26430WAT      O79531   9.603   1.785   0.387
26430WAT     H179532   9.681   1.738   0.346
26430WAT     H279533   9.630   1.829   0.472
26431WAT      O79534   9.182   2.662   2.306
26431WAT     H179535   9.273   2.622   2.293
26431WAT     H279536   9.145   2.631   2.393
26432WAT      O79537   0.839   1.982   0.230
26432WAT     H179538   0.872   2.071   0.198
26432WAT     H279539   0.914   1.933   0.274
26433WAT      O79540   6.649   4.128   9.633
26433WAT     H179541   6.596   4.104   9.552
26433WAT     H279542   6.715   4.055   9.653
26434WAT      O79543   9.614   9.753   6.410
26434WAT     H179544   9.608   9.789   6.317
26434WAT     H279545   9.598   9.827   6.475
26435WAT      O79546   0.549   9.574   6.742
26435WAT     H179547   0.532   9.629   6.660
26435WAT     H279548   0.647   9.570   6.760
26436WAT      O79549   5.122   2.487   8.037
26436WAT     H179550   5.131   2.505   8.135
26436WAT     H279551   5.120   2.573   7.987
26437WAT      O79552   9.315   3.920   1.895
26437WAT     H179553   9.355   3.833   1.923
26437WAT     H279554   9.286   3.971   1.976
26438WAT      O79555   1.520   3.733   3.450
26438WAT     H179556   1.543   3.636   3.454
26438WAT     H279557   1.509   3.769   3.543
26439WAT      O79558   4.833   3.179   5.089
26439WAT     H179559   4.838   3.201   4.991
26439WAT     H279560   4.752   3.222   5.129
26440WAT      O79561   9.773   3.309   0.867
26440WAT     H179562   9.852   3.281   0.921
26440WAT     H279563   9.802   3.331   0.774
26441WAT      O79564   3.082   7.167   1.862
26441WAT     H179565   3.064   7.117   1.947
26441WAT     H279566   3.036   7.120   1.786
26442WAT      O79567   6.478   8.090   9.055
26442WAT     H179568   6.483   8.126   8.962
26442WAT     H279569   6.479   8.166   9.120
26443WAT      O79570   1.255   8.734   0.561
26443WAT     H179571   1.244   8.821   0.514
26443WAT     H279572   1.320   8.743   0.636
26444WAT      O79573   5.792   3.929   7.920
26444WAT     H179574   5.798   3.864   7.844
26444WAT     H279575   5.807   3.879   8.006
26445WAT      O79576   0.583   7.451   9.802
26445WAT     H179577   0.545   7.536   9.837
26445WAT     H279578   0.532   7.422   9.721
26446WAT      O79579   9.051   9.576   7.267
26446WAT     H179580   9.150   9.593   7.269
26446WAT     H279581   9.005   9.636   7.332
26447WAT      O79582   6.852   3.083   2.239
26447WAT     H179583   6.809   3.031   2.165
26447WAT     H279584   6.880   3.173   2.203
26448WAT      O79585   9.090   1.762   4.950
26448WAT     H179586   9.070   1.674   4.993
26448WAT     H279587   9.179   1.759   4.905
26449WAT      O79588   6.716   2.613   6.663
26449WAT     H179589   6.712   2.640   6.759
26449WAT     H279590   6.761   2.685   6.611
26450WAT      O79591   6.524   9.808   4.642
26450WAT     H179592   6.580   9.883   4.677
26450WAT     H279593   6.427   9.831   4.651
26451WAT      O79594   6.976   2.306   3.089
26451WAT     H179595   6.909   2.322   3.016
26451WAT     H279596   7.058   2.264   3.050
26452WAT      O79597   7.644   1.263   0.614
26452WAT     H179598   7.619   1.187   0.555
26452WAT     H279599   7.675   1.340   0.559
26453WAT      O79600   4.369   6.173   9.061
26453WAT     H179601   4.321   6.196   8.977
26453WAT     H279602   4.438   6.103   9.043
26454WAT      O79603   7.618   1.998   4.449
26454WAT     H179604   7.622   2.069   4.379
26454WAT     H279605   7.699   1.941   4.443
26455WAT      O79606   3.360   5.612   3.745
26455WAT     H179607   3.277   5.561   3.771
26455WAT     H279608   3.428   5.548   3.710
26456WAT      O79609   6.669   0.518   3.479
26456WAT     H179610   6.719   0.519   3.565
26456WAT     H279611   6.671   0.609   3.438
26457WAT      O79612   7.558   6.696   0.836
26457WAT     H179613   7.554   6.626   0.765
26457WAT     H279614   7.576   6.785   0.794
26458WAT      O79615   9.825   5.232   7.225
26458WAT     H179616   9.732   5.259   7.199
26458WAT     H279617   9.861   5.168   7.156
26459WAT      O79618   5.870   2.850   3.757
26459WAT     H179619   5.879   2.947   3.737
26459WAT     H279620   5.885   2.834   3.855
26460WAT      O79621   2.875   8.102   1.037
26460WAT     H179622   2.960   8.056   1.014
26460WAT     H279623   2.799   8.060   0.987
26461WAT      O79624   0.514   3.213   8.390
26461WAT     H179625   0.445   3.259   8.335
26461WAT     H279626   0.574   3.281   8.432
26462WAT      O79627   8.396   8.631   7.412
26462WAT     H179628   8.351   8.542   7.417
26462WAT     H279629   8.488   8.624   7.451
26463WAT      O79630   1.985   7.128   6.922
26463WAT     H179631   1.885   7.136   6.918
26463WAT     H279632   2.022   7.125   6.829
26464WAT      O79633   8.753   0.452   2.586
26464WAT     H179634   8.682   0.384   2.606
26464WAT     H279635   8.715   0.544   2.597
26465WAT      O79636   7.258   7.051   7.307
26465WAT     H179637   7.189   7.090   7.369
26465WAT     H279638   7.294   6.967   7.346
26466WAT      O79639   9.337   9.557   7.318
26466WAT     H179640   9.416   9.540   7.377
26466WAT     H279641   9.366   9.559   7.223
26467WAT      O79642   4.517   4.973   2.585
26467WAT     H179643   4.520   4.965   2.485
26467WAT     H279644   4.597   4.928   2.625
26468WAT      O79645   9.858   4.887   2.005
26468WAT     H179646   9.856   4.987   2.008
26468WAT     H279647   9.787   4.850   2.065
26469WAT      O79648   1.103   6.066   2.090
26469WAT     H179649   1.120   6.065   2.189
26469WAT     H279650   1.077   6.158   2.061
26470WAT      O79651   0.709   4.715   7.025
26470WAT     H179652   0.798   4.688   7.061
26470WAT     H279653   0.700   4.815   7.031
26471WAT      O79654   1.399   1.649   3.204
26471WAT     H179655   1.445   1.719   3.149
26471WAT     H279656   1.393   1.564   3.151
26472WAT      O79657   2.691   7.698   0.459
26472WAT     H179658   2.662   7.725   0.551
26472WAT     H279659   2.789   7.674   0.461
26473WAT      O79660   3.275   0.948   7.529
26473WAT     H179661   3.362   0.974   7.485
26473WAT     H279662   3.246   0.859   7.494
26474WAT      O79663   8.295   4.736   5.857
26474WAT     H179664   8.341   4.779   5.935
26474WAT     H279665   8.347   4.657   5.826
26475WAT      O79666   9.290   4.005   4.657
26475WAT     H179667   9.313   3.911   4.633
26475WAT     H279668   9.209   4.034   4.606
26476WAT      O79669   9.673   1.366   8.469
26476WAT     H179670   9.674   1.433   8.543
26476WAT     H279671   9.767   1.336   8.451
26477WAT      O79672   3.826   7.544   2.480
26477WAT     H179673   3.873   7.627   2.507
26477WAT     H279674   3.893   7.475   2.450
26478WAT      O79675   4.009   9.741   4.587
26478WAT     H179676   4.086   9.797   4.556
26478WAT     H279677   4.011   9.652   4.540
26479WAT      O79678   2.753   4.479   2.315
26479WAT     H179679   2.761   4.545   2.241
26479WAT     H279680   2.721   4.391   2.280
26480WAT      O79681   0.979   1.721   8.694
26480WAT     H179682   1.011   1.669   8.615
26480WAT     H279683   0.920   1.664   8.751
26481WAT      O79684   5.361   6.241   5.491
26481WAT     H179685   5.308   6.292   5.560
26481WAT     H279686   5.301   6.217   5.415
26482WAT      O79687   6.003   3.477   8.956
26482WAT     H179688   5.990   3.462   8.858
26482WAT     H279689   5.921   3.448   9.006
26483WAT      O79690   1.977   4.846   3.785
26483WAT     H179691   1.991   4.945   3.783
26483WAT     H279692   2.063   4.799   3.763
26484WAT      O79693   7.705   4.437   9.305
26484WAT     H179694   7.652   4.521   9.303
26484WAT     H279695   7.757   4.428   9.220
26485WAT      O79696   7.646   1.703   1.317
26485WAT     H179697   7.694   1.717   1.403
26485WAT     H279698   7.564   1.647   1.333
26486WAT      O79699   9.101   5.567   8.794
26486WAT     H179700   9.116   5.632   8.719
26486WAT     H279701   9.088   5.616   8.879
26487WAT      O79702   2.586   4.583   4.675
26487WAT     H179703   2.513   4.542   4.621
26487WAT     H279704   2.670   4.587   4.621
26488WAT      O79705   9.406   2.588   5.532
26488WAT     H179706   9.356   2.502   5.543
26488WAT     H279707   9.352   2.663   5.569
26489WAT      O79708   1.899   8.789   8.167
26489WAT     H179709   1.960   8.749   8.099
26489WAT     H279710   1.946   8.797   8.254
26490WAT      O79711   2.036   8.530   8.353
26490WAT     H179712   2.112   8.476   8.315
26490WAT     H279713   1.950   8.482   8.337
26491WAT      O79714   2.755   6.652   6.591
26491WAT     H179715   2.686   6.606   6.536
26491WAT     H279716   2.802   6.585   6.649
26492WAT      O79717   4.175   6.604   4.801
26492WAT     H179718   4.076   6.595   4.810
26492WAT     H279719   4.215   6.627   4.890
26493WAT      O79720   4.278   0.720   1.985
26493WAT     H179721   4.188   0.685   1.962
26493WAT     H279722   4.293   0.713   2.084
26494WAT      O79723   8.771   7.265   4.129
26494WAT     H179724   8.793   7.269   4.227
26494WAT     H279725   8.819   7.188   4.088
26495WAT      O79726   4.959   5.237   9.008
26495WAT     H179727   4.955   5.335   9.031
26495WAT     H279728   4.867   5.200   9.000
26496WAT      O79729   1.793   3.821   2.377
26496WAT     H179730   1.883   3.836   2.417
26496WAT     H279731   1.764   3.726   2.393
26497WAT      O79732   3.261   6.275   6.138
26497WAT     H179733   3.257   6.187   6.184
26497WAT     H279734   3.270   6.262   6.039
26498WAT      O79735   1.508   8.561   9.045
26498WAT     H179736   1.565   8.490   9.086
26498WAT     H279737   1.554   8.649   9.052
26499WAT      O79738   1.850   3.629   9.801
26499WAT     H179739   1.758   3.640   9.840
26499WAT     H279740   1.860   3.535   9.767
26500WAT      O79741   5.081   1.518   5.860
26500WAT     H179742   5.119   1.570   5.784
26500WAT     H279743   4.983   1.535   5.867
26501WAT      O79744   6.445   1.804   4.913
26501WAT     H179745   6.545   1.808   4.918
26501WAT     H279746   6.419   1.739   4.841
26502WAT      O79747   0.493   6.201   9.326
26502WAT     H179748   0.576   6.232   9.372
26502WAT     H279749   0.492   6.101   9.322
26503WAT      O79750   9.766   1.969   0.687
26503WAT     H179751   9.828   2.025   0.631
26503WAT     H279752   9.801   1.963   0.780
26504WAT      O79753   0.050   1.311   8.437
26504WAT     H179754   0.069   1.292   8.533
26504WAT     H279755   0.109   1.254   8.379
26505WAT      O79756   9.491   0.207   8.239
26505WAT     H179757   9.430   0.197   8.161
26505WAT     H279758   9.472   0.135   8.306
26506WAT      O79759   3.269   7.312   8.626
26506WAT     H179760   3.209   7.234   8.606
26506WAT     H279761   3.322   7.292   8.708
26507WAT      O79762   2.655   1.699   2.480
26507WAT     H179763   2.561   1.663   2.484
26507WAT     H279764   2.699   1.667   2.396
26508WAT      O79765   7.369   0.050   8.303
26508WAT     H179766   7.333   0.047   8.210
26508WAT     H279767   7.400  -0.041   8.330
26509WAT      O79768   3.139   5.119   0.165
26509WAT     H179769   3.099   5.041   0.117
26509WAT     H279770   3.222   5.148   0.117
26510WAT      O79771   3.744   0.640   3.483
26510WAT     H179772   3.814   0.569   3.484
26510WAT     H279773   3.693   0.635   3.397
26511WAT      O79774   0.837   4.124   4.001
26511WAT     H179775   0.853   4.203   3.942
26511WAT     H279776   0.787   4.152   4.082
26512WAT      O79777   2.166   0.232   9.183
26512WAT     H179778   2.080   0.186   9.162
26512WAT     H279779   2.239   0.194   9.126
26513WAT      O79780   8.087   9.730   3.458
26513WAT     H179781   8.081   9.716   3.359
26513WAT     H279782   8.125   9.821   3.476
26514WAT      O79783   1.840   0.584   6.501
26514WAT     H179784   1.740   0.580   6.499
26514WAT     H279785   1.876   0.547   6.416
26515WAT      O79786   8.201   2.289   6.604
26515WAT     H179787   8.213   2.244   6.516
26515WAT     H279788   8.280   2.271   6.662
26516WAT      O79789   8.103   1.285   7.966
26516WAT     H179790   8.187   1.230   7.966
26516WAT     H279791   8.025   1.226   7.989
26517WAT      O79792   5.551   6.352   9.118
26517WAT     H179793   5.537   6.349   9.019
26517WAT     H279794   5.600   6.436   9.143
26518WAT      O79795   8.961   9.761   8.971
26518WAT     H179796   8.891   9.730   9.035
26518WAT     H279797   8.982   9.687   8.907
26519WAT      O79798   8.141   0.586   9.472
26519WAT     H179799   8.103   0.624   9.556
26519WAT     H279800   8.110   0.492   9.461
26520WAT      O79801   5.432   9.236   7.898
26520WAT     H179802   5.405   9.191   7.982
26520WAT     H279803   5.504   9.303   7.918
26521WAT      O79804   2.043   2.138   6.987
26521WAT     H179805   2.097   2.150   7.070
26521WAT     H279806   2.096   2.087   6.919
26522WAT      O79807   3.598   2.098   0.907
26522WAT     H179808   3.663   2.040   0.858
26522WAT     H279809   3.538   2.041   0.963
26523WAT      O79810   8.461   0.339   0.004
26523WAT     H179811   8.480   0.436   0.015
26523WAT     H279812   8.378   0.327  -0.050
26524WAT      O79813   7.572   3.483   7.342
26524WAT     H179814   7.509   3.535   7.401
26524WAT     H279815   7.547   3.496   7.246
26525WAT      O79816   7.971   8.503   2.418
26525WAT     H179817   7.884   8.455   2.419
26525WAT     H279818   8.037   8.453   2.362
26526WAT      O79819   8.778   7.078   8.296
26526WAT     H179820   8.858   7.132   8.321
26526WAT     H279821   8.800   6.981   8.301
26527WAT      O79822   9.661   7.832   4.834
26527WAT     H179823   9.673   7.750   4.779
26527WAT     H279824   9.721   7.829   4.914
26528WAT      O79825   8.483   6.490   0.436
26528WAT     H179826   8.411   6.447   0.490
26528WAT     H279827   8.558   6.426   0.422
26529WAT      O79828   0.902   9.198   2.921
26529WAT     H179829   0.807   9.221   2.939
26529WAT     H279830   0.915   9.180   2.824
26530WAT      O79831   2.149   8.468   0.252
26530WAT     H179832   2.116   8.437   0.163
26530WAT     H279833   2.148   8.568   0.255
26531WAT      O79834   2.409   3.986   3.719
26531WAT     H179835   2.439   4.066   3.668
26531WAT     H279836   2.442   3.991   3.813
26532WAT      O79837   3.089   4.339   7.880
26532WAT     H179838   3.176   4.300   7.850
26532WAT     H279839   3.070   4.309   7.974
26533WAT      O79840   0.088   3.958   7.383
26533WAT     H179841   0.076   4.048   7.341
26533WAT     H279842   0.012   3.941   7.446
26534WAT      O79843   5.578   6.136   7.868
26534WAT     H179844   5.611   6.177   7.783
26534WAT     H279845   5.500   6.076   7.848
26535WAT      O79846   9.098   3.999   8.233
26535WAT     H179847   9.085   4.081   8.289
26535WAT     H279848   9.180   3.950   8.263
26536WAT      O79849   2.912   0.179   6.130
26536WAT     H179850   2.860   0.144   6.052
26536WAT     H279851   2.855   0.243   6.182
26537WAT      O79852   2.914   5.379   1.653
26537WAT     H179853   2.948   5.305   1.595
26537WAT     H279854   2.851   5.342   1.721
26538WAT      O79855   3.846   5.181   6.363
26538WAT     H179856   3.945   5.184   6.352
26538WAT     H279857   3.821   5.101   6.417
26539WAT      O79858   3.985   3.864   5.525
26539WAT     H179859   4.077   3.866   5.565
26539WAT     H279860   3.930   3.794   5.571
26540WAT      O79861   0.001   0.752   1.788
26540WAT     H179862   0.100   0.740   1.784
26540WAT     H279863  -0.028   0.816   1.717
26541WAT      O79864   1.716   9.024   6.904
26541WAT     H179865   1.648   8.985   6.966
26541WAT     H279866   1.771   8.950   6.865
26542WAT      O79867   7.423   3.693   8.175
26542WAT     H179868   7.405   3.646   8.089
26542WAT     H279869   7.437   3.626   8.248
26543WAT      O79870   3.392   4.995   0.532
26543WAT     H179871   3.411   5.059   0.457
26543WAT     H279872   3.473   4.940   0.551
26544WAT      O79873   1.128   5.828   8.530
26544WAT     H179874   1.089   5.889   8.462
26544WAT     H279875   1.086   5.846   8.619
26545WAT      O79876   5.284   2.259   3.280
26545WAT     H179877   5.330   2.250   3.368
26545WAT     H279878   5.301   2.350   3.242
26546WAT      O79879   5.637   4.416   9.463
26546WAT     H179880   5.592   4.476   9.529
26546WAT     H279881   5.630   4.321   9.494
26547WAT      O79882   3.361   9.796   4.820
26547WAT     H179883   3.353   9.837   4.730
26547WAT     H279884   3.340   9.698   4.814
26548WAT      O79885   6.624   8.241   0.189
26548WAT     H179886   6.654   8.333   0.162
26548WAT     H279887   6.675   8.173   0.135
26549WAT      O79888   2.637   8.914   3.134
26549WAT     H179889   2.717   8.919   3.194
26549WAT     H279890   2.666   8.910   3.039
26550WAT      O79891   6.678   8.553   3.646
26550WAT     H179892   6.629   8.606   3.714
26550WAT     H279893   6.709   8.613   3.572
26551WAT      O79894   6.193   6.215   7.901
26551WAT     H179895   6.100   6.205   7.938
26551WAT     H279896   6.193   6.190   7.804
26552WAT      O79897   7.578   3.989   6.476
26552WAT     H179898   7.537   4.070   6.434
26552WAT     H279899   7.678   3.998   6.475
26553WAT      O79900   0.840   9.091   5.247
26553WAT     H179901   0.805   9.184   5.236
26553WAT     H279902   0.938   9.089   5.228
26554WAT      O79903   3.464   1.468   6.797
26554WAT     H179904   3.374   1.454   6.838
26554WAT     H279905   3.525   1.394   6.825
26555WAT      O79906   3.095   6.299   0.207
26555WAT     H179907   3.184   6.271   0.245
26555WAT     H279908   3.028   6.227   0.225
26556WAT      O79909   5.644   5.744   6.660
26556WAT     H179910   5.706   5.666   6.676
26556WAT     H279911   5.654   5.809   6.735
26557WAT      O79912   8.970   8.087   9.011
26557WAT     H179913   8.971   7.996   8.969
26557WAT     H279914   8.988   8.078   9.109
26558WAT      O79915   5.200   6.316   4.154
26558WAT     H179916   5.164   6.243   4.211
26558WAT     H279917   5.134   6.392   4.151
26559WAT      O79918   4.501   6.797   1.730
26559WAT     H179919   4.513   6.759   1.638
26559WAT     H279920   4.525   6.894   1.730
26560WAT      O79921   3.546   4.259   7.607
26560WAT     H179922   3.513   4.184   7.551
26560WAT     H279923   3.564   4.339   7.549
26561WAT      O79924   6.507   2.243   8.070
26561WAT     H179925   6.407   2.245   8.073
26561WAT     H279926   6.540   2.157   8.108
26562WAT      O79927   6.185   0.410   9.223
26562WAT     H179928   6.174   0.381   9.128
26562WAT     H279929   6.282   0.413   9.246
26563WAT      O79930   3.896   3.682   4.244
26563WAT     H179931   3.875   3.771   4.284
26563WAT     H279932   3.951   3.629   4.308
26564WAT      O79933   4.912   2.852   8.952
26564WAT     H179934   4.842   2.842   8.881
26564WAT     H279935   4.949   2.762   8.974
26565WAT      O79936   7.723   1.074   9.582
26565WAT     H179937   7.624   1.065   9.593
26565WAT     H279938   7.760   0.990   9.542
26566WAT      O79939   8.686   4.735   2.842
26566WAT     H179940   8.648   4.643   2.842
26566WAT     H279941   8.681   4.774   2.934
26567WAT      O79942   5.044   8.076   5.781
26567WAT     H179943   5.099   7.995   5.801
26567WAT     H279944   4.998   8.064   5.694
26568WAT      O79945   0.478   5.420   0.798
26568WAT     H179946   0.537   5.500   0.805
26568WAT     H279947   0.519   5.353   0.737
26569WAT      O79948   1.870   4.096   5.044
26569WAT     H179949   1.798   4.125   5.108
26569WAT     H279950   1.957   4.137   5.071
26570WAT      O79951   3.773   4.312   7.753
26570WAT     H179952   3.685   4.303   7.706
26570WAT     H279953   3.842   4.344   7.688
26571WAT      O79954   0.192   0.269   0.617
26571WAT     H179955   0.185   0.333   0.540
26571WAT     H279956   0.263   0.202   0.598
26572WAT      O79957   7.856   2.590   2.726
26572WAT     H179958   7.825   2.674   2.681
26572WAT     H279959   7.810   2.580   2.814
26573WAT      O79960   8.712   0.227   9.194
26573WAT     H179961   8.734   0.150   9.254
26573WAT     H279962   8.619   0.218   9.160
26574WAT      O79963   2.806   3.049   6.810
26574WAT     H179964   2.713   3.085   6.798
26574WAT     H279965   2.804   2.950   6.799
26575WAT      O79966   7.697   4.384   3.973
26575WAT     H179967   7.646   4.374   4.059
26575WAT     H279968   7.785   4.337   3.981
26576WAT      O79969   7.076   8.530   2.563
26576WAT     H179970   7.011   8.576   2.503
26576WAT     H279971   7.027   8.475   2.630
26577WAT      O79972   7.636   6.915   8.411
26577WAT     H179973   7.718   6.900   8.355
26577WAT     H279974   7.556   6.877   8.363
26578WAT      O79975   7.069   2.231   0.061
26578WAT     H179976   7.165   2.205   0.075
26578WAT     H279977   7.028   2.171  -0.007
26579WAT      O79978   0.362   5.720   8.911
26579WAT     H179979   0.358   5.651   8.839
26579WAT     H279980   0.338   5.809   8.872
26580WAT      O79981   0.768   5.633   9.187
26580WAT     H179982   0.709   5.614   9.109
26580WAT     H279983   0.853   5.581   9.179
26581WAT      O79984   0.442   7.077   1.585
26581WAT     H179985   0.525   7.062   1.639
26581WAT     H279986   0.429   7.000   1.523
26582WAT      O79987   2.502   4.794   1.047
26582WAT     H179988   2.479   4.728   0.976
26582WAT     H279989   2.467   4.884   1.020
26583WAT      O79990   0.449   9.553   7.780
26583WAT     H179991   0.524   9.537   7.844
26583WAT     H279992   0.378   9.483   7.794
26584WAT      O79993   8.361   1.867   1.391
26584WAT     H179994   8.371   1.774   1.426
26584WAT     H279995   8.384   1.869   1.294
26585WAT      O79996   8.117   1.533   2.261
26585WAT     H179997   8.091   1.463   2.327
26585WAT     H279998   8.079   1.621   2.288
26586WAT      O79999   6.293   4.305   4.257
26586WAT     H180000   6.282   4.273   4.352
26586WAT     H280001   6.218   4.270   4.202
26587WAT      O80002   7.760   3.240   1.098
26587WAT     H180003   7.800   3.298   1.169
26587WAT     H280004   7.790   3.146   1.112
26588WAT      O80005   2.154   1.560   2.049
26588WAT     H180006   2.102   1.645   2.059
26588WAT     H280007   2.112   1.489   2.106
26589WAT      O80008   8.294   7.422   1.075
26589WAT     H180009   8.328   7.470   0.993
26589WAT     H280010   8.372   7.397   1.133
26590WAT      O80011   9.518   3.813   1.546
26590WAT     H180012   9.482   3.887   1.490
26590WAT     H280013   9.564   3.851   1.626
26591WAT      O80014   6.929   4.208   9.796
26591WAT     H180015   6.974   4.127   9.759
26591WAT     H280016   6.834   4.186   9.818
26592WAT      O80017   5.614   5.878   9.346
26592WAT     H180018   5.638   5.961   9.295
26592WAT     H280019   5.686   5.810   9.335
26593WAT      O80020   3.635   2.983   1.654
26593WAT     H180021   3.674   2.921   1.586
26593WAT     H280022   3.624   3.074   1.614
26594WAT      O80023   6.041   9.001   6.981
26594WAT     H180024   6.036   9.036   6.888
26594WAT     H280025   6.128   8.952   6.994
26595WAT      O80026   4.243   9.625   5.085
26595WAT     H180027   4.163   9.660   5.035
26595WAT     H280028   4.305   9.701   5.104
26596WAT      O80029   1.076   0.287   7.264
26596WAT     H180030   1.105   0.196   7.236
26596WAT     H280031   0.976   0.290   7.268
26597WAT      O80032   8.554   4.786   5.329
26597WAT     H180033   8.628   4.723   5.352
26597WAT     H280034   8.504   4.810   5.413
26598WAT      O80035   5.223   1.896   0.469
26598WAT     H180036   5.158   1.916   0.542
26598WAT     H280037   5.215   1.800   0.442
26599WAT      O80038   3.207   2.482   3.599
26599WAT     H180039   3.230   2.565   3.650
26599WAT     H280040   3.242   2.490   3.506
26600WAT      O80041   0.198   5.343   4.308
26600WAT     H180042   0.270   5.326   4.241
26600WAT     H280043   0.232   5.406   4.378
26601WAT      O80044   0.580   3.655   9.794
26601WAT     H180045   0.506   3.712   9.758
26601WAT     H280046   0.577   3.565   9.751
26602WAT      O80047   6.074   0.495   9.761
26602WAT     H180048   6.018   0.527   9.685
26602WAT     H280049   6.038   0.532   9.847
26603WAT      O80050   2.721   4.222   4.672
26603WAT     H180051   2.761   4.237   4.763
26603WAT     H280052   2.632   4.178   4.681
26604WAT      O80053   4.743   4.426   8.596
26604WAT     H180054   4.737   4.524   8.579
26604WAT     H280055   4.832   4.404   8.636
26605WAT      O80056   8.568   3.909   9.068
26605WAT     H180057   8.545   3.975   8.996
26605WAT     H280058   8.667   3.899   9.074
26606WAT      O80059   2.152   5.182   4.733
26606WAT     H180060   2.063   5.226   4.726
26606WAT     H280061   2.199   5.185   4.645
26607WAT      O80062   1.322   0.275   1.739
26607WAT     H180063   1.287   0.249   1.649
26607WAT     H280064   1.289   0.367   1.762
26608WAT      O80065   0.282   2.627   5.458
26608WAT     H180066   0.259   2.551   5.398
26608WAT     H280067   0.381   2.626   5.476
26609WAT      O80068   6.918   2.968   2.487
26609WAT     H180069   6.827   2.928   2.488
26609WAT     H280070   6.928   3.027   2.407
26610WAT      O80071   3.228   2.798   3.142
26610WAT     H180072   3.283   2.722   3.108
26610WAT     H280073   3.288   2.865   3.185
26611WAT      O80074   3.625   8.642   2.152
26611WAT     H180075   3.587   8.560   2.194
26611WAT     H280076   3.567   8.721   2.175
26612WAT      O80077   2.766   7.977   7.986
26612WAT     H180078   2.799   8.006   7.896
26612WAT     H280079   2.771   7.877   7.992
26613WAT      O80080   4.882   6.813   2.642
26613WAT     H180081   4.828   6.735   2.613
26613WAT     H280082   4.889   6.878   2.567
26614WAT      O80083   9.848   3.443   5.257
26614WAT     H180084   9.768   3.387   5.281
26614WAT     H280085   9.930   3.401   5.294
26615WAT      O80086   4.185   2.856   0.796
26615WAT     H180087   4.218   2.856   0.702
26615WAT     H280088   4.216   2.773   0.843
26616WAT      O80089   8.495   1.074   1.748
26616WAT     H180090   8.463   0.984   1.776
26616WAT     H280091   8.432   1.144   1.780
26617WAT      O80092   6.898   5.036   7.463
26617WAT     H180093   6.872   5.046   7.558
26617WAT     H280094   6.924   5.125   7.426
26618WAT      O80095   0.030   1.001   3.590
26618WAT     H180096   0.117   0.958   3.565
26618WAT     H280097  -0.045   0.935   3.576
26619WAT      O80098   8.204   8.256   1.479
26619WAT     H180099   8.199   8.332   1.544
26619WAT     H280100   8.300   8.229   1.467
26620WAT      O80101   6.501   7.206   7.887
26620WAT     H180102   6.503   7.232   7.984
26620WAT     H280103   6.447   7.273   7.836
26621WAT      O80104   7.632   1.395   4.725
26621WAT     H180105   7.729   1.379   4.740
26621WAT     H280106   7.585   1.308   4.713
26622WAT      O80107   9.443   7.800   9.347
26622WAT     H180108   9.511   7.766   9.283
26622WAT     H280109   9.490   7.842   9.425
26623WAT      O80110   0.327   5.416   9.009
26623WAT     H180111   0.423   5.415   8.984
26623WAT     H280112   0.312   5.355   9.086
26624WAT      O80113   2.217   1.958   7.859
26624WAT     H180114   2.119   1.972   7.872
26624WAT     H280115   2.258   1.928   7.945
26625WAT      O80116   5.728   3.725   5.019
26625WAT     H180117   5.701   3.804   5.074
26625WAT     H280118   5.656   3.657   5.021
26626WAT      O80119   6.164   5.195   0.311
26626WAT     H180120   6.238   5.160   0.367
26626WAT     H280121   6.176   5.165   0.216
26627WAT      O80122   9.365   7.782   6.820
26627WAT     H180123   9.375   7.880   6.802
26627WAT     H280124   9.297   7.744   6.758
26628WAT      O80125   7.036   6.643   8.766
26628WAT     H180126   7.055   6.547   8.789
26628WAT     H280127   6.942   6.665   8.790
26629WAT      O80128   1.737   7.471   3.036
26629WAT     H180129   1.708   7.547   2.978
26629WAT     H280130   1.807   7.418   2.988
26630WAT      O80131   9.471   4.899   2.743
26630WAT     H180132   9.453   4.811   2.787
26630WAT     H280133   9.560   4.933   2.772
26631WAT      O80134   4.545   3.683   9.052
26631WAT     H180135   4.464   3.737   9.075
26631WAT     H280136   4.548   3.669   8.953
26632WAT      O80137   1.646   8.657   0.515
26632WAT     H180138   1.641   8.733   0.579
26632WAT     H280139   1.739   8.648   0.479
26633WAT      O80140   9.303   2.794   7.848
26633WAT     H180141   9.288   2.733   7.770
26633WAT     H280142   9.219   2.845   7.867
26634WAT      O80143   8.777   8.346   1.565
26634WAT     H180144   8.689   8.299   1.573
26634WAT     H280145   8.851   8.280   1.576
26635WAT      O80146   1.372   1.432   2.961
26635WAT     H180147   1.403   1.358   2.901
26635WAT     H280148   1.301   1.485   2.915
26636WAT      O80149   1.868   3.067   8.855
26636WAT     H180150   1.771   3.082   8.835
26636WAT     H280151   1.877   2.998   8.926
26637WAT      O80152   9.475   7.979   6.565
26637WAT     H180153   9.403   8.049   6.561
26637WAT     H280154   9.533   7.995   6.645
26638WAT      O80155   2.261   8.231   4.045
26638WAT     H180156   2.223   8.260   3.957
26638WAT     H280157   2.359   8.212   4.035
26639WAT      O80158   9.430   2.040   3.637
26639WAT     H180159   9.469   1.990   3.715
26639WAT     H280160   9.488   2.026   3.557
26640WAT      O80161   5.626   0.833   2.474
26640WAT     H180162   5.670   0.915   2.437
26640WAT     H280163   5.682   0.796   2.549
26641WAT      O80164   0.398   6.296   9.058
26641WAT     H180165   0.430   6.289   9.153
26641WAT     H280166   0.333   6.372   9.050
26642WAT      O80167   8.994   3.270   2.706
26642WAT     H180168   9.036   3.277   2.615
26642WAT     H280169   9.062   3.234   2.771
26643WAT      O80170   4.276   6.878   1.856
26643WAT     H180171   4.352   6.860   1.794
26643WAT     H280172   4.214   6.799   1.857
26644WAT      O80173   1.908   3.161   9.683
26644WAT     H180174   1.949   3.072   9.664
26644WAT     H280175   1.973   3.234   9.662
26645WAT      O80176   8.141   7.954   7.898
26645WAT     H180177   8.146   8.052   7.919
26645WAT     H280178   8.124   7.903   7.982
26646WAT      O80179   7.398   7.252   8.832
26646WAT     H180180   7.461   7.276   8.758
26646WAT     H280181   7.424   7.163   8.870
26647WAT      O80182   6.203   4.971   3.776
26647WAT     H180183   6.242   4.879   3.776
26647WAT     H280184   6.273   5.037   3.750
26648WAT      O80185   3.639   8.226   0.884
26648WAT     H180186   3.545   8.251   0.902
26648WAT     H280187   3.682   8.294   0.825
26649WAT      O80188   1.406   1.934   2.031
26649WAT     H180189   1.376   1.960   1.940
26649WAT     H280190   1.326   1.915   2.088
26650WAT      O80191   0.439   2.861   9.285
26650WAT     H180192   0.357   2.846   9.340
26650WAT     H280193   0.416   2.858   9.188
26651WAT      O80194   6.810   7.101   1.932
26651WAT     H180195   6.889   7.139   1.883
26651WAT     H280196   6.840   7.026   1.990
26652WAT      O80197   1.955   3.254   2.469
26652WAT     H180198   1.922   3.311   2.544
26652WAT     H280199   2.052   3.234   2.482
26653WAT      O80200   8.175   6.647   1.126
26653WAT     H180201   8.125   6.648   1.039
26653WAT     H280202   8.265   6.606   1.112
26654WAT      O80203   5.733   2.451   5.206
26654WAT     H180204   5.717   2.433   5.303
26654WAT     H280205   5.663   2.513   5.171
26655WAT      O80206   8.225   9.449   2.653
26655WAT     H180207   8.200   9.367   2.704
26655WAT     H280208   8.142   9.499   2.628
26656WAT      O80209   5.927   6.920   3.782
26656WAT     H180210   5.953   6.947   3.875
26656WAT     H280211   5.855   6.981   3.749
26657WAT      O80212   7.169   8.098   2.404
26657WAT     H180213   7.099   8.067   2.468
26657WAT     H280214   7.254   8.049   2.421
26658WAT      O80215   4.954   8.362   3.382
26658WAT     H180216   4.921   8.382   3.290
26658WAT     H280217   4.882   8.380   3.448
26659WAT      O80218   3.021   7.527   0.673
26659WAT     H180219   2.945   7.582   0.707
26659WAT     H280220   2.989   7.471   0.596
26660WAT      O80221   3.738   4.900   5.698
26660WAT     H180222   3.825   4.946   5.684
26660WAT     H280223   3.663   4.961   5.671
26661WAT      O80224   5.658   6.372   5.290
26661WAT     H180225   5.749   6.413   5.298
26661WAT     H280226   5.659   6.280   5.328
26662WAT      O80227   6.560   8.573   0.282
26662WAT     H180228   6.501   8.562   0.201
26662WAT     H280229   6.653   8.546   0.258
26663WAT      O80230   3.836   9.336   2.017
26663WAT     H180231   3.927   9.349   1.978
26663WAT     H280232   3.782   9.419   2.003
26664WAT      O80233   2.345   3.169   7.680
26664WAT     H180234   2.399   3.107   7.736
26664WAT     H280235   2.403   3.212   7.611
26665WAT      O80236   7.924   1.429   1.352
26665WAT     H180237   7.889   1.456   1.441
26665WAT     H280238   7.868   1.355   1.315
26666WAT      O80239   9.126   2.508   2.813
26666WAT     H180240   9.067   2.431   2.836
26666WAT     H280241   9.159   2.551   2.898
26667WAT      O80242   4.000   3.039   2.716
26667WAT     H180243   4.063   2.963   2.700
26667WAT     H280244   3.988   3.053   2.814
26668WAT      O80245   7.738   3.471   5.333
26668WAT     H180246   7.761   3.527   5.413
26668WAT     H280247   7.696   3.386   5.363
26669WAT      O80248   1.856   0.903   3.537
26669WAT     H180249   1.834   0.995   3.570
26669WAT     H280250   1.787   0.839   3.570
26670WAT      O80251   3.323   5.806   1.121
26670WAT     H180252   3.380   5.882   1.091
26670WAT     H280253   3.244   5.842   1.172
26671WAT      O80254   3.152   0.624   0.754
26671WAT     H180255   3.182   0.719   0.744
26671WAT     H280256   3.232   0.566   0.771
26672WAT      O80257   5.689   4.396   8.603
26672WAT     H180258   5.734   4.376   8.691
26672WAT     H280259   5.592   4.414   8.619
26673WAT      O80260   7.855   2.108   0.678
26673WAT     H180261   7.858   2.176   0.606
26673WAT     H280262   7.890   2.021   0.643
26674WAT      O80263   5.744   3.695   9.003
26674WAT     H180264   5.709   3.666   8.914
26674WAT     H280265   5.843   3.704   8.999
26675WAT      O80266   6.889   3.056   5.536
26675WAT     H180267   6.899   3.005   5.451
26675WAT     H280268   6.847   3.145   5.518
26676WAT      O80269   0.659   8.149   8.107
26676WAT     H180270   0.628   8.054   8.109
26676WAT     H280271   0.697   8.174   8.196
26677WAT      O80272   5.607   6.199   7.322
26677WAT     H180273   5.574   6.292   7.305
26677WAT     H280274   5.702   6.202   7.352
26678WAT      O80275   3.061   1.962   2.444
26678WAT     H180276   3.151   1.956   2.401
26678WAT     H280277   3.029   1.871   2.469
26679WAT      O80278   9.264   1.398   6.967
26679WAT     H180279   9.321   1.439   7.038
26679WAT     H280280   9.293   1.303   6.952
26680WAT      O80281   2.831   8.807   7.267
26680WAT     H180282   2.784   8.852   7.191
26680WAT     H280283   2.779   8.727   7.295
26681WAT      O80284   4.195   6.868   7.135
26681WAT     H180285   4.166   6.929   7.061
26681WAT     H280286   4.292   6.882   7.154
26682WAT      O80287   4.276   8.855   3.481
26682WAT     H180288   4.274   8.756   3.491
26682WAT     H280289   4.292   8.897   3.570
26683WAT      O80290   6.893   2.483   1.546
26683WAT     H180291   6.808   2.529   1.523
26683WAT     H280292   6.971   2.539   1.517
26684WAT      O80293   3.377   3.373   3.504
26684WAT     H180294   3.383   3.444   3.573
26684WAT     H280295   3.431   3.294   3.532
26685WAT      O80296   2.057   5.791   8.214
26685WAT     H180297   2.096   5.765   8.302
26685WAT     H280298   2.122   5.769   8.141
26686WAT      O80299   3.325   4.370   1.677
26686WAT     H180300   3.340   4.327   1.766
26686WAT     H280301   3.404   4.427   1.654
26687WAT      O80302   0.021   4.800   5.663
26687WAT     H180303  -0.067   4.784   5.619
26687WAT     H280304   0.031   4.737   5.740
26688WAT      O80305   6.216   7.918   9.421
26688WAT     H180306   6.225   7.838   9.362
26688WAT     H280307   6.292   7.981   9.403
26689WAT      O80308   8.070   7.957   5.469
26689WAT     H180309   7.981   7.929   5.506
26689WAT     H280310   8.080   8.056   5.477
26690WAT      O80311   5.638   5.390   6.342
26690WAT     H180312   5.656   5.489   6.338
26690WAT     H280313   5.579   5.364   6.266
26691WAT      O80314   5.441   5.720   7.887
26691WAT     H180315   5.420   5.693   7.981
26691WAT     H280316   5.401   5.810   7.868
26692WAT      O80317   0.437   4.732   0.217
26692WAT     H180318   0.343   4.698   0.214
26692WAT     H280319   0.498   4.664   0.175
26693WAT      O80320   4.345   0.280   4.238
26693WAT     H180321   4.335   0.319   4.146
26693WAT     H280322   4.283   0.202   4.247
26694WAT      O80323   0.354   5.652   7.123
26694WAT     H180324   0.305   5.736   7.104
26694WAT     H280325   0.289   5.581   7.151
26695WAT      O80326   4.739   7.985   8.582
26695WAT     H180327   4.757   7.902   8.635
26695WAT     H280328   4.690   8.051   8.639
26696WAT      O80329   2.771   9.828   2.583
26696WAT     H180330   2.752   9.875   2.669
26696WAT     H280331   2.703   9.855   2.515
26697WAT      O80332   5.719   2.146   4.048
26697WAT     H180333   5.658   2.165   4.125
26697WAT     H280334   5.757   2.232   4.014
26698WAT      O80335   2.220   1.363   1.433
26698WAT     H180336   2.182   1.448   1.396
26698WAT     H280337   2.312   1.349   1.397
26699WAT      O80338   8.862   7.748   6.873
26699WAT     H180339   8.892   7.840   6.851
26699WAT     H280340   8.930   7.682   6.841
26700WAT      O80341   7.009   7.071   7.747
26700WAT     H180342   6.919   7.075   7.790
26700WAT     H280343   7.061   6.995   7.785
26701WAT      O80344   9.339   5.014   8.499
26701WAT     H180345   9.322   4.992   8.403
26701WAT     H280346   9.389   5.101   8.505
26702WAT      O80347   6.060   4.199   5.900
26702WAT     H180348   5.986   4.142   5.864
26702WAT     H280349   6.021   4.280   5.943
26703WAT      O80350   1.855   3.820   7.792
26703WAT     H180351   1.837   3.850   7.698
26703WAT     H280352   1.845   3.720   7.797
26704WAT      O80353   5.840   4.833   1.206
26704WAT     H180354   5.836   4.739   1.171
26704WAT     H280355   5.858   4.831   1.305
26705WAT      O80356   7.349   5.187   7.185
26705WAT     H180357   7.393   5.257   7.128
26705WAT     H280358   7.308   5.118   7.125
26706WAT      O80359   9.304   5.558   4.815
26706WAT     H180360   9.342   5.578   4.906
26706WAT     H280361   9.371   5.583   4.745
26707WAT      O80362   8.118   3.042   5.601
26707WAT     H180363   8.114   3.009   5.695
26707WAT     H280364   8.171   2.978   5.545
26708WAT      O80365   8.371   3.077   6.745
26708WAT     H180366   8.370   3.114   6.652
26708WAT     H280367   8.433   2.998   6.748
26709WAT      O80368   5.033   1.805   3.335
26709WAT     H180369   4.959   1.872   3.330
26709WAT     H280370   5.008   1.723   3.284
26710WAT      O80371   9.205   3.684   0.491
26710WAT     H180372   9.126   3.683   0.553
26710WAT     H280373   9.241   3.591   0.481
26711WAT      O80374   6.293   6.616   6.409
26711WAT     H180375   6.244   6.544   6.360
26711WAT     H280376   6.306   6.588   6.504
26712WAT      O80377   0.379   3.336   9.813
26712WAT     H180378   0.389   3.290   9.901
26712WAT     H280379   0.333   3.274   9.749
26713WAT      O80380   7.968   5.889   0.750
26713WAT     H180381   7.873   5.859   0.761
26713WAT     H280382   7.976   5.946   0.669
26714WAT      O80383   6.382   4.939   9.563
26714WAT     H180384   6.390   5.007   9.490
26714WAT     H280385   6.471   4.927   9.608
26715WAT      O80386   4.802   3.299   4.850
26715WAT     H180387   4.749   3.382   4.864
26715WAT     H280388   4.772   3.254   4.766
26716WAT      O80389   2.438   4.826   4.723
26716WAT     H180390   2.373   4.858   4.654
26716WAT     H280391   2.494   4.752   4.685
26717WAT      O80392   2.981   3.035   0.403
26717WAT     H180393   2.950   2.985   0.323
26717WAT     H280394   2.943   3.128   0.401
26718WAT      O80395   0.503   7.820   4.090
26718WAT     H180396   0.580   7.884   4.097
26718WAT     H280397   0.504   7.777   3.999
26719WAT      O80398   5.855   2.680   1.895
26719WAT     H180399   5.941   2.729   1.912
26719WAT     H280400   5.800   2.732   1.829
26720WAT      O80401   0.039   6.204   3.722
26720WAT     H180402  -0.022   6.148   3.665
26720WAT     H280403   0.082   6.146   3.791
26721WAT      O80404   5.294   6.716   1.745
26721WAT     H180405   5.389   6.698   1.770
26721WAT     H280406   5.290   6.790   1.679
26722WAT      O80407   2.145   1.208   1.137
26722WAT     H180408   2.118   1.167   1.224
26722WAT     H280409   2.144   1.308   1.145
26723WAT      O80410   0.831   7.728   1.569
26723WAT     H180411   0.733   7.741   1.553
26723WAT     H280412   0.869   7.668   1.499
26724WAT      O80413   6.227   1.411   3.038
26724WAT     H180414   6.138   1.367   3.027
26724WAT     H280415   6.242   1.475   2.962
26725WAT      O80416   5.543   6.690   6.954
26725WAT     H180417   5.607   6.707   6.879
26725WAT     H280418   5.516   6.594   6.954
26726WAT      O80419   6.137   4.772   0.059
26726WAT     H180420   6.118   4.685   0.015
26726WAT     H280421   6.157   4.842  -0.010
26727WAT      O80422   1.014   8.637   5.909
26727WAT     H180423   0.983   8.548   5.944
26727WAT     H280424   0.946   8.707   5.931
26728WAT      O80425   2.359   2.990   3.012
26728WAT     H180426   2.357   2.949   3.104
26728WAT     H280427   2.343   2.919   2.944
26729WAT      O80428   8.412   9.725   9.778
26729WAT     H180429   8.432   9.778   9.860
26729WAT     H280430   8.315   9.702   9.776
26730WAT      O80431   7.612   5.563   9.664
26730WAT     H180432   7.551   5.633   9.702
26730WAT     H280433   7.588   5.546   9.569
26731WAT      O80434   2.391   3.165   0.821
26731WAT     H180435   2.473   3.219   0.836
26731WAT     H280436   2.414   3.083   0.769
26732WAT      O80437   0.249   6.047   2.051
26732WAT     H180438   0.278   6.143   2.051
26732WAT     H280439   0.269   6.006   1.962
26733WAT      O80440   2.863   3.740   9.423
26733WAT     H180441   2.835   3.723   9.517
26733WAT     H280442   2.871   3.839   9.408
26734WAT      O80443   2.535   6.418   8.033
26734WAT     H180444   2.535   6.319   8.047
26734WAT     H280445   2.604   6.442   7.965
26735WAT      O80446   7.477   1.619   7.697
26735WAT     H180447   7.422   1.661   7.769
26735WAT     H280448   7.468   1.672   7.612
26736WAT      O80449   5.756   0.897   5.145
26736WAT     H180450   5.798   0.987   5.141
26736WAT     H280451   5.677   0.899   5.206
26737WAT      O80452   1.232   6.959   9.157
26737WAT     H180453   1.227   7.053   9.123
26737WAT     H280454   1.145   6.935   9.200
26738WAT      O80455   6.942   5.287   1.225
26738WAT     H180456   6.990   5.374   1.226
26738WAT     H280457   6.982   5.228   1.155
26739WAT      O80458   5.638   0.707   3.027
26739WAT     H180459   5.651   0.773   3.101
26739WAT     H280460   5.727   0.666   3.004
26740WAT      O80461   8.428   0.756   1.827
26740WAT     H180462   8.378   0.775   1.743
26740WAT     H280463   8.522   0.728   1.805
26741WAT      O80464   8.293   9.260   1.874
26741WAT     H180465   8.306   9.356   1.849
26741WAT     H280466   8.329   9.244   1.966
26742WAT      O80467   9.545   7.719   3.064
26742WAT     H180468   9.482   7.785   3.105
26742WAT     H280469   9.509   7.689   2.976
26743WAT      O80470   6.572   7.296   3.722
26743WAT     H180471   6.559   7.278   3.624
26743WAT     H280472   6.650   7.357   3.734
26744WAT      O80473   0.102   3.316   3.752
26744WAT     H180474   0.060   3.252   3.816
26744WAT     H280475   0.039   3.390   3.733
26745WAT      O80476   1.401   4.323   6.812
26745WAT     H180477   1.419   4.418   6.788
26745WAT     H280478   1.485   4.280   6.844
26746WAT      O80479   6.255   0.124   0.684
26746WAT     H180480   6.185   0.139   0.615
26746WAT     H280481   6.290   0.031   0.677
26747WAT      O80482   7.313   8.097   0.669
26747WAT     H180483   7.408   8.129   0.664
26747WAT     H280484   7.308   8.004   0.634
26748WAT      O80485   5.462   2.615   3.289
26748WAT     H180486   5.385   2.660   3.334
26748WAT     H280487   5.463   2.638   3.192
26749WAT      O80488   1.506   8.901   8.486
26749WAT     H180489   1.555   8.987   8.473
26749WAT     H280490   1.531   8.837   8.413
26750WAT      O80491   5.328   4.431   5.685
26750WAT     H180492   5.230   4.427   5.671
26750WAT     H280493   5.356   4.527   5.695
26751WAT      O80494   1.496   3.622   3.793
26751WAT     H180495   1.513   3.621   3.891
26751WAT     H280496   1.518   3.532   3.754
26752WAT      O80497   8.481   1.333   4.720
26752WAT     H180498   8.484   1.383   4.806
26752WAT     H280499   8.571   1.294   4.699
26753WAT      O80500   0.598   8.089   4.266
26753WAT     H180501   0.683   8.055   4.308
26753WAT     H280502   0.599   8.189   4.267
26754WAT      O80503   4.878   6.979   0.067
26754WAT     H180504   4.937   6.982   0.148
26754WAT     H280505   4.832   7.068   0.057
26755WAT      O80506   3.678   5.500   9.756
26755WAT     H180507   3.765   5.545   9.779
26755WAT     H280508   3.693   5.401   9.750
26756WAT      O80509   5.940   5.962   7.631
26756WAT     H180510   5.961   5.894   7.560
26756WAT     H280511   5.864   5.928   7.687
26757WAT      O80512   6.229   9.430   1.239
26757WAT     H180513   6.205   9.333   1.231
26757WAT     H280514   6.146   9.485   1.241
26758WAT      O80515   2.176   6.759   1.600
26758WAT     H180516   2.169   6.788   1.695
26758WAT     H280517   2.087   6.765   1.556
26759WAT      O80518   2.835   9.330   4.251
26759WAT     H180519   2.893   9.408   4.273
26759WAT     H280520   2.739   9.359   4.246
26760WAT      O80521   6.078   6.590   3.186
26760WAT     H180522   6.088   6.558   3.280
26760WAT     H280523   6.159   6.565   3.133
26761WAT      O80524   9.540   3.607   1.144
26761WAT     H180525   9.614   3.583   1.082
26761WAT     H280526   9.553   3.701   1.176
26762WAT      O80527   0.422   7.530   2.089
26762WAT     H180528   0.458   7.589   2.016
26762WAT     H280529   0.351   7.579   2.139
26763WAT      O80530   7.002   5.124   1.854
26763WAT     H180531   7.035   5.037   1.819
26763WAT     H280532   6.954   5.109   1.941
26764WAT      O80533   6.959   0.346   5.489
26764WAT     H180534   6.996   0.390   5.407
26764WAT     H280535   6.868   0.382   5.508
26765WAT      O80536   4.579   1.101   1.659
26765WAT     H180537   4.648   1.046   1.612
26765WAT     H280538   4.602   1.108   1.756
26766WAT      O80539   0.261   8.505   6.603
26766WAT     H180540   0.250   8.596   6.644
26766WAT     H280541   0.254   8.435   6.674
26767WAT      O80542   7.459   1.956   3.424
26767WAT     H180543   7.548   2.001   3.423
26767WAT     H280544   7.414   1.972   3.511
26768WAT      O80545   8.615   0.407   7.910
26768WAT     H180546   8.623   0.308   7.926
26768WAT     H280547   8.523   0.428   7.877
26769WAT      O80548   3.929   6.370   2.539
26769WAT     H180549   3.839   6.410   2.523
26769WAT     H280550   3.930   6.324   2.628
26770WAT      O80551   5.393   7.589   7.643
26770WAT     H180552   5.456   7.592   7.565
26770WAT     H280553   5.314   7.532   7.619
26771WAT      O80554   3.905   4.527   0.090
26771WAT     H180555   3.856   4.441   0.105
26771WAT     H280556   3.889   4.558  -0.004
26772WAT      O80557   9.524   1.243   1.621
26772WAT     H180558   9.535   1.333   1.664
26772WAT     H280559   9.496   1.177   1.690
26773WAT      O80560   5.259   8.478   8.532
26773WAT     H180561   5.356   8.475   8.511
26773WAT     H280562   5.215   8.553   8.483
26774WAT      O80563   6.852   0.752   5.271
26774WAT     H180564   6.867   0.681   5.339
26774WAT     H280565   6.938   0.772   5.223
26775WAT      O80566   6.779   1.997   0.326
26775WAT     H180567   6.724   1.914   0.337
26775WAT     H280568   6.768   2.033   0.234
26776WAT      O80569   5.666   5.885   3.285
26776WAT     H180570   5.615   5.971   3.282
26776WAT     H280571   5.636   5.825   3.210
26777WAT      O80572   0.227   1.982   4.495
26777WAT     H180573   0.266   1.985   4.587
26777WAT     H280574   0.237   1.889   4.459
26778WAT      O80575   6.712   2.790   8.166
26778WAT     H180576   6.734   2.692   8.174
26778WAT     H280577   6.682   2.825   8.255
26779WAT      O80578   9.326   7.828   2.383
26779WAT     H180579   9.336   7.867   2.291
26779WAT     H280580   9.399   7.862   2.442
26780WAT      O80581   9.084   7.991   6.214
26780WAT     H180582   9.081   7.930   6.293
26780WAT     H280583   9.152   7.956   6.149
26781WAT      O80584   7.781   1.114   6.796
26781WAT     H180585   7.724   1.039   6.761
26781WAT     H280586   7.861   1.126   6.736
26782WAT      O80587   8.086   9.554   3.844
26782WAT     H180588   8.137   9.496   3.781
26782WAT     H280589   8.107   9.650   3.824
26783WAT      O80590   7.734   7.193   8.402
26783WAT     H180591   7.696   7.105   8.373
26783WAT     H280592   7.667   7.266   8.385
26784WAT      O80593   2.886   2.475   0.448
26784WAT     H180594   2.926   2.561   0.481
26784WAT     H280595   2.788   2.476   0.467
26785WAT      O80596   4.832   6.086   1.294
26785WAT     H180597   4.917   6.138   1.285
26785WAT     H280598   4.762   6.144   1.334
26786WAT      O80599   8.869   0.242   6.443
26786WAT     H180600   8.823   0.202   6.364
26786WAT     H280601   8.913   0.327   6.417
26787WAT      O80602   6.816   0.536   5.992
26787WAT     H180603   6.741   0.532   6.059
26787WAT     H280604   6.848   0.444   5.972
26788WAT      O80605   3.092   0.307   0.214
26788WAT     H180606   3.165   0.309   0.282
26788WAT     H280607   3.018   0.369   0.243
26789WAT      O80608   9.118   3.577   7.927
26789WAT     H180609   9.208   3.549   7.892
26789WAT     H280610   9.128   3.660   7.981
26790WAT      O80611   8.860   8.165   2.679
26790WAT     H180612   8.859   8.255   2.637
26790WAT     H280613   8.886   8.173   2.776
26791WAT      O80614   8.273   8.938   1.995
26791WAT     H180615   8.338   8.864   1.980
26791WAT     H280616   8.184   8.913   1.957
26792WAT      O80617   6.358   0.087   0.291
26792WAT     H180618   6.358   0.148   0.212
26792WAT     H280619   6.265   0.050   0.304
26793WAT      O80620   3.369   1.437   7.939
26793WAT     H180621   3.319   1.499   7.879
26793WAT     H280622   3.361   1.469   8.034
26794WAT      O80623   6.128   4.051   9.734
26794WAT     H180624   6.047   4.084   9.686
26794WAT     H280625   6.140   4.103   9.818
26795WAT      O80626   6.387   5.584   1.045
26795WAT     H180627   6.310   5.525   1.019
26795WAT     H280628   6.442   5.538   1.114
26796WAT      O80629   0.459   2.105   1.077
26796WAT     H180630   0.393   2.082   1.149
26796WAT     H280631   0.415   2.092   0.988
26797WAT      O80632   5.396   8.941   5.739
26797WAT     H180633   5.452   8.992   5.804
26797WAT     H280634   5.344   9.006   5.682
26798WAT      O80635   0.335   3.272   7.594
26798WAT     H180636   0.366   3.363   7.566
26798WAT     H280637   0.396   3.203   7.557
26799WAT      O80638   8.150   2.719   8.302
26799WAT     H180639   8.211   2.783   8.256
26799WAT     H280640   8.076   2.768   8.346
26800WAT      O80641   8.485   3.695   7.832
26800WAT     H180642   8.510   3.629   7.761
26800WAT     H280643   8.569   3.738   7.867
26801WAT      O80644   4.886   7.632   0.132
26801WAT     H180645   4.861   7.729   0.131
26801WAT     H280646   4.851   7.588   0.049
26802WAT      O80647   2.727   5.662   4.099
26802WAT     H180648   2.706   5.729   4.171
26802WAT     H280649   2.642   5.633   4.055
26803WAT      O80650   8.209   6.802   8.114
26803WAT     H180651   8.180   6.733   8.180
26803WAT     H280652   8.248   6.880   8.163
26804WAT      O80653   8.714   7.795   4.004
26804WAT     H180654   8.736   7.867   3.939
26804WAT     H280655   8.640   7.738   3.968
26805WAT      O80656   6.503   7.252   8.156
26805WAT     H180657   6.508   7.168   8.209
26805WAT     H280658   6.520   7.331   8.215
26806WAT      O80659   7.807   4.292   1.162
26806WAT     H180660   7.774   4.363   1.101
26806WAT     H280661   7.731   4.257   1.217
26807WAT      O80662   5.249   5.736   6.933
26807WAT     H180663   5.241   5.637   6.944
26807WAT     H280664   5.318   5.756   6.863
26808WAT      O80665   4.138   1.610   9.141
26808WAT     H180666   4.082   1.563   9.073
26808WAT     H280667   4.219   1.649   9.097
26809WAT      O80668   9.278   7.382   3.915
26809WAT     H180669   9.342   7.310   3.888
26809WAT     H280670   9.225   7.350   3.994
26810WAT      O80671   0.722   7.290   6.978
26810WAT     H180672   0.768   7.371   7.015
26810WAT     H280673   0.623   7.304   6.981
26811WAT      O80674   2.402   9.308   9.575
26811WAT     H180675   2.331   9.344   9.635
26811WAT     H280676   2.462   9.247   9.627
26812WAT      O80677   1.297   0.478   0.597
26812WAT     H180678   1.229   0.508   0.529
26812WAT     H280679   1.384   0.461   0.551
26813WAT      O80680   5.969   2.880   2.464
26813WAT     H180681   5.914   2.962   2.446
26813WAT     H280682   5.936   2.805   2.406
26814WAT      O80683   1.221   1.214   6.142
26814WAT     H180684   1.178   1.161   6.069
26814WAT     H280685   1.314   1.180   6.158
26815WAT      O80686   9.124   2.466   6.418
26815WAT     H180687   9.126   2.565   6.403
26815WAT     H280688   9.185   2.421   6.353
26816WAT      O80689   8.210   7.812   3.250
26816WAT     H180690   8.299   7.856   3.258
26816WAT     H280691   8.210   7.749   3.172
26817WAT      O80692   1.699   8.776   7.985
26817WAT     H180693   1.746   8.755   8.070
26817WAT     H280694   1.610   8.818   8.006
26818WAT      O80695   2.237   5.709   6.495
26818WAT     H180696   2.212   5.638   6.560
26818WAT     H280697   2.317   5.759   6.529
26819WAT      O80698   6.935   5.269   6.085
26819WAT     H180699   6.890   5.191   6.129
26819WAT     H280700   6.919   5.351   6.139
26820WAT      O80701   1.813   8.861   0.024
26820WAT     H180702   1.769   8.778   0.060
26820WAT     H280703   1.838   8.921   0.100
26821WAT      O80704   8.355   9.299   6.174
26821WAT     H180705   8.333   9.212   6.129
26821WAT     H280706   8.438   9.288   6.228
26822WAT      O80707   8.035   6.992   4.294
26822WAT     H180708   7.989   6.992   4.206
26822WAT     H280709   8.066   6.899   4.316
26823WAT      O80710   4.208   5.829   8.869
26823WAT     H180711   4.212   5.862   8.775
26823WAT     H280712   4.154   5.892   8.925
26824WAT      O80713   1.978   1.438   2.902
26824WAT     H180714   1.878   1.441   2.902
26824WAT     H280715   2.014   1.509   2.841
26825WAT      O80716   4.064   4.249   6.572
26825WAT     H180717   4.042   4.210   6.483
26825WAT     H280718   4.014   4.201   6.644
26826WAT      O80719   1.194   5.610   4.567
26826WAT     H180720   1.210   5.549   4.644
26826WAT     H280721   1.281   5.648   4.535
26827WAT      O80722   1.019   5.742   7.787
26827WAT     H180723   1.114   5.710   7.785
26827WAT     H280724   1.016   5.833   7.829
26828WAT      O80725   0.192   4.598   0.268
26828WAT     H180726   0.159   4.539   0.194
26828WAT     H280727   0.129   4.675   0.280
26829WAT      O80728   0.410   7.175   7.346
26829WAT     H180729   0.479   7.102   7.338
26829WAT     H280730   0.397   7.199   7.442
26830WAT      O80731   7.191   4.025   3.929
26830WAT     H180732   7.218   3.970   4.008
26830WAT     H280733   7.140   3.968   3.865
26831WAT      O80734   6.988   2.764   7.372
26831WAT     H180735   6.927   2.758   7.452
26831WAT     H280736   7.062   2.698   7.382
26832WAT      O80737   6.008   3.721   9.064
26832WAT     H180738   6.098   3.763   9.053
26832WAT     H280739   6.013   3.625   9.034
26833WAT      O80740   7.139   2.252   3.536
26833WAT     H180741   7.110   2.213   3.449
26833WAT     H280742   7.198   2.332   3.519
26834WAT      O80743   2.011   5.736   7.754
26834WAT     H180744   2.053   5.678   7.685
26834WAT     H280745   1.985   5.823   7.713
26835WAT      O80746   1.589   1.400   0.471
26835WAT     H180747   1.657   1.423   0.540
26835WAT     H280748   1.569   1.302   0.474
26836WAT      O80749   5.981   1.238   3.914
26836WAT     H180750   5.954   1.157   3.862
26836WAT     H280751   5.946   1.230   4.007
26837WAT      O80752   6.403   3.585   5.043
26837WAT     H180753   6.437   3.616   4.954
26837WAT     H280754   6.325   3.641   5.070
26838WAT      O80755   2.629   4.245   6.454
26838WAT     H180756   2.630   4.321   6.390
26838WAT     H280757   2.547   4.251   6.511
26839WAT      O80758   0.365   8.873   2.686
26839WAT     H180759   0.322   8.850   2.774
26839WAT     H280760   0.418   8.795   2.653
26840WAT      O80761   0.483   1.535   4.206
26840WAT     H180762   0.441   1.549   4.117
26840WAT     H280763   0.571   1.582   4.209
26841WAT      O80764   8.231   2.666   6.008
26841WAT     H180765   8.137   2.642   5.981
26841WAT     H280766   8.296   2.617   5.950
26842WAT      O80767   0.300   6.863   9.015
26842WAT     H180768   0.323   6.952   9.053
26842WAT     H280769   0.205   6.863   8.983
26843WAT      O80770   9.356   1.106   4.328
26843WAT     H180771   9.449   1.107   4.364
26843WAT     H280772   9.291   1.129   4.401
26844WAT      O80773   8.906   1.167   8.397
26844WAT     H180774   8.971   1.241   8.414
26844WAT     H280775   8.928   1.121   8.312
26845WAT      O80776   9.031   4.457   0.992
26845WAT     H180777   8.959   4.500   1.046
26845WAT     H280778   9.016   4.474   0.895
26846WAT      O80779   3.158   5.645   3.087
26846WAT     H180780   3.157   5.670   3.183
26846WAT     H280781   3.091   5.573   3.070
26847WAT      O80782   0.260   8.776   6.682
26847WAT     H180783   0.250   8.785   6.583
26847WAT     H280784   0.357   8.782   6.707
26848WAT      O80785   6.676   1.641   5.254
26848WAT     H180786   6.631   1.568   5.203
26848WAT     H280787   6.609   1.690   5.309
26849WAT      O80788   0.483   0.248   7.557
26849WAT     H180789   0.435   0.234   7.471
26849WAT     H280790   0.458   0.175   7.622
26850WAT      O80791   0.961   3.798   2.410
26850WAT     H180792   0.933   3.831   2.320
26850WAT     H280793   1.028   3.724   2.399
26851WAT      O80794   8.931   8.466   2.942
26851WAT     H180795   8.952   8.519   2.860
26851WAT     H280796   8.856   8.403   2.922
26852WAT      O80797   7.451   9.347   0.451
26852WAT     H180798   7.548   9.361   0.474
26852WAT     H280799   7.436   9.375   0.356
26853WAT      O80800   6.938   2.408   1.037
26853WAT     H180801   6.901   2.361   0.956
26853WAT     H280802   6.965   2.501   1.012
26854WAT      O80803   3.768   5.805   4.503
26854WAT     H180804   3.722   5.849   4.580
26854WAT     H280805   3.866   5.824   4.507
26855WAT      O80806   9.696   2.252   6.067
26855WAT     H180807   9.673   2.185   5.997
26855WAT     H280808   9.760   2.211   6.133
26856WAT      O80809   1.730   7.368   0.583
26856WAT     H180810   1.735   7.274   0.615
26856WAT     H280811   1.670   7.421   0.642
26857WAT      O80812   0.858   1.064   6.080
26857WAT     H180813   0.947   1.064   6.035
26857WAT     H280814   0.828   1.158   6.097
26858WAT      O80815   7.617   3.928   4.571
26858WAT     H180816   7.670   3.861   4.622
26858WAT     H280817   7.631   4.019   4.610
26859WAT      O80818   4.796   0.471   0.412
26859WAT     H180819   4.824   0.544   0.350
26859WAT     H280820   4.703   0.442   0.388
26860WAT      O80821   5.268   1.331   9.078
26860WAT     H180822   5.184   1.297   9.035
26860WAT     H280823   5.274   1.296   9.172
26861WAT      O80824   7.574   8.132   2.321
26861WAT     H180825   7.494   8.127   2.381
26861WAT     H280826   7.597   8.040   2.290
26862WAT      O80827   2.517   4.897   4.978
26862WAT     H180828   2.494   4.858   4.889
26862WAT     H280829   2.465   4.981   4.992
26863WAT      O80830   9.707   2.128   7.904
26863WAT     H180831   9.804   2.150   7.896
26863WAT     H280832   9.655   2.211   7.926
26864WAT      O80833   0.971   7.878   4.194
26864WAT     H180834   1.045   7.913   4.136
26864WAT     H280835   0.916   7.813   4.142
26865WAT      O80836   3.933   8.858   4.448
26865WAT     H180837   3.872   8.862   4.527
26865WAT     H280838   4.028   8.850   4.480
26866WAT      O80839   9.125   8.313   4.286
26866WAT     H180840   9.194   8.284   4.353
26866WAT     H280841   9.034   8.286   4.317
26867WAT      O80842   9.379   2.850   6.449
26867WAT     H180843   9.300   2.819   6.396
26867WAT     H280844   9.418   2.772   6.498
26868WAT      O80845   5.061   8.208   6.244
26868WAT     H180846   5.029   8.303   6.237
26868WAT     H280847   5.140   8.195   6.184
26869WAT      O80848   3.186   1.863   9.509
26869WAT     H180849   3.212   1.775   9.548
26869WAT     H280850   3.268   1.915   9.486
26870WAT      O80851   1.808   0.450   4.301
26870WAT     H180852   1.833   0.516   4.372
26870WAT     H280853   1.889   0.398   4.274
26871WAT      O80854   1.002   8.464   4.439
26871WAT     H180855   0.955   8.437   4.523
26871WAT     H280856   0.967   8.551   4.407
26872WAT      O80857   6.881   1.913   3.708
26872WAT     H180858   6.806   1.977   3.700
26872WAT     H280859   6.950   1.933   3.639
26873WAT      O80860   8.036   2.099   6.679
26873WAT     H180861   8.083   2.035   6.740
26873WAT     H280862   8.097   2.176   6.658
26874WAT      O80863   8.993   3.343   3.325
26874WAT     H180864   9.089   3.328   3.298
26874WAT     H280865   8.987   3.354   3.424
26875WAT      O80866   7.973   3.645   1.371
26875WAT     H180867   8.039   3.704   1.325
26875WAT     H280868   7.978   3.660   1.470
26876WAT      O80869   4.816   8.683   1.597
26876WAT     H180870   4.744   8.732   1.548
26876WAT     H280871   4.901   8.735   1.593
26877WAT      O80872   0.339   3.394   3.446
26877WAT     H180873   0.376   3.392   3.352
26877WAT     H280874   0.267   3.325   3.455
26878WAT      O80875   1.203   9.675   7.707
26878WAT     H180876   1.167   9.582   7.713
26878WAT     H280877   1.132   9.737   7.675
26879WAT      O80878   1.494   7.036   6.390
26879WAT     H180879   1.442   7.117   6.361
26879WAT     H280880   1.458   7.003   6.477
26880WAT      O80881   8.047   3.895   0.560
26880WAT     H180882   8.090   3.970   0.610
26880WAT     H280883   8.117   3.829   0.532
26881WAT      O80884   1.832   2.890   5.106
26881WAT     H180885   1.749   2.851   5.066
26881WAT     H280886   1.912   2.845   5.066
26882WAT      O80887   6.610   7.321   5.951
26882WAT     H180888   6.697   7.272   5.963
26882WAT     H280889   6.536   7.256   5.938
26883WAT      O80890   7.872   4.778   1.985
26883WAT     H180891   7.964   4.818   1.986
26883WAT     H280892   7.822   4.811   1.905
26884WAT      O80893   2.228   1.250   4.439
26884WAT     H180894   2.131   1.275   4.450
26884WAT     H280895   2.283   1.301   4.503
26885WAT      O80896   8.496   5.032   3.314
26885WAT     H180897   8.553   5.027   3.396
26885WAT     H280898   8.418   4.971   3.324
26886WAT      O80899   9.106   8.667   1.984
26886WAT     H180900   9.065   8.597   2.042
26886WAT     H280901   9.198   8.639   1.957
26887WAT      O80902   5.964   8.362   6.198
26887WAT     H180903   5.967   8.425   6.120
26887WAT     H280904   5.908   8.402   6.270
26888WAT      O80905   5.151   3.377   8.414
26888WAT     H180906   5.123   3.344   8.504
26888WAT     H280907   5.176   3.474   8.420
26889WAT      O80908   4.959   1.831   5.092
26889WAT     H180909   4.960   1.930   5.104
26889WAT     H280910   5.043   1.791   5.127
26890WAT      O80911   8.854   0.151   8.590
26890WAT     H180912   8.875   0.113   8.680
26890WAT     H280913   8.775   0.103   8.551
26891WAT      O80914   5.438   9.088   7.632
26891WAT     H180915   5.385   9.064   7.713
26891WAT     H280916   5.512   9.150   7.657
26892WAT      O80917   2.569   1.488   0.213
26892WAT     H180918   2.505   1.455   0.144
26892WAT     H280919   2.663   1.484   0.177
26893WAT      O80920   9.184   8.790   9.091
26893WAT     H180921   9.248   8.834   9.029
26893WAT     H280922   9.186   8.691   9.077
26894WAT      O80923   6.752   2.949   0.272
26894WAT     H180924   6.693   3.028   0.257
26894WAT     H280925   6.788   2.951   0.365
26895WAT      O80926   8.080   2.535   4.820
26895WAT     H180927   8.169   2.498   4.844
26895WAT     H280928   8.091   2.608   4.753
26896WAT      O80929   4.862   1.702   0.212
26896WAT     H180930   4.923   1.759   0.157
26896WAT     H280931   4.804   1.761   0.269
26897WAT      O80932   2.943   1.325   5.452
26897WAT     H180933   3.002   1.276   5.388
26897WAT     H280934   2.974   1.420   5.459
26898WAT      O80935   8.530   0.158   7.403
26898WAT     H180936   8.582   0.077   7.377
26898WAT     H280937   8.453   0.132   7.461
26899WAT      O80938   8.639   8.863   7.055
26899WAT     H180939   8.542   8.886   7.060
26899WAT     H280940   8.650   8.768   7.026
26900WAT      O80941   7.859   1.052   7.375
26900WAT     H180942   7.923   1.030   7.449
26900WAT     H280943   7.890   1.135   7.328
26901WAT      O80944   7.301   2.384   1.543
26901WAT     H180945   7.332   2.451   1.476
26901WAT     H280946   7.316   2.292   1.507
26902WAT      O80947   3.440   1.855   6.448
26902WAT     H180948   3.488   1.940   6.429
26902WAT     H280949   3.459   1.825   6.542
26903WAT      O80950   3.054   2.390   0.191
26903WAT     H180951   3.012   2.359   0.105
26903WAT     H280952   3.043   2.319   0.260
26904WAT      O80953   5.522   4.313   3.888
26904WAT     H180954   5.430   4.353   3.892
26904WAT     H280955   5.578   4.349   3.963
26905WAT      O80956   8.411   7.078   1.404
26905WAT     H180957   8.365   6.991   1.382
26905WAT     H280958   8.359   7.125   1.475
26906WAT      O80959   7.235   6.525   7.530
26906WAT     H180960   7.142   6.507   7.497
26906WAT     H280961   7.246   6.488   7.622
26907WAT      O80962   5.969   2.698   8.183
26907WAT     H180963   6.016   2.703   8.094
26907WAT     H280964   5.871   2.691   8.168
26908WAT      O80965   0.995   6.764   8.105
26908WAT     H180966   0.970   6.796   8.014
26908WAT     H280967   0.926   6.795   8.171
26909WAT      O80968   1.650   1.482   4.982
26909WAT     H180969   1.629   1.385   4.968
26909WAT     H280970   1.565   1.536   4.973
26910WAT      O80971   4.668   1.149   0.641
26910WAT     H180972   4.765   1.154   0.618
26910WAT     H280973   4.633   1.242   0.658
26911WAT      O80974   1.245   4.564   5.461
26911WAT     H180975   1.193   4.611   5.390
26911WAT     H280976   1.192   4.487   5.496
26912WAT      O80977   6.733   0.468   5.567
26912WAT     H180978   6.747   0.556   5.614
26912WAT     H280979   6.661   0.417   5.612
26913WAT      O80980   3.499   9.582   5.075
26913WAT     H180981   3.462   9.542   4.991
26913WAT     H280982   3.510   9.681   5.063
26914WAT      O80983   7.564   4.134   4.100
26914WAT     H180984   7.566   4.223   4.145
26914WAT     H280985   7.603   4.065   4.161
26915WAT      O80986   4.618   1.353   2.823
26915WAT     H180987   4.711   1.317   2.820
26915WAT     H280988   4.619   1.447   2.856
26916WAT      O80989   0.802   1.469   7.872
26916WAT     H180990   0.875   1.475   7.939
26916WAT     H280991   0.733   1.539   7.891
26917WAT      O80992   9.255   3.299   3.274
26917WAT     H180993   9.248   3.246   3.190
26917WAT     H280994   9.282   3.239   3.350
26918WAT      O80995   9.870   6.601   5.629
26918WAT     H180996   9.782   6.564   5.603
26918WAT     H280997   9.937   6.527   5.639
26919WAT      O80998   2.685   0.689   0.697
26919WAT     H180999   2.741   0.607   0.687
26919WAT     H281000   2.735   0.757   0.750
26920WAT      O81001   9.456   8.349   7.487
26920WAT     H181002   9.420   8.261   7.518
26920WAT     H281003   9.490   8.342   7.393
26921WAT      O81004   6.354   5.892   1.712
26921WAT     H181005   6.391   5.952   1.783
26921WAT     H281006   6.274   5.843   1.748
26922WAT      O81007   4.165   9.253   0.197
26922WAT     H181008   4.140   9.168   0.151
26922WAT     H281009   4.261   9.248   0.225
26923WAT      O81010   2.859   9.260   9.384
26923WAT     H181011   2.894   9.174   9.420
26923WAT     H281012   2.936   9.320   9.361
26924WAT      O81013   2.591   4.350   9.797
26924WAT     H181014   2.506   4.309   9.764
26924WAT     H281015   2.664   4.282   9.793
26925WAT      O81016   5.004   4.119   8.421
26925WAT     H181017   5.042   4.143   8.510
26925WAT     H281018   5.054   4.040   8.384
26926WAT      O81019   1.143   7.621   6.095
26926WAT     H181020   1.085   7.612   6.177
26926WAT     H281021   1.236   7.644   6.123
26927WAT      O81022   1.594   1.629   3.404
26927WAT     H181023   1.534   1.630   3.484
26927WAT     H281024   1.542   1.600   3.324
26928WAT      O81025   3.266   3.546   8.541
26928WAT     H181026   3.173   3.521   8.514
26928WAT     H281027   3.332   3.496   8.484
26929WAT      O81028   1.076   3.600   2.687
26929WAT     H181029   1.087   3.699   2.690
26929WAT     H281030   0.982   3.578   2.662
26930WAT      O81031   2.612   2.313   1.477
26930WAT     H181032   2.585   2.399   1.434
26930WAT     H281033   2.569   2.305   1.567
26931WAT      O81034   2.211   6.851   4.333
26931WAT     H181035   2.263   6.923   4.288
26931WAT     H281036   2.271   6.802   4.397
26932WAT      O81037   1.416   7.386   4.675
26932WAT     H181038   1.387   7.295   4.646
26932WAT     H281039   1.513   7.398   4.656
26933WAT      O81040   5.341   2.985   2.963
26933WAT     H181041   5.367   3.074   2.924
26933WAT     H281042   5.289   2.999   3.047
26934WAT      O81043   3.882   2.966   9.032
26934WAT     H181044   3.932   3.047   9.064
26934WAT     H281045   3.903   2.949   8.936
26935WAT      O81046   4.317   0.661   4.326
26935WAT     H181047   4.369   0.607   4.392
26935WAT     H281048   4.227   0.620   4.312
26936WAT      O81049   3.059   3.917   4.267
26936WAT     H181050   3.095   4.010   4.265
26936WAT     H281051   3.103   3.862   4.196
26937WAT      O81052   4.291   8.877   3.743
26937WAT     H181053   4.223   8.926   3.796
26937WAT     H281054   4.319   8.794   3.792
26938WAT      O81055   6.164   8.518   3.619
26938WAT     H181056   6.122   8.556   3.537
26938WAT     H281057   6.190   8.423   3.603
26939WAT      O81058   1.168   0.598   2.576
26939WAT     H181059   1.109   0.647   2.640
26939WAT     H281060   1.202   0.515   2.619
26940WAT      O81061   4.041   3.211   5.389
26940WAT     H181062   3.965   3.256   5.343
26940WAT     H281063   4.057   3.256   5.477
26941WAT      O81064   3.888   3.259   4.338
26941WAT     H181065   3.894   3.209   4.251
26941WAT     H281066   3.799   3.241   4.380
26942WAT      O81067   3.090   0.495   1.251
26942WAT     H181068   3.081   0.483   1.152
26942WAT     H281069   3.109   0.407   1.294
26943WAT      O81070   6.838   6.636   1.035
26943WAT     H181071   6.837   6.733   1.060
26943WAT     H281072   6.758   6.616   0.979
26944WAT      O81073   0.853   4.686   7.383
26944WAT     H181074   0.924   4.626   7.346
26944WAT     H281075   0.876   4.781   7.362
26945WAT      O81076   6.959   5.301   8.816
26945WAT     H181077   6.873   5.273   8.858
26945WAT     H281078   6.975   5.245   8.734
26946WAT      O81079   5.390   6.504   8.843
26946WAT     H181080   5.293   6.491   8.862
26946WAT     H281081   5.410   6.602   8.836
26947WAT      O81082   1.808   3.182   5.098
26947WAT     H181083   1.750   3.176   5.017
26947WAT     H281084   1.846   3.091   5.118
26948WAT      O81085   9.670   1.182   7.675
26948WAT     H181086   9.696   1.261   7.730
26948WAT     H281087   9.570   1.174   7.675
26949WAT      O81088   7.718   4.165   4.619
26949WAT     H181089   7.798   4.149   4.677
26949WAT     H281090   7.732   4.248   4.565
26950WAT      O81091   2.086   6.223   8.267
26950WAT     H181092   2.041   6.159   8.330
26950WAT     H281093   2.018   6.267   8.209
26951WAT      O81094   8.720   1.485   9.737
26951WAT     H181095   8.671   1.457   9.654
26951WAT     H281096   8.702   1.582   9.754
26952WAT      O81097   2.509   6.487   6.516
26952WAT     H181098   2.452   6.537   6.451
26952WAT     H281099   2.541   6.403   6.474
26953WAT      O81100   9.239   6.901   6.254
26953WAT     H181101   9.162   6.912   6.191
26953WAT     H281102   9.324   6.924   6.206
26954WAT      O81103   6.192   2.403   1.658
26954WAT     H181104   6.195   2.368   1.565
26954WAT     H281105   6.144   2.490   1.660
26955WAT      O81106   1.288   9.226   1.771
26955WAT     H181107   1.372   9.277   1.753
26955WAT     H281108   1.249   9.256   1.859
26956WAT      O81109   2.795   4.658   4.452
26956WAT     H181110   2.814   4.561   4.468
26956WAT     H281111   2.870   4.699   4.400
26957WAT      O81112   2.287   0.962   2.564
26957WAT     H181113   2.189   0.958   2.547
26957WAT     H281114   2.307   1.034   2.631
26958WAT      O81115   4.347   5.631   6.390
26958WAT     H181116   4.285   5.673   6.456
26958WAT     H281117   4.439   5.665   6.404
26959WAT      O81118   7.644   6.017   8.536
26959WAT     H181119   7.738   5.990   8.554
26959WAT     H281120   7.614   5.978   8.449
26960WAT      O81121   0.673   4.988   6.989
26960WAT     H181122   0.634   5.033   6.909
26960WAT     H281123   0.662   5.048   7.069
26961WAT      O81124   1.376   3.276   7.256
26961WAT     H181125   1.388   3.304   7.352
26961WAT     H281126   1.409   3.182   7.245
26962WAT      O81127   2.380   3.649   9.154
26962WAT     H181128   2.286   3.622   9.134
26962WAT     H281129   2.383   3.699   9.241
26963WAT      O81130   5.368   7.666   9.346
26963WAT     H181131   5.362   7.732   9.271
26963WAT     H281132   5.337   7.576   9.315
26964WAT      O81133   8.276   6.447   8.891
26964WAT     H181134   8.285   6.501   8.807
26964WAT     H281135   8.201   6.484   8.946
26965WAT      O81136   0.891   0.109   6.758
26965WAT     H181137   0.799   0.135   6.787
26965WAT     H281138   0.900   0.124   6.659
26966WAT      O81139   0.730   9.285   6.530
26966WAT     H181140   0.701   9.282   6.625
26966WAT     H281141   0.652   9.311   6.472
26967WAT      O81142   9.695   5.342   9.168
26967WAT     H181143   9.645   5.399   9.103
26967WAT     H281144   9.712   5.394   9.252
26968WAT      O81145   1.374   6.942   6.662
26968WAT     H181146   1.304   6.891   6.712
26968WAT     H281147   1.464   6.921   6.699
26969WAT      O81148   5.709   2.974   9.006
26969WAT     H181149   5.707   3.036   9.084
26969WAT     H281150   5.744   2.885   9.036
26970WAT      O81151   8.535   5.250   1.853
26970WAT     H181152   8.558   5.329   1.797
26970WAT     H281153   8.449   5.211   1.822
26971WAT      O81154   5.121   0.038   7.013
26971WAT     H181155   5.025   0.040   6.988
26971WAT     H281156   5.157   0.132   7.015
26972WAT      O81157   6.228   5.360   3.024
26972WAT     H181158   6.205   5.263   3.033
26972WAT     H281159   6.162   5.415   3.075
26973WAT      O81160   6.588   3.123   9.837
26973WAT     H181161   6.682   3.110   9.808
26973WAT     H281162   6.528   3.064   9.783
26974WAT      O81163   7.488   7.339   2.344
26974WAT     H181164   7.519   7.272   2.412
26974WAT     H281165   7.556   7.344   2.270
26975WAT      O81166   2.388   3.405   0.198
26975WAT     H181167   2.359   3.309   0.192
26975WAT     H281168   2.314   3.464   0.167
26976WAT      O81169   1.106   1.651   3.792
26976WAT     H181170   1.191   1.701   3.809
26976WAT     H281171   1.124   1.553   3.788
26977WAT      O81172   5.946   9.503   4.535
26977WAT     H181173   5.868   9.565   4.546
26977WAT     H281174   6.028   9.555   4.511
26978WAT      O81175   6.768   4.204   4.584
26978WAT     H181176   6.771   4.184   4.682
26978WAT     H281177   6.850   4.166   4.541
26979WAT      O81178   5.507   1.012   1.905
26979WAT     H181179   5.506   1.110   1.926
26979WAT     H281180   5.484   0.999   1.808
26980WAT      O81181   2.785   8.438   4.874
26980WAT     H181182   2.863   8.492   4.905
26980WAT     H281183   2.818   8.356   4.827
26981WAT      O81184   6.625   6.548   9.633
26981WAT     H181185   6.597   6.622   9.573
26981WAT     H281186   6.616   6.577   9.729
26982WAT      O81187   2.226   2.551   4.771
26982WAT     H181188   2.304   2.613   4.774
26982WAT     H281189   2.219   2.500   4.857
26983WAT      O81190   8.786   6.034   3.065
26983WAT     H181191   8.791   5.940   3.032
26983WAT     H281192   8.813   6.038   3.161
26984WAT      O81193   6.523   7.679   0.408
26984WAT     H181194   6.611   7.717   0.379
26984WAT     H281195   6.474   7.644   0.329
26985WAT      O81196   5.707   9.093   8.008
26985WAT     H181197   5.800   9.060   8.024
26985WAT     H281198   5.645   9.015   8.005
26986WAT      O81199   8.751   9.161   6.488
26986WAT     H181200   8.845   9.130   6.470
26986WAT     H281201   8.713   9.109   6.564
26987WAT      O81202   8.892   6.048   8.574
26987WAT     H181203   8.806   6.015   8.614
26987WAT     H281204   8.872   6.113   8.501
26988WAT      O81205   2.001   5.276   6.871
26988WAT     H181206   1.935   5.334   6.822
26988WAT     H281207   2.091   5.320   6.871
26989WAT      O81208   0.748   2.807   5.120
26989WAT     H181209   0.808   2.736   5.156
26989WAT     H281210   0.720   2.868   5.194
26990WAT      O81211   9.576   8.879   5.384
26990WAT     H181212   9.493   8.879   5.439
26990WAT     H281213   9.592   8.787   5.347
26991WAT      O81214   0.584   9.362   3.767
26991WAT     H181215   0.509   9.352   3.833
26991WAT     H281216   0.568   9.443   3.711
26992WAT      O81217   6.332   2.730   4.412
26992WAT     H181218   6.269   2.769   4.479
26992WAT     H281219   6.321   2.776   4.324
26993WAT      O81220   5.888   8.333   5.881
26993WAT     H181221   5.930   8.422   5.899
26993WAT     H281222   5.790   8.339   5.898
26994WAT      O81223   0.177   5.600   9.795
26994WAT     H181224   0.208   5.591   9.701
26994WAT     H281225   0.237   5.547   9.855
26995WAT      O81226   3.051   6.089   0.575
26995WAT     H181227   3.048   6.187   0.595
26995WAT     H281228   3.049   6.037   0.660
26996WAT      O81229   7.146   3.222   5.944
26996WAT     H181230   7.154   3.220   6.044
26996WAT     H281231   7.122   3.314   5.914
26997WAT      O81232   3.020   7.009   3.547
26997WAT     H181233   3.005   7.105   3.573
26997WAT     H281234   3.082   6.966   3.612
26998WAT      O81235   4.521   2.410   9.689
26998WAT     H181236   4.602   2.401   9.748
26998WAT     H281237   4.533   2.486   9.626
26999WAT      O81238   3.509   2.779   1.881
26999WAT     H181239   3.508   2.684   1.851
26999WAT     H281240   3.535   2.838   1.804
27000WAT      O81241   4.654   0.463   4.059
27000WAT     H181242   4.660   0.396   4.134
27000WAT     H281243   4.638   0.554   4.097
27001WAT      O81244   3.679   0.840   7.523
27001WAT     H181245   3.649   0.799   7.609
27001WAT     H281246   3.709   0.934   7.540
27002WAT      O81247   9.310   3.857   8.994
27002WAT     H181248   9.332   3.774   9.044
27002WAT     H281249   9.365   3.933   9.030
27003WAT      O81250   7.429   7.882   9.203
27003WAT     H181251   7.389   7.939   9.131
27003WAT     H281252   7.528   7.874   9.189
27004WAT      O81253   8.117   2.956   8.693
27004WAT     H181254   8.190   2.919   8.750
27004WAT     H281255   8.136   3.052   8.672
27005WAT      O81256   9.076   1.449   0.878
27005WAT     H181257   9.045   1.475   0.787
27005WAT     H281258   8.998   1.419   0.933
27006WAT      O81259   0.895   4.709   5.870
27006WAT     H181260   0.854   4.800   5.858
27006WAT     H281261   0.932   4.702   5.963
27007WAT      O81262   3.422   8.433   0.607
27007WAT     H181263   3.383   8.430   0.515
27007WAT     H281264   3.476   8.516   0.618
27008WAT      O81265   0.876   4.033   1.824
27008WAT     H181266   0.783   3.997   1.814
27008WAT     H281267   0.928   4.014   1.741
27009WAT      O81268   6.967   0.896   3.377
27009WAT     H181269   7.037   0.961   3.403
27009WAT     H281270   6.987   0.859   3.286
27010WAT      O81271   9.649   3.248   6.954
27010WAT     H181272   9.578   3.212   6.894
27010WAT     H281273   9.706   3.313   6.903
27011WAT      O81274   8.825   9.411   7.323
27011WAT     H181275   8.910   9.456   7.297
27011WAT     H281276   8.749   9.452   7.274
27012WAT      O81277   1.097   0.544   1.039
27012WAT     H181278   1.053   0.537   0.949
27012WAT     H281279   1.190   0.507   1.034
27013WAT      O81280   4.509   3.905   9.671
27013WAT     H181281   4.593   3.898   9.725
27013WAT     H281282   4.530   3.945   9.582
27014WAT      O81283   1.980   3.869   6.976
27014WAT     H181284   1.902   3.847   6.917
27014WAT     H281285   2.062   3.878   6.920
27015WAT      O81286   0.857   9.158   4.039
27015WAT     H181287   0.880   9.069   4.078
27015WAT     H281288   0.765   9.185   4.068
27016WAT      O81289   6.982   4.097   9.173
27016WAT     H181290   6.977   4.135   9.081
27016WAT     H281291   6.957   4.001   9.171
27017WAT      O81292   0.001   8.430   9.599
27017WAT     H181293   0.086   8.389   9.565
27017WAT     H281294   0.023   8.495   9.672
27018WAT      O81295   1.033   8.086   2.975
27018WAT     H181296   0.965   8.013   2.981
27018WAT     H281297   1.118   8.051   2.937
27019WAT      O81298   6.544   5.133   1.186
27019WAT     H181299   6.621   5.072   1.165
27019WAT     H281300   6.502   5.104   1.273
27020WAT      O81301   0.951   8.396   6.278
27020WAT     H181302   0.907   8.320   6.230
27020WAT     H281303   1.016   8.441   6.217
27021WAT      O81304   0.437   7.690   4.297
27021WAT     H181305   0.466   7.751   4.224
27021WAT     H281306   0.512   7.627   4.319
27022WAT      O81307   5.567   3.200   6.434
27022WAT     H181308   5.503   3.257   6.486
27022WAT     H281309   5.515   3.133   6.380
27023WAT      O81310   7.555   6.063   5.644
27023WAT     H181311   7.583   6.053   5.549
27023WAT     H281312   7.626   6.113   5.694
27024WAT      O81313   3.255   8.755   9.598
27024WAT     H181314   3.202   8.717   9.522
27024WAT     H281315   3.303   8.837   9.567
27025WAT      O81316   7.844   6.406   0.205
27025WAT     H181317   7.933   6.414   0.250
27025WAT     H281318   7.779   6.469   0.247
27026WAT      O81319   9.517   2.099   6.597
27026WAT     H181320   9.526   2.194   6.569
27026WAT     H281321   9.562   2.039   6.530
27027WAT      O81322   7.696   2.862   6.240
27027WAT     H181323   7.635   2.820   6.308
27027WAT     H281324   7.730   2.791   6.178
27028WAT      O81325   4.682   6.924   3.937
27028WAT     H181326   4.645   6.838   3.972
27028WAT     H281327   4.719   6.978   4.013
27029WAT      O81328   3.580   3.741   3.337
27029WAT     H181329   3.647   3.684   3.290
27029WAT     H281330   3.549   3.695   3.420
27030WAT      O81331   3.317   1.089   6.296
27030WAT     H181332   3.378   1.094   6.217
27030WAT     H281333   3.368   1.106   6.380
27031WAT      O81334   5.562   6.031   8.142
27031WAT     H181335   5.634   6.038   8.072
27031WAT     H281336   5.474   6.051   8.101
27032WAT      O81337   1.756   8.286   4.602
27032WAT     H181338   1.830   8.277   4.535
27032WAT     H281339   1.781   8.353   4.672
27033WAT      O81340   2.913   4.634   5.557
27033WAT     H181341   2.814   4.626   5.550
27033WAT     H281342   2.943   4.721   5.518
27034WAT      O81343   0.844   0.370   8.337
27034WAT     H181344   0.812   0.331   8.424
27034WAT     H281345   0.777   0.438   8.305
27035WAT      O81346   0.208   5.202   8.653
27035WAT     H181347   0.218   5.166   8.746
27035WAT     H281348   0.118   5.180   8.617
27036WAT      O81349   2.474   2.684   3.924
27036WAT     H181350   2.545   2.634   3.874
27036WAT     H281351   2.508   2.775   3.949
27037WAT      O81352   8.031   0.720   9.700
27037WAT     H181353   7.989   0.787   9.639
27037WAT     H281354   8.016   0.747   9.795
27038WAT      O81355   1.092   9.467   5.811
27038WAT     H181356   1.038   9.432   5.735
27038WAT     H281357   1.035   9.475   5.893
27039WAT      O81358   2.410   9.498   1.477
27039WAT     H181359   2.404   9.415   1.421
27039WAT     H281360   2.419   9.577   1.416
27040WAT      O81361   0.243   3.041   0.342
27040WAT     H181362   0.243   2.967   0.410
27040WAT     H281363   0.173   3.024   0.274
27041WAT      O81364   7.879   4.398   6.683
27041WAT     H181365   7.841   4.311   6.713
27041WAT     H281366   7.892   4.397   6.583
27042WAT      O81367   3.043   5.479   9.203
27042WAT     H181368   3.012   5.390   9.170
27042WAT     H281369   3.020   5.489   9.300
27043WAT      O81370   3.018   7.190   2.375
27043WAT     H181371   2.922   7.177   2.398
27043WAT     H281372   3.033   7.165   2.280
27044WAT      O81373   7.410   8.299   6.166
27044WAT     H181374   7.400   8.308   6.265
27044WAT     H281375   7.331   8.251   6.129
27045WAT      O81376   5.908   8.642   7.858
27045WAT     H181377   5.942   8.554   7.823
27045WAT     H281378   5.829   8.670   7.805
27046WAT      O81379   4.026   3.089   1.085
27046WAT     H181380   3.954   3.081   1.017
27046WAT     H281381   4.114   3.065   1.043
27047WAT      O81382   8.041   2.865   5.818
27047WAT     H181383   8.000   2.790   5.768
27047WAT     H281384   8.137   2.843   5.840
27048WAT      O81385   5.980   4.155   6.384
27048WAT     H181386   6.037   4.091   6.436
27048WAT     H281387   5.911   4.104   6.333
27049WAT      O81388   4.370   0.684   9.516
27049WAT     H181389   4.388   0.592   9.550
27049WAT     H281390   4.449   0.716   9.463
27050WAT      O81391   4.941   2.865   6.175
27050WAT     H181392   4.949   2.800   6.250
27050WAT     H281393   5.005   2.840   6.102
27051WAT      O81394   5.439   0.078   3.019
27051WAT     H181395   5.493   0.159   3.041
27051WAT     H281396   5.494   0.014   2.967
27052WAT      O81397   3.303   7.968   3.160
27052WAT     H181398   3.371   7.901   3.129
27052WAT     H281399   3.222   7.920   3.194
27053WAT      O81400   7.112   9.682   1.043
27053WAT     H181401   7.052   9.722   0.974
27053WAT     H281402   7.163   9.755   1.090
27054WAT      O81403   0.660   1.493   4.594
27054WAT     H181404   0.755   1.464   4.579
27054WAT     H281405   0.602   1.452   4.523
27055WAT      O81406   5.430   3.047   1.271
27055WAT     H181407   5.447   2.974   1.205
27055WAT     H281408   5.501   3.117   1.263
27056WAT      O81409   9.100   2.846   0.446
27056WAT     H181410   9.164   2.802   0.510
27056WAT     H281411   9.011   2.801   0.451
27057WAT      O81412   2.816   9.580   0.723
27057WAT     H181413   2.884   9.517   0.762
27057WAT     H281414   2.731   9.573   0.774
27058WAT      O81415   2.312   3.356   1.265
27058WAT     H181416   2.271   3.299   1.194
27058WAT     H281417   2.244   3.371   1.338
27059WAT      O81418   3.863   2.101   2.109
27059WAT     H181419   3.932   2.063   2.171
27059WAT     H281420   3.867   2.201   2.112
27060WAT      O81421   3.828   9.522   2.354
27060WAT     H181422   3.755   9.535   2.287
27060WAT     H281423   3.808   9.441   2.409
27061WAT      O81424   5.156   3.013   4.297
27061WAT     H181425   5.188   3.003   4.391
27061WAT     H281426   5.112   2.928   4.267
27062WAT      O81427   6.974   9.690   0.127
27062WAT     H181428   6.978   9.692   0.027
27062WAT     H281429   6.934   9.775   0.161
27063WAT      O81430   0.460   4.274   3.445
27063WAT     H181431   0.454   4.330   3.362
27063WAT     H281432   0.414   4.186   3.430
27064WAT      O81433   7.972   0.848   3.982
27064WAT     H181434   7.946   0.822   3.889
27064WAT     H281435   7.891   0.850   4.040
27065WAT      O81436   2.341   6.861   5.126
27065WAT     H181437   2.290   6.944   5.104
27065WAT     H281438   2.388   6.873   5.214
27066WAT      O81439   3.931   0.653   8.651
27066WAT     H181440   3.909   0.564   8.690
27066WAT     H281441   3.912   0.725   8.718
27067WAT      O81442   5.272   4.982   1.802
27067WAT     H181443   5.256   4.883   1.798
27067WAT     H281444   5.185   5.030   1.787
27068WAT      O81445   1.503   5.403   2.729
27068WAT     H181446   1.595   5.442   2.736
27068WAT     H281447   1.478   5.396   2.632
27069WAT      O81448   9.487   4.041   7.720
27069WAT     H181449   9.498   4.140   7.730
27069WAT     H281450   9.453   4.021   7.627
27070WAT      O81451   7.331   7.072   8.515
27070WAT     H181452   7.398   7.051   8.586
27070WAT     H281453   7.342   7.168   8.486
27071WAT      O81454   8.607   9.149   4.399
27071WAT     H181455   8.666   9.096   4.460
27071WAT     H281456   8.662   9.217   4.350
27072WAT      O81457   2.793   9.769   8.543
27072WAT     H181458   2.786   9.671   8.524
27072WAT     H281459   2.703   9.805   8.568
27073WAT      O81460   5.537   6.437   5.575
27073WAT     H181461   5.507   6.354   5.528
27073WAT     H281462   5.636   6.434   5.587
27074WAT      O81463   3.575   8.706   0.385
27074WAT     H181464   3.626   8.624   0.411
27074WAT     H281465   3.532   8.692   0.296
27075WAT      O81466   1.294   4.697   6.235
27075WAT     H181467   1.323   4.607   6.201
27075WAT     H281468   1.375   4.753   6.254
27076WAT      O81469   4.822   3.761   8.902
27076WAT     H181470   4.907   3.781   8.950
27076WAT     H281471   4.756   3.834   8.919
27077WAT      O81472   6.216   8.327   4.700
27077WAT     H181473   6.292   8.380   4.739
27077WAT     H281474   6.231   8.230   4.718
27078WAT      O81475   7.532   2.132   1.643
27078WAT     H181476   7.511   2.035   1.646
27078WAT     H281477   7.625   2.147   1.677
27079WAT      O81478   9.139   3.249   1.140
27079WAT     H181479   9.190   3.305   1.075
27079WAT     H281480   9.201   3.216   1.211
27080WAT      O81481   0.381   4.212   7.243
27080WAT     H181482   0.465   4.179   7.198
27080WAT     H281483   0.392   4.308   7.269
27081WAT      O81484   7.140   1.150   6.519
27081WAT     H181485   7.140   1.085   6.595
27081WAT     H281486   7.184   1.235   6.548
27082WAT      O81487   0.445   6.613   8.873
27082WAT     H181488   0.520   6.576   8.818
27082WAT     H281489   0.478   6.633   8.965
27083WAT      O81490   6.447   4.964   7.731
27083WAT     H181491   6.498   5.024   7.793
27083WAT     H281492   6.511   4.905   7.682
27084WAT      O81493   0.753   4.579   0.995
27084WAT     H181494   0.804   4.511   1.047
27084WAT     H281495   0.665   4.596   1.039
27085WAT      O81496   7.467   0.499   7.318
27085WAT     H181497   7.519   0.584   7.324
27085WAT     H281498   7.392   0.510   7.252
27086WAT      O81499   6.587   8.044   3.146
27086WAT     H181500   6.582   7.961   3.201
27086WAT     H281501   6.506   8.100   3.162
27087WAT      O81502   1.696   3.353   1.770
27087WAT     H181503   1.634   3.278   1.793
27087WAT     H281504   1.642   3.435   1.748
27088WAT      O81505   5.864   0.883   7.177
27088WAT     H181506   5.834   0.977   7.162
27088WAT     H281507   5.964   0.880   7.183
27089WAT      O81508   5.103   3.189   4.598
27089WAT     H181509   5.007   3.164   4.612
27089WAT     H281510   5.109   3.259   4.527
27090WAT      O81511   5.135   0.973   3.446
27090WAT     H181512   5.139   0.912   3.367
27090WAT     H281513   5.224   0.977   3.491
27091WAT      O81514   7.838   6.662   7.318
27091WAT     H181515   7.766   6.596   7.299
27091WAT     H281516   7.924   6.630   7.277
27092WAT      O81517   3.346   0.707   8.391
27092WAT     H181518   3.349   0.714   8.491
27092WAT     H281519   3.423   0.758   8.352
27093WAT      O81520   7.023   8.018   8.662
27093WAT     H181521   7.032   7.929   8.706
27093WAT     H281522   7.005   8.005   8.565
27094WAT      O81523   7.857   4.556   5.646
27094WAT     H181524   7.764   4.589   5.666
27094WAT     H281525   7.923   4.624   5.675
27095WAT      O81526   5.057   0.447   9.439
27095WAT     H181527   5.007   0.534   9.438
27095WAT     H281528   5.002   0.376   9.394
27096WAT      O81529   2.460   3.643   1.461
27096WAT     H181530   2.560   3.651   1.456
27096WAT     H281531   2.428   3.683   1.547
27097WAT      O81532   0.174   5.696   5.493
27097WAT     H181533   0.093   5.734   5.540
27097WAT     H281534   0.257   5.730   5.537
27098WAT      O81535   3.625   5.351   2.497
27098WAT     H181536   3.575   5.283   2.551
27098WAT     H281537   3.617   5.329   2.400
27099WAT      O81538   6.323   3.993   7.330
27099WAT     H181539   6.315   3.942   7.415
27099WAT     H281540   6.278   4.082   7.340
27100WAT      O81541   1.844   7.654   1.913
27100WAT     H181542   1.822   7.574   1.968
27100WAT     H281543   1.942   7.675   1.922
27101WAT      O81544   9.429   8.045   8.970
27101WAT     H181545   9.508   8.105   8.957
27101WAT     H281546   9.345   8.096   8.952
27102WAT      O81547   8.157   7.115   7.460
27102WAT     H181548   8.077   7.170   7.485
27102WAT     H281549   8.193   7.070   7.542
27103WAT      O81550   7.900   0.370   1.144
27103WAT     H181551   7.882   0.347   1.048
27103WAT     H281552   7.910   0.469   1.152
27104WAT      O81553   8.585   8.890   0.159
27104WAT     H181554   8.646   8.920   0.086
27104WAT     H281555   8.619   8.805   0.198
27105WAT      O81556   1.215   9.458   8.899
27105WAT     H181557   1.127   9.471   8.945
27105WAT     H281558   1.200   9.424   8.806
27106WAT      O81559   7.410   5.123   5.974
27106WAT     H181560   7.316   5.155   5.962
27106WAT     H281561   7.458   5.183   6.037
27107WAT      O81562   0.806   8.780   8.630
27107WAT     H181563   0.753   8.777   8.715
27107WAT     H281564   0.882   8.845   8.641
27108WAT      O81565   2.239   6.338   6.428
27108WAT     H181566   2.148   6.299   6.435
27108WAT     H281567   2.280   6.312   6.341
27109WAT      O81568   7.454   8.603   9.597
27109WAT     H181569   7.367   8.599   9.646
27109WAT     H281570   7.479   8.511   9.566
27110WAT      O81571   3.164   7.469   8.425
27110WAT     H181572   3.064   7.465   8.424
27110WAT     H281573   3.198   7.423   8.507
27111WAT      O81574   4.411   4.219   7.856
27111WAT     H181575   4.436   4.159   7.931
27111WAT     H281576   4.329   4.183   7.811
27112WAT      O81577   2.143   4.726   4.833
27112WAT     H181578   2.047   4.725   4.805
27112WAT     H281579   2.162   4.811   4.882
27113WAT      O81580   2.029   9.280   5.098
27113WAT     H181581   2.073   9.285   5.008
27113WAT     H281582   2.018   9.185   5.125
27114WAT      O81583   0.791   7.731   9.411
27114WAT     H181584   0.742   7.679   9.481
27114WAT     H281585   0.848   7.668   9.357
27115WAT      O81586   3.233   9.510   3.098
27115WAT     H181587   3.225   9.426   3.045
27115WAT     H281588   3.219   9.490   3.195
27116WAT      O81589   3.328   5.477   8.550
27116WAT     H181590   3.391   5.409   8.586
27116WAT     H281591   3.379   5.560   8.524
27117WAT      O81592   5.838   6.530   2.388
27117WAT     H181593   5.891   6.599   2.438
27117WAT     H281594   5.776   6.576   2.324
27118WAT      O81595   4.495   2.814   6.394
27118WAT     H181596   4.488   2.886   6.463
27118WAT     H281597   4.541   2.850   6.313
27119WAT      O81598   7.575   7.930   3.024
27119WAT     H181599   7.524   7.985   2.957
27119WAT     H281600   7.655   7.890   2.979
27120WAT      O81601   3.837   1.383   1.087
27120WAT     H181602   3.917   1.402   1.144
27120WAT     H281603   3.755   1.390   1.143
27121WAT      O81604   6.925   8.609   8.866
27121WAT     H181605   6.920   8.704   8.894
27121WAT     H281606   6.843   8.560   8.896
27122WAT      O81607   9.454   3.665   7.797
27122WAT     H181608   9.384   3.678   7.727
27122WAT     H281609   9.425   3.595   7.862
27123WAT      O81610   1.032   4.359   4.303
27123WAT     H181611   1.132   4.365   4.304
27123WAT     H281612   0.997   4.375   4.395
27124WAT      O81613   7.999   7.538   9.216
27124WAT     H181614   7.977   7.473   9.288
27124WAT     H281615   8.054   7.613   9.254
27125WAT      O81616   4.376   2.021   9.840
27125WAT     H181617   4.322   1.987   9.763
27125WAT     H281618   4.450   1.956   9.859
27126WAT      O81619   1.358   9.727   6.617
27126WAT     H181620   1.321   9.644   6.658
27126WAT     H281621   1.306   9.806   6.650
27127WAT      O81622   9.864   9.161   9.168
27127WAT     H181623   9.821   9.153   9.258
27127WAT     H281624   9.821   9.236   9.117
27128WAT      O81625   9.329   1.582   1.735
27128WAT     H181626   9.405   1.588   1.669
27128WAT     H281627   9.366   1.588   1.828
27129WAT      O81628   3.635   7.905   6.719
27129WAT     H181629   3.658   7.811   6.740
27129WAT     H281630   3.697   7.940   6.649
27130WAT      O81631   3.070   0.395   9.135
27130WAT     H181632   3.017   0.315   9.164
27130WAT     H281633   3.168   0.374   9.145
27131WAT      O81634   3.642   1.591   8.355
27131WAT     H181635   3.715   1.640   8.307
27131WAT     H281636   3.610   1.646   8.432
27132WAT      O81637   8.776   6.869   8.593
27132WAT     H181638   8.834   6.879   8.513
27132WAT     H281639   8.773   6.956   8.643
27133WAT      O81640   2.557   2.955   3.979
27133WAT     H181641   2.481   2.968   4.043
27133WAT     H281642   2.550   3.022   3.905
27134WAT      O81643   0.140   2.961   1.964
27134WAT     H181644   0.147   2.873   1.917
27134WAT     H281645   0.055   2.964   2.016
27135WAT      O81646   4.452   7.363   1.183
27135WAT     H181647   4.454   7.315   1.095
27135WAT     H281648   4.544   7.366   1.222
27136WAT      O81649   9.094   7.399   9.572
27136WAT     H181650   9.015   7.455   9.598
27136WAT     H281651   9.068   7.340   9.496
27137WAT      O81652   9.247   5.198   0.579
27137WAT     H181653   9.317   5.261   0.611
27137WAT     H281654   9.196   5.162   0.657
27138WAT      O81655   8.599   0.210   2.350
27138WAT     H181656   8.567   0.116   2.336
27138WAT     H281657   8.698   0.210   2.361
27139WAT      O81658   0.559   4.234   4.623
27139WAT     H181659   0.485   4.299   4.640
27139WAT     H281660   0.630   4.246   4.693
27140WAT      O81661   1.465   4.133   7.413
27140WAT     H181662   1.443   4.231   7.411
27140WAT     H281663   1.380   4.080   7.416
27141WAT      O81664   0.453   6.286   4.193
27141WAT     H181665   0.381   6.234   4.240
27141WAT     H281666   0.541   6.241   4.207
27142WAT      O81667   4.963   3.420   6.830
27142WAT     H181668   5.038   3.362   6.862
27142WAT     H281669   4.993   3.516   6.833
27143WAT      O81670   3.328   2.962   1.387
27143WAT     H181671   3.304   3.026   1.460
27143WAT     H281672   3.370   2.881   1.426
27144WAT      O81673   5.742   0.991   3.082
27144WAT     H181674   5.806   0.934   3.031
27144WAT     H281675   5.758   0.980   3.180
27145WAT      O81676   2.047   4.683   6.720
27145WAT     H181677   1.985   4.694   6.642
27145WAT     H281678   1.999   4.638   6.795
27146WAT      O81679   7.927   8.010   6.643
27146WAT     H181680   7.964   7.966   6.561
27146WAT     H281681   7.847   7.960   6.674
27147WAT      O81682   8.127   5.895   5.905
27147WAT     H181683   8.146   5.834   5.982
27147WAT     H281684   8.128   5.842   5.820
27148WAT      O81685   2.346   5.797   1.760
27148WAT     H181686   2.248   5.779   1.756
27148WAT     H281687   2.364   5.868   1.828
27149WAT      O81688   7.694   8.152   1.842
27149WAT     H181689   7.656   8.069   1.801
27149WAT     H281690   7.644   8.174   1.925
27150WAT      O81691   0.676   2.387   4.081
27150WAT     H181692   0.587   2.431   4.067
27150WAT     H281693   0.744   2.431   4.021
27151WAT      O81694   6.500   2.388   9.564
27151WAT     H181695   6.520   2.393   9.466
27151WAT     H281696   6.521   2.296   9.598
27152WAT      O81697   0.490   3.050   7.538
27152WAT     H181698   0.490   2.951   7.553
27152WAT     H281699   0.584   3.083   7.535
27153WAT      O81700   3.529   7.803   7.728
27153WAT     H181701   3.563   7.886   7.683
27153WAT     H281702   3.531   7.727   7.664
27154WAT      O81703   3.836   7.843   4.588
27154WAT     H181704   3.852   7.931   4.633
27154WAT     H281705   3.749   7.847   4.538
27155WAT      O81706   0.429   9.122   4.869
27155WAT     H181707   0.414   9.218   4.892
27155WAT     H281708   0.525   9.099   4.883
27156WAT      O81709   4.438   8.025   6.986
27156WAT     H181710   4.341   8.046   6.978
27156WAT     H281711   4.450   7.929   7.011
27157WAT      O81712   0.556   0.317   7.133
27157WAT     H181713   0.578   0.414   7.145
27157WAT     H281714   0.489   0.289   7.202
27158WAT      O81715   1.073   4.494   3.528
27158WAT     H181716   1.113   4.548   3.453
27158WAT     H281717   1.070   4.398   3.502
27159WAT      O81718   4.794   0.303   8.398
27159WAT     H181719   4.837   0.224   8.354
27159WAT     H281720   4.720   0.337   8.339
27160WAT      O81721   1.513   8.743   5.400
27160WAT     H181722   1.528   8.662   5.457
27160WAT     H281723   1.467   8.717   5.316
27161WAT      O81724   2.733   5.921   7.157
27161WAT     H181725   2.755   5.833   7.116
27161WAT     H281726   2.772   5.926   7.249
27162WAT      O81727   5.998   1.804   8.748
27162WAT     H181728   6.000   1.900   8.720
27162WAT     H281729   5.903   1.776   8.762
27163WAT      O81730   2.265   5.643   3.630
27163WAT     H181731   2.216   5.708   3.572
27163WAT     H281732   2.295   5.688   3.713
27164WAT      O81733   4.490   9.625   1.233
27164WAT     H181734   4.455   9.570   1.158
27164WAT     H281735   4.463   9.720   1.220
27165WAT      O81736   9.329   8.616   4.794
27165WAT     H181737   9.256   8.672   4.756
27165WAT     H281738   9.351   8.542   4.729
27166WAT      O81739   0.224   1.968   9.572
27166WAT     H181740   0.262   1.975   9.664
27166WAT     H281741   0.223   2.059   9.530
27167WAT      O81742   3.341   3.009   6.664
27167WAT     H181743   3.349   2.910   6.664
27167WAT     H281744   3.248   3.035   6.692
27168WAT      O81745   6.383   5.155   9.409
27168WAT     H181746   6.479   5.185   9.409
27168WAT     H281747   6.348   5.156   9.316
27169WAT      O81748   3.519   5.953   6.302
27169WAT     H181749   3.533   5.872   6.360
27169WAT     H281750   3.598   5.967   6.244
27170WAT      O81751   0.310   3.957   8.053
27170WAT     H181752   0.344   4.051   8.046
27170WAT     H281753   0.346   3.903   7.977
27171WAT      O81754   9.048   5.780   2.698
27171WAT     H181755   9.062   5.844   2.622
27171WAT     H281756   8.956   5.790   2.733
27172WAT      O81757   1.859   2.354   0.336
27172WAT     H181758   1.828   2.269   0.378
27172WAT     H281759   1.830   2.431   0.392
27173WAT      O81760   1.860   1.375   5.232
27173WAT     H181761   1.845   1.455   5.174
27173WAT     H281762   1.913   1.402   5.312
27174WAT      O81763   2.702   1.145   6.847
27174WAT     H181764   2.651   1.223   6.883
27174WAT     H281765   2.764   1.110   6.918
27175WAT      O81766   8.997   3.304   7.621
27175WAT     H181767   8.913   3.340   7.661
27175WAT     H281768   9.007   3.208   7.644
27176WAT      O81769   7.642   4.871   4.481
27176WAT     H181770   7.692   4.811   4.419
27176WAT     H281771   7.579   4.816   4.537
27177WAT      O81772   0.960   1.320   4.175
27177WAT     H181773   0.940   1.408   4.217
27177WAT     H281774   1.049   1.323   4.130
27178WAT      O81775   1.650   0.659   4.742
27178WAT     H181776   1.589   0.654   4.662
27178WAT     H281777   1.662   0.567   4.780
27179WAT      O81778   4.349   3.413   1.524
27179WAT     H181779   4.360   3.318   1.554
27179WAT     H281780   4.426   3.467   1.555
27180WAT      O81781   0.557   9.466   1.451
27180WAT     H181782   0.473   9.451   1.503
27180WAT     H281783   0.616   9.529   1.500
27181WAT      O81784   3.601   2.635   9.776
27181WAT     H181785   3.566   2.726   9.800
27181WAT     H281786   3.698   2.642   9.751
27182WAT      O81787   3.411   7.763   8.414
27182WAT     H181788   3.362   7.751   8.501
27182WAT     H281789   3.381   7.693   8.349
27183WAT      O81790   7.158   7.607   6.786
27183WAT     H181791   7.248   7.588   6.824
27183WAT     H281792   7.089   7.601   6.859
27184WAT      O81793   1.874   8.783   2.501
27184WAT     H181794   1.841   8.846   2.430
27184WAT     H281795   1.848   8.690   2.478
27185WAT      O81796   5.736   6.195   3.783
27185WAT     H181797   5.794   6.118   3.756
27185WAT     H281798   5.790   6.261   3.835
27186WAT      O81799   7.190   1.266   1.615
27186WAT     H181800   7.167   1.194   1.680
27186WAT     H281801   7.135   1.254   1.532
27187WAT      O81802   5.394   5.129   4.186
27187WAT     H181803   5.302   5.100   4.160
27187WAT     H281804   5.408   5.224   4.157
27188WAT      O81805   0.359   6.688   2.511
27188WAT     H181806   0.415   6.739   2.445
27188WAT     H281807   0.369   6.728   2.602
27189WAT      O81808   8.964   2.440   2.243
27189WAT     H181809   8.978   2.405   2.336
27189WAT     H281810   9.024   2.518   2.228
27190WAT      O81811   5.962   0.577   4.030
27190WAT     H181812   6.012   0.551   3.947
27190WAT     H281813   6.027   0.589   4.105
27191WAT      O81814   3.339   7.649   2.446
27191WAT     H181815   3.281   7.573   2.475
27191WAT     H281816   3.306   7.734   2.488
27192WAT      O81817   8.565   7.540   0.163
27192WAT     H181818   8.590   7.595   0.243
27192WAT     H281819   8.534   7.450   0.193
27193WAT      O81820   6.359   8.882   1.104
27193WAT     H181821   6.305   8.814   1.055
27193WAT     H281822   6.361   8.967   1.051
27194WAT      O81823   9.651   3.101   9.461
27194WAT     H181824   9.615   3.021   9.414
27194WAT     H281825   9.751   3.101   9.456
27195WAT      O81826   5.299   0.667   8.717
27195WAT     H181827   5.322   0.620   8.632
27195WAT     H281828   5.203   0.651   8.739
27196WAT      O81829   0.833   3.649   5.229
27196WAT     H181830   0.786   3.591   5.162
27196WAT     H281831   0.841   3.599   5.316
27197WAT      O81832   4.825   1.705   2.040
27197WAT     H181833   4.829   1.734   1.945
27197WAT     H281834   4.850   1.781   2.100
27198WAT      O81835   5.928   1.905   1.537
27198WAT     H181836   5.913   1.806   1.535
27198WAT     H281837   5.998   1.926   1.605
27199WAT      O81838   3.866   2.793   4.018
27199WAT     H181839   3.873   2.747   3.930
27199WAT     H281840   3.921   2.744   4.086
27200WAT      O81841   2.017   2.813   4.723
27200WAT     H181842   2.013   2.836   4.626
27200WAT     H281843   2.107   2.836   4.759
27201WAT      O81844   8.089   8.595   4.096
27201WAT     H181845   8.056   8.501   4.096
27201WAT     H281846   8.189   8.596   4.095
27202WAT      O81847   5.602   8.889   7.081
27202WAT     H181848   5.676   8.871   7.147
27202WAT     H281849   5.641   8.916   6.993
27203WAT      O81850   3.848   1.747   9.445
27203WAT     H181851   3.866   1.785   9.354
27203WAT     H281852   3.751   1.751   9.465
27204WAT      O81853   9.375   3.710   5.047
27204WAT     H181854   9.459   3.655   5.048
27204WAT     H281855   9.392   3.793   4.994
27205WAT      O81856   7.820   0.215   6.579
27205WAT     H181857   7.883   0.250   6.509
27205WAT     H281858   7.759   0.148   6.537
27206WAT      O81859   3.803   7.474   5.202
27206WAT     H181860   3.758   7.393   5.164
27206WAT     H281861   3.875   7.505   5.140
27207WAT      O81862   1.805   5.151   4.384
27207WAT     H181863   1.803   5.111   4.292
27207WAT     H281864   1.841   5.084   4.448
27208WAT      O81865   3.664   3.598   9.502
27208WAT     H181866   3.693   3.506   9.476
27208WAT     H281867   3.731   3.665   9.470
27209WAT      O81868   9.301   2.437   1.674
27209WAT     H181869   9.380   2.386   1.640
27209WAT     H281870   9.225   2.374   1.691
27210WAT      O81871   7.130   0.263   3.515
27210WAT     H181872   7.130   0.312   3.428
27210WAT     H281873   7.040   0.222   3.531
27211WAT      O81874   9.810   2.991   3.359
27211WAT     H181875   9.874   2.982   3.283
27211WAT     H281876   9.737   2.924   3.350
27212WAT      O81877   0.881   5.597   0.052
27212WAT     H181878   0.887   5.504   0.087
27212WAT     H281879   0.804   5.603  -0.012
27213WAT      O81880   3.626   2.458   7.458
27213WAT     H181881   3.590   2.438   7.550
27213WAT     H281882   3.679   2.543   7.461
27214WAT      O81883   5.697   3.344   4.551
27214WAT     H181884   5.671   3.327   4.646
27214WAT     H281885   5.777   3.289   4.528
27215WAT      O81886   8.481   2.551   9.799
27215WAT     H181887   8.544   2.473   9.807
27215WAT     H281888   8.477   2.600   9.886
27216WAT      O81889   2.668   1.091   5.361
27216WAT     H181890   2.702   1.055   5.448
27216WAT     H281891   2.697   1.032   5.286
27217WAT      O81892   2.827   7.681   3.610
27217WAT     H181893   2.858   7.700   3.516
27217WAT     H281894   2.789   7.764   3.650
27218WAT      O81895   0.262   6.843   8.194
27218WAT     H181896   0.218   6.924   8.232
27218WAT     H281897   0.318   6.799   8.264
27219WAT      O81898   1.856   3.448   9.084
27219WAT     H181899   1.863   3.382   9.009
27219WAT     H281900   1.766   3.441   9.126
27220WAT      O81901   4.498   7.478   2.962
27220WAT     H181902   4.467   7.424   3.041
27220WAT     H281903   4.545   7.417   2.897
27221WAT      O81904   6.561   6.322   2.085
27221WAT     H181905   6.469   6.283   2.082
27221WAT     H281906   6.555   6.419   2.106
27222WAT      O81907   3.178   1.066   1.029
27222WAT     H181908   3.140   0.978   1.001
27222WAT     H281909   3.179   1.071   1.129
27223WAT      O81910   4.204   5.038   9.508
27223WAT     H181911   4.231   5.055   9.414
27223WAT     H281912   4.282   5.053   9.569
27224WAT      O81913   4.257   5.557   8.621
27224WAT     H181914   4.159   5.545   8.605
27224WAT     H281915   4.289   5.489   8.688
27225WAT      O81916   1.073   0.269   8.207
27225WAT     H181917   1.008   0.344   8.216
27225WAT     H281918   1.162   0.305   8.179
27226WAT      O81919   6.361   5.727   8.883
27226WAT     H181920   6.408   5.645   8.914
27226WAT     H281921   6.426   5.804   8.883
27227WAT      O81922   0.914   5.273   2.232
27227WAT     H181923   1.001   5.297   2.189
27227WAT     H281924   0.872   5.197   2.183
27228WAT      O81925   8.702   3.359   4.363
27228WAT     H181926   8.663   3.329   4.450
27228WAT     H281927   8.764   3.436   4.378
27229WAT      O81928   1.505   2.148   2.883
27229WAT     H181929   1.571   2.176   2.813
27229WAT     H281930   1.552   2.133   2.969
27230WAT      O81931   4.261   7.419   2.469
27230WAT     H181932   4.166   7.405   2.443
27230WAT     H281933   4.289   7.512   2.444
27231WAT      O81934   6.905   2.764   6.212
27231WAT     H181935   6.814   2.805   6.208
27231WAT     H281936   6.913   2.708   6.295
27232WAT      O81937   1.164   5.018   8.860
27232WAT     H181938   1.218   5.009   8.777
27232WAT     H281939   1.125   5.110   8.865
27233WAT      O81940   7.296   1.013   5.608
27233WAT     H181941   7.338   1.001   5.698
27233WAT     H281942   7.273   0.924   5.569
27234WAT      O81943   2.361   4.966   2.554
27234WAT     H181944   2.273   4.919   2.546
27234WAT     H281945   2.415   4.947   2.472
27235WAT      O81946   7.768   4.064   2.795
27235WAT     H181947   7.783   4.037   2.699
27235WAT     H281948   7.854   4.057   2.845
27236WAT      O81949   1.873   9.699   8.263
27236WAT     H181950   1.845   9.678   8.169
27236WAT     H281951   1.792   9.719   8.318
27237WAT      O81952   8.300   8.757   8.971
27237WAT     H181953   8.314   8.677   8.912
27237WAT     H281954   8.388   8.787   9.007
27238WAT      O81955   4.624   7.259   2.836
27238WAT     H181956   4.647   7.188   2.902
27238WAT     H281957   4.706   7.313   2.815
27239WAT      O81958   3.400   1.018   8.430
27239WAT     H181959   3.382   1.115   8.415
27239WAT     H281960   3.474   1.008   8.497
27240WAT      O81961   0.634   1.008   0.969
27240WAT     H181962   0.563   0.963   0.915
27240WAT     H281963   0.714   0.947   0.975
27241WAT      O81964   5.214   7.058   4.915
27241WAT     H181965   5.133   7.041   4.972
27241WAT     H281966   5.205   7.146   4.870
27242WAT      O81967   5.233   4.442   2.964
27242WAT     H181968   5.276   4.459   3.053
27242WAT     H281969   5.297   4.394   2.905
27243WAT      O81970   4.512   6.134   3.569
27243WAT     H181971   4.588   6.120   3.632
27243WAT     H281972   4.438   6.183   3.615
27244WAT      O81973   0.975   9.630   8.544
27244WAT     H181974   0.988   9.664   8.637
27244WAT     H281975   0.925   9.698   8.491
27245WAT      O81976   8.336   7.700   5.828
27245WAT     H181977   8.277   7.626   5.860
27245WAT     H281978   8.323   7.714   5.730
27246WAT      O81979   8.366   8.853   0.369
27246WAT     H181980   8.355   8.859   0.469
27246WAT     H281981   8.463   8.843   0.347
27247WAT      O81982   1.339   5.773   7.653
27247WAT     H181983   1.336   5.723   7.739
27247WAT     H281984   1.383   5.862   7.667
27248WAT      O81985   7.001   2.657   0.243
27248WAT     H181986   7.097   2.636   0.259
27248WAT     H281987   6.944   2.590   0.290
27249WAT      O81988   6.355   2.891   7.607
27249WAT     H181989   6.364   2.940   7.520
27249WAT     H281990   6.388   2.797   7.595
27250WAT      O81991   7.863   4.292   9.731
27250WAT     H181992   7.809   4.209   9.724
27250WAT     H281993   7.957   4.273   9.704
27251WAT      O81994   7.377   5.946   4.020
27251WAT     H181995   7.410   6.019   4.081
27251WAT     H281996   7.434   5.865   4.030
27252WAT      O81997   4.865   4.789   7.294
27252WAT     H181998   4.935   4.788   7.223
27252WAT     H281999   4.775   4.796   7.252
27253WAT      O82000   0.182   6.523   4.052
27253WAT     H182001   0.135   6.595   4.002
27253WAT     H282002   0.150   6.433   4.021
27254WAT      O82003   8.159   9.760   6.755
27254WAT     H182004   8.126   9.674   6.794
27254WAT     H282005   8.213   9.809   6.824
27255WAT      O82006   6.685   4.059   2.986
27255WAT     H182007   6.717   4.084   2.895
27255WAT     H282008   6.634   4.136   3.026
27256WAT      O82009   7.828   5.736   4.036
27256WAT     H182010   7.787   5.808   3.980
27256WAT     H282011   7.927   5.736   4.022
27257WAT      O82012   3.744   7.230   1.747
27257WAT     H182013   3.706   7.316   1.782
27257WAT     H282014   3.740   7.160   1.819
27258WAT      O82015   3.628   0.415   4.449
27258WAT     H182016   3.725   0.389   4.456
27258WAT     H282017   3.588   0.372   4.368
27259WAT      O82018   2.929   0.802   4.865
27259WAT     H182019   2.967   0.877   4.811
27259WAT     H282020   2.842   0.830   4.905
27260WAT      O82021   6.071   2.878   3.045
27260WAT     H182022   6.150   2.897   3.103
27260WAT     H282023   6.083   2.789   3.000
27261WAT      O82024   1.748   6.757   9.505
27261WAT     H182025   1.717   6.769   9.599
27261WAT     H282026   1.829   6.698   9.503
27262WAT      O82027   1.913   9.075   4.853
27262WAT     H182028   1.859   9.105   4.931
27262WAT     H282029   1.968   8.995   4.879
27263WAT      O82030   8.715   0.037   0.537
27263WAT     H182031   8.680   0.102   0.469
27263WAT     H282032   8.749   0.088   0.617
27264WAT      O82033   5.069   2.369   4.336
27264WAT     H182034   4.994   2.303   4.344
27264WAT     H282035   5.082   2.392   4.239
27265WAT      O82036   7.456   4.178   9.757
27265WAT     H182037   7.404   4.105   9.802
27265WAT     H282038   7.416   4.197   9.667
27266WAT      O82039   6.032   8.302   8.134
27266WAT     H182040   5.972   8.369   8.177
27266WAT     H282041   5.978   8.228   8.095
27267WAT      O82042   3.203   9.546   5.997
27267WAT     H182043   3.202   9.499   5.909
27267WAT     H282044   3.290   9.528   6.043
27268WAT      O82045   1.911   5.284   4.775
27268WAT     H182046   1.837   5.242   4.723
27268WAT     H282047   1.873   5.342   4.847
27269WAT      O82048   3.838   2.816   5.610
27269WAT     H182049   3.912   2.817   5.543
27269WAT     H282050   3.753   2.788   5.567
27270WAT      O82051   9.552   9.213   3.468
27270WAT     H182052   9.582   9.275   3.396
27270WAT     H282053   9.452   9.215   3.474
27271WAT      O82054   9.652   8.670   2.642
27271WAT     H182055   9.737   8.682   2.590
27271WAT     H282056   9.589   8.613   2.588
27272WAT      O82057   3.041   0.798   1.014
27272WAT     H182058   3.135   0.772   1.037
27272WAT     H282059   2.987   0.806   1.098
27273WAT      O82060   0.322   7.997   3.362
27273WAT     H182061   0.350   7.904   3.387
27273WAT     H282062   0.400   8.059   3.370
27274WAT      O82063   7.990   0.628   1.248
27274WAT     H182064   8.026   0.702   1.192
27274WAT     H282065   8.063   0.563   1.269
27275WAT      O82066   8.607   3.127   6.156
27275WAT     H182067   8.671   3.055   6.182
27275WAT     H282068   8.513   3.094   6.166
27276WAT      O82069   9.647   5.451   8.270
27276WAT     H182070   9.563   5.399   8.286
27276WAT     H282071   9.725   5.402   8.308
27277WAT      O82072   5.936   3.876   3.278
27277WAT     H182073   5.855   3.850   3.227
27277WAT     H282074   6.018   3.844   3.230
27278WAT      O82075   3.667   4.101   5.774
27278WAT     H182076   3.607   4.042   5.720
27278WAT     H282077   3.627   4.114   5.865
27279WAT      O82078   3.638   4.153   1.701
27279WAT     H182079   3.700   4.230   1.714
27279WAT     H282080   3.640   4.123   1.606
27280WAT      O82081   2.884   4.959   6.408
27280WAT     H182082   2.870   4.994   6.315
27280WAT     H282083   2.806   4.985   6.466
27281WAT      O82084   1.384   0.969   3.449
27281WAT     H182085   1.447   1.036   3.410
27281WAT     H282086   1.307   1.018   3.492
27282WAT      O82087   4.863   3.315   6.570
27282WAT     H182088   4.899   3.352   6.656
27282WAT     H282089   4.939   3.285   6.513
27283WAT      O82090   8.176   0.712   0.405
27283WAT     H182091   8.191   0.804   0.442
27283WAT     H282092   8.226   0.703   0.318
27284WAT      O82093   5.744   2.668   7.599
27284WAT     H182094   5.741   2.569   7.608
27284WAT     H282095   5.824   2.704   7.648
27285WAT      O82096   6.323   7.764   3.767
27285WAT     H182097   6.329   7.668   3.740
27285WAT     H282098   6.408   7.811   3.741
27286WAT      O82099   3.414   4.134   2.780
27286WAT     H182100   3.464   4.119   2.865
27286WAT     H282101   3.430   4.228   2.749
27287WAT      O82102   5.601   7.428   9.334
27287WAT     H182103   5.628   7.354   9.396
27287WAT     H282104   5.565   7.504   9.387
27288WAT      O82105   4.623   0.301   4.258
27288WAT     H182106   4.652   0.221   4.310
27288WAT     H282107   4.523   0.306   4.256
27289WAT      O82108   3.465   9.107   2.383
27289WAT     H182109   3.535   9.149   2.326
27289WAT     H282110   3.450   9.163   2.465
27290WAT      O82111   3.258   1.914   6.800
27290WAT     H182112   3.343   1.876   6.763
27290WAT     H282113   3.225   1.855   6.874
27291WAT      O82114   6.281   9.192   2.659
27291WAT     H182115   6.290   9.125   2.733
27291WAT     H282116   6.226   9.153   2.585
27292WAT      O82117   3.875   3.855   8.687
27292WAT     H182118   3.828   3.853   8.599
27292WAT     H282119   3.819   3.807   8.755
27293WAT      O82120   2.009   8.958   3.886
27293WAT     H182121   2.004   9.057   3.883
27293WAT     H282122   1.917   8.920   3.901
27294WAT      O82123   3.242   2.033   3.086
27294WAT     H182124   3.161   2.053   3.031
27294WAT     H282125   3.304   1.973   3.035
27295WAT      O82126   6.447   0.677   7.083
27295WAT     H182127   6.446   0.690   7.182
27295WAT     H282128   6.520   0.733   7.044
27296WAT      O82129   1.278   8.409   3.750
27296WAT     H182130   1.316   8.324   3.712
27296WAT     H282131   1.337   8.486   3.724
27297WAT      O82132   9.543   8.208   3.534
27297WAT     H182133   9.517   8.161   3.619
27297WAT     H282134   9.478   8.282   3.516
27298WAT      O82135   3.028   4.930   7.916
27298WAT     H182136   3.080   4.969   7.992
27298WAT     H282137   2.930   4.940   7.933
27299WAT      O82138   2.526   0.527   9.641
27299WAT     H182139   2.470   0.446   9.626
27299WAT     H282140   2.484   0.584   9.712
27300WAT      O82141   5.892   6.520   5.021
27300WAT     H182142   5.890   6.503   5.119
27300WAT     H282143   5.872   6.617   5.003
27301WAT      O82144   4.662   1.271   0.990
27301WAT     H182145   4.746   1.273   0.935
27301WAT     H282146   4.685   1.248   1.084
27302WAT      O82147   8.757   6.447   2.080
27302WAT     H182148   8.827   6.429   2.011
27302WAT     H282149   8.729   6.543   2.076
27303WAT      O82150   2.836   2.142   1.785
27303WAT     H182151   2.913   2.163   1.844
27303WAT     H282152   2.803   2.050   1.804
27304WAT      O82153   7.358   0.402   9.147
27304WAT     H182154   7.357   0.418   9.246
27304WAT     H282155   7.426   0.462   9.104
27305WAT      O82156   0.738   1.569   5.326
27305WAT     H182157   0.785   1.645   5.283
27305WAT     H282158   0.781   1.483   5.299
27306WAT      O82159   5.614   1.837   6.026
27306WAT     H182160   5.662   1.763   6.073
27306WAT     H282161   5.538   1.798   5.974
27307WAT      O82162   8.489   2.538   0.540
27307WAT     H182163   8.520   2.518   0.447
27307WAT     H282164   8.436   2.623   0.540
27308WAT      O82165   9.718   0.811   3.518
27308WAT     H182166   9.660   0.884   3.483
27308WAT     H282167   9.669   0.724   3.513
27309WAT      O82168   8.970   5.937   7.847
27309WAT     H182169   8.896   5.960   7.784
27309WAT     H282170   9.037   6.012   7.848
27310WAT      O82171   0.646   5.349   6.666
27310WAT     H182172   0.705   5.352   6.747
27310WAT     H282173   0.655   5.435   6.615
27311WAT      O82174   9.781   4.400   0.978
27311WAT     H182175   9.832   4.377   1.060
27311WAT     H282176   9.727   4.321   0.949
27312WAT      O82177   2.238   2.200   2.209
27312WAT     H182178   2.237   2.107   2.171
27312WAT     H282179   2.321   2.247   2.178
27313WAT      O82180   0.322   0.691   5.329
27313WAT     H182181   0.288   0.596   5.332
27313WAT     H282182   0.416   0.693   5.362
27314WAT      O82183   6.395   4.782   1.035
27314WAT     H182184   6.449   4.777   1.119
27314WAT     H282185   6.353   4.873   1.027
27315WAT      O82186   8.583   1.012   2.915
27315WAT     H182187   8.525   1.069   2.974
27315WAT     H282188   8.551   1.018   2.821
27316WAT      O82189   2.069   5.853   9.018
27316WAT     H182190   1.976   5.823   8.998
27316WAT     H282191   2.066   5.942   9.064
27317WAT      O82192   1.586   6.817   2.266
27317WAT     H182193   1.496   6.827   2.225
27317WAT     H282194   1.579   6.759   2.347
27318WAT      O82195   2.677   1.112   7.931
27318WAT     H182196   2.775   1.126   7.915
27318WAT     H282197   2.663   1.071   8.021
27319WAT      O82198   5.696   8.517   3.505
27319WAT     H182199   5.609   8.479   3.535
27319WAT     H282200   5.712   8.604   3.551
27320WAT      O82201   2.601   1.216   3.109
27320WAT     H182202   2.610   1.119   3.131
27320WAT     H282203   2.511   1.248   3.138
27321WAT      O82204   2.865   1.775   3.104
27321WAT     H182205   2.861   1.808   3.198
27321WAT     H282206   2.782   1.801   3.056
27322WAT      O82207   6.923   0.233   1.727
27322WAT     H182208   6.982   0.206   1.803
27322WAT     H282209   6.851   0.293   1.760
27323WAT      O82210   3.493   2.518   3.775
27323WAT     H182211   3.423   2.570   3.727
27323WAT     H282212   3.535   2.575   3.846
27324WAT      O82213   2.202   0.558   6.714
27324WAT     H182214   2.106   0.571   6.738
27324WAT     H282215   2.258   0.625   6.763
27325WAT      O82216   7.423   1.213   5.463
27325WAT     H182217   7.389   1.138   5.520
27325WAT     H282218   7.368   1.295   5.479
27326WAT      O82219   3.928   2.988   7.134
27326WAT     H182220   4.021   2.954   7.146
27326WAT     H282221   3.930   3.077   7.088
27327WAT      O82222   8.906   4.057   1.990
27327WAT     H182223   8.821   4.094   1.951
27327WAT     H282224   8.975   4.128   1.995
27328WAT      O82225   7.706   4.646   6.988
27328WAT     H182226   7.683   4.652   6.891
27328WAT     H282227   7.640   4.587   7.034
27329WAT      O82228   0.389   2.060   0.478
27329WAT     H182229   0.429   1.986   0.532
27329WAT     H282230   0.447   2.079   0.399
27330WAT      O82231   3.994   2.964   6.716
27330WAT     H182232   3.905   3.008   6.718
27330WAT     H282233   4.062   3.025   6.758
27331WAT      O82234   1.300   0.924   4.694
27331WAT     H182235   1.388   0.932   4.739
27331WAT     H282236   1.249   1.010   4.704
27332WAT      O82237   5.789   5.599   8.105
27332WAT     H182238   5.876   5.647   8.098
27332WAT     H282239   5.790   5.537   8.184
27333WAT      O82240   3.551   0.586   3.841
27333WAT     H182241   3.523   0.509   3.784
27333WAT     H282242   3.470   0.641   3.864
27334WAT      O82243   2.743   9.508   8.471
27334WAT     H182244   2.666   9.470   8.523
27334WAT     H282245   2.815   9.439   8.464
27335WAT      O82246   7.686   0.134   9.485
27335WAT     H182247   7.649   0.214   9.533
27335WAT     H282248   7.617   0.062   9.482
27336WAT      O82249   4.217   9.576   9.122
27336WAT     H182250   4.269   9.640   9.065
27336WAT     H282251   4.167   9.513   9.064
27337WAT      O82252   2.280   2.104   6.662
27337WAT     H182253   2.376   2.105   6.634
27337WAT     H282254   2.271   2.057   6.749
27338WAT      O82255   3.683   6.866   9.501
27338WAT     H182256   3.762   6.831   9.552
27338WAT     H282257   3.630   6.926   9.560
27339WAT      O82258   5.729   4.027   8.227
27339WAT     H182259   5.745   4.123   8.203
27339WAT     H282260   5.632   4.013   8.247
27340WAT      O82261   2.021   4.844   7.831
27340WAT     H182262   1.957   4.768   7.834
27340WAT     H282263   2.069   4.844   7.743
27341WAT      O82264   9.669   5.912   1.841
27341WAT     H182265   9.608   5.882   1.915
27341WAT     H282266   9.747   5.960   1.881
27342WAT      O82267   7.634   7.882   7.758
27342WAT     H182268   7.695   7.868   7.680
27342WAT     H282269   7.551   7.928   7.727
27343WAT      O82270   2.268   4.283   3.057
27343WAT     H182271   2.216   4.304   2.975
27343WAT     H282272   2.351   4.339   3.059
27344WAT      O82273   4.612   6.202   1.419
27344WAT     H182274   4.570   6.134   1.358
27344WAT     H282275   4.583   6.185   1.513
27345WAT      O82276   6.950   6.238   4.876
27345WAT     H182277   7.034   6.212   4.923
27345WAT     H282278   6.874   6.182   4.910
27346WAT      O82279   0.073   2.771   4.244
27346WAT     H182280  -0.015   2.735   4.213
27346WAT     H282281   0.116   2.705   4.305
27347WAT      O82282   0.483   6.363   1.701
27347WAT     H182283   0.458   6.300   1.628
27347WAT     H282284   0.440   6.334   1.787
27348WAT      O82285   5.983   1.110   6.329
27348WAT     H182286   6.044   1.045   6.376
27348WAT     H282287   5.905   1.061   6.291
27349WAT      O82288   7.039   0.261   7.415
27349WAT     H182289   7.107   0.302   7.476
27349WAT     H282290   7.076   0.177   7.375
27350WAT      O82291   9.503   7.559   9.546
27350WAT     H182292   9.517   7.542   9.448
27350WAT     H282293   9.451   7.483   9.586
27351WAT      O82294   7.597   3.512   8.592
27351WAT     H182295   7.568   3.547   8.681
27351WAT     H282296   7.683   3.555   8.565
27352WAT      O82297   2.688   3.803   5.771
27352WAT     H182298   2.604   3.855   5.757
27352WAT     H282299   2.719   3.814   5.865
27353WAT      O82300   3.883   4.126   6.026
27353WAT     H182301   3.927   4.206   6.068
27353WAT     H282302   3.951   4.053   6.016
27354WAT      O82303   1.797   7.890   2.073
27354WAT     H182304   1.731   7.898   2.147
27354WAT     H282305   1.772   7.813   2.014
27355WAT      O82306   3.013   2.083   3.492
27355WAT     H182307   2.967   2.171   3.481
27355WAT     H282308   2.954   2.010   3.457
27356WAT      O82309   4.412   6.671   4.636
27356WAT     H182310   4.385   6.639   4.727
27356WAT     H282311   4.341   6.732   4.600
27357WAT      O82312   1.952   9.102   8.642
27357WAT     H182313   1.867   9.145   8.675
27357WAT     H282314   1.945   9.003   8.651
27358WAT      O82315   4.584   7.827   4.249
27358WAT     H182316   4.585   7.822   4.149
27358WAT     H282317   4.584   7.922   4.277
27359WAT      O82318   4.637   2.414   3.395
27359WAT     H182319   4.567   2.346   3.374
27359WAT     H282320   4.677   2.448   3.310
27360WAT      O82321   0.408   3.983   5.676
27360WAT     H182322   0.380   4.048   5.605
27360WAT     H282323   0.472   3.917   5.638
27361WAT      O82324   9.744   1.329   9.460
27361WAT     H182325   9.810   1.390   9.504
27361WAT     H282326   9.715   1.368   9.373
27362WAT      O82327   3.454   3.436   8.298
27362WAT     H182328   3.472   3.534   8.302
27362WAT     H282329   3.359   3.421   8.269
27363WAT      O82330   5.793   0.959   8.945
27363WAT     H182331   5.706   1.002   8.924
27363WAT     H282332   5.860   1.029   8.969
27364WAT      O82333   0.188   1.980   8.506
27364WAT     H182334   0.162   1.953   8.413
27364WAT     H282335   0.288   1.983   8.513
27365WAT      O82336   8.061   6.790   2.300
27365WAT     H182337   8.097   6.868   2.350
27365WAT     H282338   7.972   6.764   2.338
27366WAT      O82339   6.705   9.110   3.065
27366WAT     H182340   6.735   9.035   3.124
27366WAT     H282341   6.607   9.126   3.080
27367WAT      O82342   1.780   0.147   7.645
27367WAT     H182343   1.756   0.068   7.588
27367WAT     H282344   1.870   0.132   7.686
27368WAT      O82345   7.384   2.424   3.253
27368WAT     H182346   7.327   2.506   3.242
27368WAT     H282347   7.449   2.439   3.328
27369WAT      O82348   7.598   2.363   1.189
27369WAT     H182349   7.691   2.374   1.153
27369WAT     H282350   7.602   2.357   1.289
27370WAT      O82351   9.572   7.382   7.279
27370WAT     H182352   9.491   7.354   7.330
27370WAT     H282353   9.647   7.319   7.300
27371WAT      O82354   5.485   7.037   1.850
27371WAT     H182355   5.545   7.084   1.785
27371WAT     H282356   5.409   6.995   1.801
27372WAT      O82357   0.215   8.298   3.506
27372WAT     H182358   0.310   8.268   3.505
27372WAT     H282359   0.155   8.220   3.485
27373WAT      O82360   4.130   0.202   1.541
27373WAT     H182361   4.137   0.131   1.612
27373WAT     H282362   4.221   0.226   1.509
27374WAT      O82363   6.896   2.445   0.066
27374WAT     H182364   6.933   2.528   0.108
27374WAT     H282365   6.964   2.372   0.071
27375WAT      O82366   6.432   3.585   7.828
27375WAT     H182367   6.395   3.520   7.895
27375WAT     H282368   6.405   3.678   7.853
27376WAT      O82369   9.352   0.553   5.769
27376WAT     H182370   9.417   0.532   5.843
27376WAT     H282371   9.334   0.651   5.768
27377WAT      O82372   6.608   0.652   2.208
27377WAT     H182373   6.621   0.683   2.114
27377WAT     H282374   6.537   0.582   2.210
27378WAT      O82375   5.827   4.350   4.765
27378WAT     H182376   5.764   4.391   4.699
27378WAT     H282377   5.817   4.251   4.765
27379WAT      O82378   5.665   5.677   0.302
27379WAT     H182379   5.746   5.642   0.349
27379WAT     H282380   5.684   5.688   0.205
27380WAT      O82381   8.788   5.286   7.805
27380WAT     H182382   8.703   5.274   7.754
27380WAT     H282383   8.787   5.374   7.852
27381WAT      O82384   2.723   1.372   6.153
27381WAT     H182385   2.800   1.335   6.205
27381WAT     H282386   2.713   1.322   6.067
27382WAT      O82387   6.607   6.777   0.361
27382WAT     H182388   6.648   6.855   0.407
27382WAT     H282389   6.629   6.780   0.263
27383WAT      O82390   2.446   8.956   7.311
27383WAT     H182391   2.531   9.007   7.298
27383WAT     H282392   2.458   8.892   7.388
27384WAT      O82393   3.275   2.153   3.522
27384WAT     H182394   3.179   2.129   3.507
27384WAT     H282395   3.284   2.200   3.610
27385WAT      O82396   0.272   7.007   1.157
27385WAT     H182397   0.366   7.008   1.125
27385WAT     H282398   0.240   7.101   1.171
27386WAT      O82399   8.025   1.187   4.110
27386WAT     H182400   8.087   1.171   4.187
27386WAT     H282401   8.053   1.131   4.032
27387WAT      O82402   0.023   2.344   5.758
27387WAT     H182403  -0.042   2.410   5.797
27387WAT     H282404  -0.023   2.291   5.687
27388WAT      O82405   0.946   7.359   5.317
27388WAT     H182406   1.035   7.357   5.272
27388WAT     H282407   0.897   7.443   5.292
27389WAT      O82408   8.375   3.088   0.499
27389WAT     H182409   8.306   3.031   0.454
27389WAT     H282410   8.338   3.122   0.585
27390WAT      O82411   9.718   9.419   8.615
27390WAT     H182412   9.655   9.466   8.553
27390WAT     H282413   9.783   9.366   8.561
27391WAT      O82414   4.272   8.370   7.930
27391WAT     H182415   4.206   8.367   8.006
27391WAT     H282416   4.359   8.406   7.964
27392WAT      O82417   8.967   8.609   0.892
27392WAT     H182418   8.935   8.701   0.914
27392WAT     H282419   8.984   8.558   0.977
27393WAT      O82420   9.086   8.089   2.543
27393WAT     H182421   9.005   8.116   2.595
27393WAT     H282422   9.112   7.995   2.566
27394WAT      O82423   2.959   0.531   6.322
27394WAT     H182424   3.051   0.493   6.311
27394WAT     H282425   2.947   0.607   6.259
27395WAT      O82426   5.738   6.779   9.086
27395WAT     H182427   5.790   6.862   9.067
27395WAT     H282428   5.663   6.800   9.149
27396WAT      O82429   5.792   1.177   0.561
27396WAT     H182430   5.816   1.204   0.654
27396WAT     H282431   5.852   1.224   0.496
27397WAT      O82432   6.404   2.026   7.004
27397WAT     H182433   6.495   1.985   7.005
27397WAT     H282434   6.385   2.065   6.914
27398WAT      O82435   2.575   5.858   6.806
27398WAT     H182436   2.586   5.952   6.839
27398WAT     H282437   2.656   5.805   6.830
27399WAT      O82438   7.813   2.946   2.838
27399WAT     H182439   7.762   2.860   2.841
27399WAT     H282440   7.850   2.966   2.929
27400WAT      O82441   5.432   9.046   1.068
27400WAT     H182442   5.495   9.068   0.993
27400WAT     H282443   5.409   8.948   1.064
27401WAT      O82444   7.041   7.487   8.299
27401WAT     H182445   7.064   7.487   8.202
27401WAT     H282446   6.945   7.462   8.311
27402WAT      O82447   5.844   9.423   5.228
27402WAT     H182448   5.861   9.361   5.151
27402WAT     H282449   5.920   9.416   5.294
27403WAT      O82450   1.070   1.416   8.036
27403WAT     H182451   1.028   1.380   8.120
27403WAT     H282452   1.145   1.478   8.061
27404WAT      O82453   7.317   6.874   2.978
27404WAT     H182454   7.368   6.797   3.017
27404WAT     H282455   7.245   6.901   3.042
27405WAT      O82456   5.666   3.106   9.456
27405WAT     H182457   5.730   3.113   9.533
27405WAT     H282458   5.586   3.053   9.484
27406WAT      O82459   3.399   2.816   4.187
27406WAT     H182460   3.345   2.893   4.221
27406WAT     H282461   3.450   2.775   4.262
27407WAT      O82462   1.438   7.771   9.027
27407WAT     H182463   1.485   7.689   9.060
27407WAT     H282464   1.378   7.747   8.951
27408WAT      O82465   0.629   3.992   2.367
27408WAT     H182466   0.699   4.050   2.410
27408WAT     H282467   0.577   4.046   2.301
27409WAT      O82468   3.677   2.128   3.081
27409WAT     H182469   3.657   2.061   3.152
27409WAT     H282470   3.719   2.083   3.002
27410WAT      O82471   0.183   7.408   2.525
27410WAT     H182472   0.205   7.424   2.429
27410WAT     H282473   0.209   7.314   2.550
27411WAT      O82474   7.514   9.406   9.183
27411WAT     H182475   7.502   9.476   9.113
27411WAT     H282476   7.589   9.431   9.243
27412WAT      O82477   9.641   8.888   9.056
27412WAT     H182478   9.739   8.901   9.049
27412WAT     H282479   9.607   8.843   8.973
27413WAT      O82480   1.468   7.467   2.607
27413WAT     H182481   1.369   7.453   2.613
27413WAT     H282482   1.497   7.452   2.513
27414WAT      O82483   2.217   3.212   1.056
27414WAT     H182484   2.234   3.119   1.088
27414WAT     H282485   2.220   3.214   0.956
27415WAT      O82486   9.573   9.164   4.047
27415WAT     H182487   9.528   9.092   4.100
27415WAT     H282488   9.612   9.125   3.964
27416WAT      O82489   4.997   9.702   5.394
27416WAT     H182490   5.026   9.785   5.345
27416WAT     H282491   5.071   9.671   5.454
27417WAT      O82492   0.500   8.048   4.990
27417WAT     H182493   0.506   8.017   4.895
27417WAT     H282494   0.429   8.118   4.998
27418WAT      O82495   4.424   5.206   0.757
27418WAT     H182496   4.426   5.224   0.658
27418WAT     H282497   4.352   5.141   0.778
27419WAT      O82498   3.969   3.239   6.052
27419WAT     H182499   3.886   3.187   6.034
27419WAT     H282500   3.987   3.240   6.151
27420WAT      O82501   7.387   1.824   4.353
27420WAT     H182502   7.427   1.901   4.402
27420WAT     H282503   7.395   1.838   4.255
27421WAT      O82504   0.591   2.173   7.960
27421WAT     H182505   0.689   2.153   7.961
27421WAT     H282506   0.557   2.166   7.866
27422WAT      O82507   3.841   6.345   5.472
27422WAT     H182508   3.881   6.253   5.477
27422WAT     H282509   3.743   6.340   5.490
27423WAT      O82510   6.790   1.083   7.059
27423WAT     H182511   6.853   1.101   7.135
27423WAT     H282512   6.708   1.138   7.069
27424WAT      O82513   6.686   9.037   3.725
27424WAT     H182514   6.747   9.092   3.666
27424WAT     H282515   6.611   9.094   3.757
27425WAT      O82516   8.657   7.631   2.600
27425WAT     H182517   8.661   7.635   2.500
27425WAT     H282518   8.750   7.616   2.636
27426WAT      O82519   3.141   8.462   5.337
27426WAT     H182520   3.047   8.484   5.310
27426WAT     H282521   3.188   8.547   5.362
27427WAT      O82522   4.495   9.206   4.173
27427WAT     H182523   4.443   9.264   4.110
27427WAT     H282524   4.558   9.148   4.122
27428WAT      O82525   0.278   8.722   1.347
27428WAT     H182526   0.228   8.642   1.314
27428WAT     H282527   0.227   8.805   1.323
27429WAT      O82528   6.916   0.231   6.377
27429WAT     H182529   6.970   0.313   6.397
27429WAT     H282530   6.847   0.252   6.308
27430WAT      O82531   2.007   1.871   8.395
27430WAT     H182532   1.928   1.846   8.452
27430WAT     H282533   2.009   1.812   8.314
27431WAT      O82534   4.011   5.177   2.892
27431WAT     H182535   4.077   5.251   2.905
27431WAT     H282536   4.055   5.100   2.846
27432WAT      O82537   5.618   8.470   6.180
27432WAT     H182538   5.540   8.416   6.213
27432WAT     H282539   5.637   8.544   6.245
27433WAT      O82540   5.974   2.236   5.611
27433WAT     H182541   5.904   2.294   5.654
27433WAT     H282542   6.046   2.294   5.574
27434WAT      O82543   0.868   0.632   2.678
27434WAT     H182544   0.855   0.712   2.736
27434WAT     H282545   0.876   0.660   2.582
27435WAT      O82546   0.133   6.092   1.779
27435WAT     H182547   0.043   6.093   1.824
27435WAT     H282548   0.163   5.997   1.766
27436WAT      O82549   9.098   9.743   9.846
27436WAT     H182550   9.000   9.728   9.834
27436WAT     H282551   9.147   9.657   9.833
27437WAT      O82552   4.378   4.702   5.296
27437WAT     H182553   4.287   4.740   5.309
27437WAT     H282554   4.375   4.602   5.306
27438WAT      O82555   2.872   0.871   0.813
27438WAT     H182556   2.943   0.843   0.878
27438WAT     H282557   2.798   0.917   0.861
27439WAT      O82558   1.949   1.263   0.708
27439WAT     H182559   2.047   1.253   0.723
27439WAT     H282560   1.903   1.272   0.796
27440WAT      O82561   0.056   1.516   9.483
27440WAT     H182562   0.106   1.586   9.433
27440WAT     H282563   0.117   1.471   9.548
27441WAT      O82564   9.724   1.712   7.998
27441WAT     H182565   9.773   1.703   7.911
27441WAT     H282566   9.634   1.753   7.982
27442WAT      O82567   2.002   8.797   8.412
27442WAT     H182568   2.020   8.701   8.392
27442WAT     H282569   1.964   8.806   8.504
27443WAT      O82570   9.809   8.747   3.076
27443WAT     H182571   9.735   8.741   3.143
27443WAT     H282572   9.789   8.686   2.999
27444WAT      O82573   2.075   0.590   0.846
27444WAT     H182574   2.016   0.560   0.920
27444WAT     H282575   2.052   0.684   0.820
27445WAT      O82576   3.465   6.788   6.866
27445WAT     H182577   3.515   6.871   6.893
27445WAT     H282578   3.490   6.713   6.929
27446WAT      O82579   4.979   9.566   1.230
27446WAT     H182580   5.032   9.600   1.308
27446WAT     H282581   4.974   9.466   1.235
27447WAT      O82582   0.469   3.583   2.540
27447WAT     H182583   0.463   3.553   2.445
27447WAT     H282584   0.460   3.682   2.545
27448WAT      O82585   4.250   1.632   3.275
27448WAT     H182586   4.328   1.694   3.261
27448WAT     H282587   4.167   1.687   3.286
27449WAT      O82588   6.018   2.141   9.061
27449WAT     H182589   5.937   2.082   9.054
27449WAT     H282590   5.989   2.235   9.080
27450WAT      O82591   7.214   8.728   1.045
27450WAT     H182592   7.251   8.641   1.077
27450WAT     H282593   7.249   8.802   1.103
27451WAT      O82594   8.387   6.965   4.104
27451WAT     H182595   8.353   6.967   4.197
27451WAT     H282596   8.424   7.055   4.079
27452WAT      O82597   2.604   0.552   0.164
27452WAT     H182598   2.567   0.466   0.199
27452WAT     H282599   2.627   0.612   0.241
27453WAT      O82600   1.132   9.522   2.742
27453WAT     H182601   1.131   9.475   2.830
27453WAT     H282602   1.212   9.494   2.690
27454WAT      O82603   1.734   7.556   7.356
27454WAT     H182604   1.694   7.645   7.377
27454WAT     H282605   1.789   7.525   7.434
27455WAT      O82606   6.371   3.639   2.518
27455WAT     H182607   6.363   3.545   2.486
27455WAT     H282608   6.453   3.649   2.574
27456WAT      O82609   6.536   3.763   3.658
27456WAT     H182610   6.566   3.845   3.611
27456WAT     H282611   6.532   3.687   3.594
27457WAT      O82612   4.123   3.844   8.579
27457WAT     H182613   4.025   3.832   8.595
27457WAT     H282614   4.137   3.892   8.493
27458WAT      O82615   6.574   8.139   5.107
27458WAT     H182616   6.567   8.062   5.171
27458WAT     H282617   6.667   8.177   5.112
27459WAT      O82618   9.785   8.677   3.819
27459WAT     H182619   9.688   8.655   3.810
27459WAT     H282620   9.804   8.765   3.776
27460WAT      O82621   2.665   1.713   4.562
27460WAT     H182622   2.696   1.710   4.657
27460WAT     H282623   2.703   1.794   4.517
27461WAT      O82624   4.361   4.238   0.709
27461WAT     H182625   4.378   4.294   0.791
27461WAT     H282626   4.426   4.264   0.638
27462WAT      O82627   2.237   5.349   8.976
27462WAT     H182628   2.162   5.357   9.043
27462WAT     H282629   2.220   5.410   8.899
27463WAT      O82630   0.149   6.490   4.718
27463WAT     H182631   0.052   6.463   4.717
27463WAT     H282632   0.185   6.477   4.810
27464WAT      O82633   0.327   9.240   8.341
27464WAT     H182634   0.265   9.294   8.398
27464WAT     H282635   0.302   9.251   8.245
27465WAT      O82636   0.699   3.026   4.265
27465WAT     H182637   0.608   2.988   4.251
27465WAT     H282638   0.699   3.122   4.240
27466WAT      O82639   7.864   7.110   2.480
27466WAT     H182640   7.945   7.059   2.452
27466WAT     H282641   7.782   7.062   2.449
27467WAT      O82642   6.225   2.949   5.162
27467WAT     H182643   6.210   2.997   5.249
27467WAT     H282644   6.303   2.991   5.115
27468WAT      O82645   0.764   8.162   0.230
27468WAT     H182646   0.853   8.149   0.272
27468WAT     H282647   0.727   8.251   0.258
27469WAT      O82648   0.767   3.410   6.124
27469WAT     H182649   0.691   3.345   6.119
27469WAT     H282650   0.756   3.480   6.053
27470WAT      O82651   2.531   3.131   6.102
27470WAT     H182652   2.463   3.151   6.032
27470WAT     H282653   2.551   3.214   6.154
27471WAT      O82654   6.230   8.314   2.879
27471WAT     H182655   6.182   8.259   2.947
27471WAT     H282656   6.264   8.255   2.806
27472WAT      O82657   3.321   0.407   9.733
27472WAT     H182658   3.291   0.322   9.776
27472WAT     H282659   3.256   0.479   9.753
27473WAT      O82660   1.869   1.314   9.234
27473WAT     H182661   1.925   1.392   9.262
27473WAT     H282662   1.774   1.342   9.223
27474WAT      O82663   9.411   4.937   7.213
27474WAT     H182664   9.340   4.897   7.272
27474WAT     H282665   9.458   5.010   7.262
27475WAT      O82666   2.715   5.343   1.879
27475WAT     H182667   2.743   5.408   1.949
27475WAT     H282668   2.616   5.332   1.881
27476WAT      O82669   7.393   6.463   6.344
27476WAT     H182670   7.380   6.365   6.356
27476WAT     H282671   7.463   6.479   6.274
27477WAT      O82672   9.234   5.148   0.321
27477WAT     H182673   9.175   5.217   0.279
27477WAT     H282674   9.245   5.169   0.418
27478WAT      O82675   6.248   5.684   2.602
27478WAT     H182676   6.148   5.686   2.592
27478WAT     H282677   6.291   5.722   2.520
27479WAT      O82678   4.171   1.956   4.470
27479WAT     H182679   4.106   1.928   4.541
27479WAT     H282680   4.122   2.003   4.397
27480WAT      O82681   5.017   7.631   1.649
27480WAT     H182682   5.111   7.613   1.621
27480WAT     H282683   5.004   7.729   1.661
27481WAT      O82684   1.510   7.906   7.071
27481WAT     H182685   1.551   7.996   7.085
27481WAT     H282686   1.558   7.859   6.997
27482WAT      O82687   0.652   1.247   9.260
27482WAT     H182688   0.629   1.211   9.170
27482WAT     H282689   0.700   1.177   9.313
27483WAT      O82690   4.248   1.120   5.052
27483WAT     H182691   4.223   1.033   5.096
27483WAT     H282692   4.173   1.185   5.063
27484WAT      O82693   8.220   6.372   3.376
27484WAT     H182694   8.288   6.405   3.311
27484WAT     H282695   8.136   6.426   3.366
27485WAT      O82696   9.781   3.067   5.176
27485WAT     H182697   9.691   3.027   5.190
27485WAT     H282698   9.848   2.995   5.158
27486WAT      O82699   8.837   6.443   9.697
27486WAT     H182700   8.755   6.461   9.752
27486WAT     H282701   8.823   6.359   9.644
27487WAT      O82702   2.372   1.260   7.264
27487WAT     H182703   2.351   1.219   7.176
27487WAT     H282704   2.331   1.206   7.337
27488WAT      O82705   1.979   3.735   6.218
27488WAT     H182706   1.994   3.641   6.250
27488WAT     H282707   2.044   3.756   6.145
27489WAT      O82708   9.871   9.474   8.831
27489WAT     H182709   9.797   9.478   8.764
27489WAT     H282710   9.916   9.563   8.836
27490WAT      O82711   9.644   8.397   5.819
27490WAT     H182712   9.636   8.377   5.917
27490WAT     H282713   9.570   8.457   5.791
27491WAT      O82714   4.373   1.269   7.416
27491WAT     H182715   4.403   1.191   7.361
27491WAT     H282716   4.452   1.316   7.454
27492WAT      O82717   6.876   5.972   9.360
27492WAT     H182718   6.848   5.932   9.447
27492WAT     H282719   6.973   5.956   9.346
27493WAT      O82720   9.675   3.996   0.522
27493WAT     H182721   9.637   3.908   0.553
27493WAT     H282722   9.608   4.043   0.466
27494WAT      O82723   2.882   0.161   9.706
27494WAT     H182724   2.801   0.108   9.729
27494WAT     H282725   2.886   0.243   9.763
27495WAT      O82726   5.750   7.799   5.306
27495WAT     H182727   5.685   7.785   5.231
27495WAT     H282728   5.700   7.806   5.392
27496WAT      O82729   5.763   9.186   6.760
27496WAT     H182730   5.857   9.212   6.786
27496WAT     H282731   5.741   9.226   6.671
27497WAT      O82732   1.310   0.905   0.244
27497WAT     H182733   1.360   0.989   0.223
27497WAT     H282734   1.352   0.859   0.322
27498WAT      O82735   7.468   6.072   5.148
27498WAT     H182736   7.461   6.163   5.105
27498WAT     H282737   7.499   6.006   5.080
27499WAT      O82738   4.576   0.286   1.000
27499WAT     H182739   4.589   0.310   1.096
27499WAT     H282740   4.506   0.214   0.993
27500WAT      O82741   4.678   2.696   4.370
27500WAT     H182742   4.606   2.764   4.353
27500WAT     H282743   4.637   2.613   4.408
27501WAT      O82744   1.579   1.110   7.057
27501WAT     H182745   1.604   1.180   6.990
27501WAT     H282746   1.661   1.083   7.108
27502WAT      O82747   7.302   8.551   6.539
27502WAT     H182748   7.210   8.540   6.502
27502WAT     H282749   7.296   8.592   6.630
27503WAT      O82750   2.213   7.793   7.638
27503WAT     H182751   2.146   7.796   7.564
27503WAT     H282752   2.227   7.698   7.666
27504WAT      O82753   7.974   6.628   9.052
27504WAT     H182754   7.955   6.551   9.113
27504WAT     H282755   7.902   6.696   9.061
27505WAT      O82756   0.010   6.891   8.889
27505WAT     H182757  -0.017   6.883   8.793
27505WAT     H282758   0.051   6.980   8.905
27506WAT      O82759   5.635   6.767   0.200
27506WAT     H182760   5.632   6.866   0.186
27506WAT     H282761   5.729   6.737   0.210
27507WAT      O82762   2.646   0.174   2.023
27507WAT     H182763   2.672   0.153   2.117
27507WAT     H282764   2.550   0.201   2.020
27508WAT      O82765   8.611   8.110   2.061
27508WAT     H182766   8.537   8.093   2.126
27508WAT     H282767   8.699   8.090   2.103
27509WAT      O82768   6.440   1.713   1.717
27509WAT     H182769   6.491   1.761   1.788
27509WAT     H282770   6.503   1.654   1.665
27510WAT      O82771   2.976   1.500   2.992
27510WAT     H182772   2.960   1.556   3.073
27510WAT     H282773   2.997   1.559   2.914
27511WAT      O82774   2.614   5.079   9.428
27511WAT     H182775   2.579   5.137   9.501
27511WAT     H282776   2.553   5.084   9.349
27512WAT      O82777   3.170   6.837   5.771
27512WAT     H182778   3.254   6.892   5.777
27512WAT     H282779   3.193   6.744   5.743
27513WAT      O82780   9.680   0.895   7.964
27513WAT     H182781   9.588   0.861   7.942
27513WAT     H282782   9.675   0.954   8.045
27514WAT      O82783   9.460   9.546   2.574
27514WAT     H182784   9.441   9.617   2.642
27514WAT     H282785   9.558   9.528   2.572
27515WAT      O82786   2.518   6.469   4.021
27515WAT     H182787   2.432   6.483   4.069
27515WAT     H282788   2.564   6.558   4.010
27516WAT      O82789   0.975   2.638   5.163
27516WAT     H182790   1.019   2.566   5.110
27516WAT     H282791   1.041   2.678   5.227
27517WAT      O82792   6.334   6.558   6.712
27517WAT     H182793   6.297   6.603   6.793
27517WAT     H282794   6.420   6.602   6.686
27518WAT      O82795   0.655   3.724   4.122
27518WAT     H182796   0.696   3.632   4.127
27518WAT     H282797   0.669   3.761   4.030
27519WAT      O82798   8.735   0.705   4.750
27519WAT     H182799   8.666   0.669   4.686
27519WAT     H282800   8.701   0.697   4.843
27520WAT      O82801   4.088   6.153   2.860
27520WAT     H182802   4.188   6.151   2.869
27520WAT     H282803   4.052   6.060   2.869
27521WAT      O82804   0.455   3.082   4.034
27521WAT     H182805   0.455   3.006   4.098
27521WAT     H282806   0.548   3.098   4.001
27522WAT      O82807   2.467   0.109   1.525
27522WAT     H182808   2.531   0.160   1.467
27522WAT     H282809   2.512   0.027   1.561
27523WAT      O82810   1.336   5.152   5.684
27523WAT     H182811   1.349   5.251   5.676
27523WAT     H282812   1.381   5.119   5.767
27524WAT      O82813   5.138   4.419   7.801
27524WAT     H182814   5.208   4.475   7.846
27524WAT     H282815   5.116   4.341   7.858
27525WAT      O82816   5.666   1.715   0.076
27525WAT     H182817   5.642   1.641   0.013
27525WAT     H282818   5.619   1.700   0.164
27526WAT      O82819   2.395   8.069   7.394
27526WAT     H182820   2.408   8.035   7.487
27526WAT     H282821   2.426   8.000   7.329
27527WAT      O82822   1.677   5.346   3.528
27527WAT     H182823   1.632   5.257   3.535
27527WAT     H282824   1.685   5.371   3.431
27528WAT      O82825   5.986   1.560   3.961
27528WAT     H182826   6.045   1.492   3.918
27528WAT     H282827   6.002   1.650   3.919
27529WAT      O82828   2.228   0.975   2.142
27529WAT     H182829   2.181   0.892   2.112
27529WAT     H282830   2.293   0.952   2.214
27530WAT      O82831   7.444   9.365   2.517
27530WAT     H182832   7.394   9.445   2.548
27530WAT     H282833   7.542   9.378   2.533
27531WAT      O82834   4.355   8.798   7.355
27531WAT     H182835   4.279   8.788   7.418
27531WAT     H282836   4.441   8.788   7.405
27532WAT      O82837   4.331   6.272   3.731
27532WAT     H182838   4.403   6.278   3.801
27532WAT     H282839   4.292   6.362   3.715
27533WAT      O82840   4.062   1.822   4.190
27533WAT     H182841   4.104   1.790   4.105
27533WAT     H282842   4.084   1.919   4.204
27534WAT      O82843   5.253   6.339   6.527
27534WAT     H182844   5.160   6.362   6.556
27534WAT     H282845   5.262   6.351   6.428
27535WAT      O82846   6.196   2.481   4.392
27535WAT     H182847   6.259   2.407   4.418
27535WAT     H282848   6.248   2.566   4.382
27536WAT      O82849   8.505   0.139   8.673
27536WAT     H182850   8.566   0.111   8.747
27536WAT     H282851   8.435   0.201   8.709
27537WAT      O82852   1.462   1.569   3.647
27537WAT     H182853   1.404   1.635   3.694
27537WAT     H282854   1.542   1.548   3.703
27538WAT      O82855   9.065   9.045   0.664
27538WAT     H182856   9.122   8.992   0.728
27538WAT     H282857   9.123   9.088   0.596
27539WAT      O82858   7.971   8.464   8.505
27539WAT     H182859   8.065   8.480   8.474
27539WAT     H282860   7.944   8.536   8.569
27540WAT      O82861   0.118   5.045   5.718
27540WAT     H182862   0.161   5.045   5.809
27540WAT     H282863   0.087   4.953   5.695
27541WAT      O82864   2.337   0.766   5.712
27541WAT     H182865   2.344   0.864   5.693
27541WAT     H282866   2.347   0.715   5.627
27542WAT      O82867   7.110   0.368   8.270
27542WAT     H182868   7.186   0.395   8.211
27542WAT     H282869   7.044   0.443   8.276
27543WAT      O82870   0.337   3.906   8.696
27543WAT     H182871   0.348   4.006   8.695
27543WAT     H282872   0.382   3.867   8.615
27544WAT      O82873   3.379   4.341   2.408
27544WAT     H182874   3.289   4.333   2.366
27544WAT     H282875   3.418   4.431   2.386
27545WAT      O82876   5.964   0.827   5.329
27545WAT     H182877   5.883   0.852   5.275
27545WAT     H282878   5.981   0.896   5.399
27546WAT      O82879   2.174   8.936   0.041
27546WAT     H182880   2.267   8.923   0.075
27546WAT     H282881   2.171   8.917  -0.057
27547WAT      O82882   5.828   9.658   9.112
27547WAT     H182883   5.818   9.634   9.208
27547WAT     H282884   5.861   9.579   9.061
27548WAT      O82885   0.990   1.276   4.914
27548WAT     H182886   1.048   1.248   4.990
27548WAT     H282887   0.912   1.328   4.948
27549WAT      O82888   0.810   2.858   4.772
27549WAT     H182889   0.810   2.822   4.866
27549WAT     H282890   0.875   2.933   4.765
27550WAT      O82891   2.842   5.939   5.638
27550WAT     H182892   2.790   5.955   5.554
27550WAT     H282893   2.935   5.973   5.626
27551WAT      O82894   7.213   2.284   8.637
27551WAT     H182895   7.291   2.320   8.688
27551WAT     H282896   7.132   2.340   8.655
27552WAT      O82897   0.224   4.805   9.229
27552WAT     H182898   0.269   4.726   9.271
27552WAT     H282899   0.159   4.774   9.161
27553WAT      O82900   4.788   4.320   1.530
27553WAT     H182901   4.880   4.325   1.493
27553WAT     H282902   4.766   4.225   1.553
27554WAT      O82903   7.341   6.474   4.316
27554WAT     H182904   7.401   6.489   4.394
27554WAT     H282905   7.265   6.539   4.319
27555WAT      O82906   9.563   4.080   5.290
27555WAT     H182907   9.518   4.160   5.329
27555WAT     H282908   9.506   3.999   5.304
27556WAT      O82909   7.014   9.324   7.597
27556WAT     H182910   6.951   9.291   7.526
27556WAT     H282911   7.081   9.386   7.557
27557WAT      O82912   3.702   7.407   5.659
27557WAT     H182913   3.777   7.382   5.597
27557WAT     H282914   3.740   7.451   5.740
27558WAT      O82915   1.419   2.640   6.431
27558WAT     H182916   1.407   2.624   6.529
27558WAT     H282917   1.497   2.700   6.416
27559WAT      O82918   9.810   5.555   7.685
27559WAT     H182919   9.863   5.639   7.685
27559WAT     H282920   9.871   5.476   7.677
27560WAT      O82921   0.794   6.721   8.884
27560WAT     H182922   0.733   6.791   8.922
27560WAT     H282923   0.858   6.765   8.820
27561WAT      O82924   2.040   0.571   5.163
27561WAT     H182925   2.017   0.667   5.183
27561WAT     H282926   2.001   0.545   5.075
27562WAT      O82927   5.440   0.393   6.939
27562WAT     H182928   5.497   0.349   7.008
27562WAT     H282929   5.409   0.481   6.972
27563WAT      O82930   5.436   3.565   2.821
27563WAT     H182931   5.394   3.644   2.777
27563WAT     H282932   5.514   3.534   2.766
27564WAT      O82933   7.859   4.326   1.903
27564WAT     H182934   7.907   4.410   1.878
27564WAT     H282935   7.924   4.263   1.946
27565WAT      O82936   1.837   8.871   6.049
27565WAT     H182937   1.868   8.966   6.057
27565WAT     H282938   1.800   8.841   6.137
27566WAT      O82939   0.599   6.503   2.274
27566WAT     H182940   0.525   6.436   2.273
27566WAT     H282941   0.561   6.595   2.266
27567WAT      O82942   8.850   4.900   5.562
27567WAT     H182943   8.757   4.937   5.570
27567WAT     H282944   8.914   4.975   5.551
27568WAT      O82945   6.302   5.732   9.316
27568WAT     H182946   6.265   5.822   9.336
27568WAT     H282947   6.265   5.699   9.228
27569WAT      O82948   7.302   6.501   5.739
27569WAT     H182949   7.391   6.473   5.774
27569WAT     H282950   7.297   6.482   5.641
27570WAT      O82951   0.276   1.167   6.254
27570WAT     H182952   0.325   1.167   6.166
27570WAT     H282953   0.193   1.222   6.246
27571WAT      O82954   2.416   7.047   1.587
27571WAT     H182955   2.438   7.137   1.624
27571WAT     H282956   2.318   7.040   1.570
27572WAT      O82957   5.436   1.851   1.062
27572WAT     H182958   5.370   1.893   1.124
27572WAT     H282959   5.528   1.869   1.095
27573WAT      O82960   3.597   5.843   3.602
27573WAT     H182961   3.591   5.771   3.533
27573WAT     H282962   3.534   5.917   3.580
27574WAT      O82963   6.851   1.188   1.305
27574WAT     H182964   6.840   1.123   1.230
27574WAT     H282965   6.948   1.210   1.316
27575WAT      O82966   7.359   6.123   7.264
27575WAT     H182967   7.290   6.146   7.332
27575WAT     H282968   7.441   6.179   7.280
27576WAT      O82969   4.032   3.235   3.653
27576WAT     H182970   4.115   3.210   3.703
27576WAT     H282971   3.963   3.165   3.665
27577WAT      O82972   2.404   0.263   8.891
27577WAT     H182973   2.391   0.362   8.897
27577WAT     H282974   2.353   0.226   8.814
27578WAT      O82975   0.927   1.655   1.618
27578WAT     H182976   0.913   1.741   1.668
27578WAT     H282977   0.890   1.664   1.526
27579WAT      O82978   3.473   7.300   4.883
27579WAT     H182979   3.434   7.381   4.840
27579WAT     H282980   3.401   7.250   4.932
27580WAT      O82981   3.407   6.823   5.343
27580WAT     H182982   3.419   6.842   5.441
27580WAT     H282983   3.462   6.888   5.290
27581WAT      O82984   2.816   4.716   9.553
27581WAT     H182985   2.793   4.773   9.475
27581WAT     H282986   2.900   4.750   9.596
27582WAT      O82987   0.828   5.773   7.202
27582WAT     H182988   0.885   5.803   7.278
27582WAT     H282989   0.733   5.767   7.232
27583WAT      O82990   7.646   3.892   9.301
27583WAT     H182991   7.553   3.929   9.307
27583WAT     H282992   7.709   3.953   9.348
27584WAT      O82993   4.552   9.783   2.508
27584WAT     H182994   4.527   9.843   2.433
27584WAT     H282995   4.469   9.746   2.550
27585WAT      O82996   0.241   9.261   7.753
27585WAT     H182997   0.219   9.316   7.673
27585WAT     H282998   0.280   9.173   7.724
27586WAT      O82999   6.579   5.311   2.392
27586WAT     H183000   6.575   5.287   2.490
27586WAT     H283001   6.508   5.261   2.343
27587WAT      O83002   0.609   4.099   7.732
27587WAT     H183003   0.565   4.162   7.797
27587WAT     H283004   0.591   4.005   7.760
27588WAT      O83005   6.290   0.868   4.349
27588WAT     H183006   6.257   0.929   4.420
27588WAT     H283007   6.227   0.791   4.339
27589WAT      O83008   4.554   9.713   5.884
27589WAT     H183009   4.521   9.757   5.800
27589WAT     H283010   4.592   9.623   5.862
27590WAT      O83011   8.229   9.426   7.118
27590WAT     H183012   8.283   9.501   7.079
27590WAT     H283013   8.153   9.464   7.171
27591WAT      O83014   5.708   7.609   5.711
27591WAT     H183015   5.705   7.697   5.663
27591WAT     H283016   5.646   7.612   5.790
27592WAT      O83017   6.349   9.522   2.986
27592WAT     H183018   6.301   9.481   2.908
27592WAT     H283019   6.304   9.495   3.071
27593WAT      O83020   3.460   5.291   9.334
27593WAT     H183021   3.425   5.199   9.315
27593WAT     H283022   3.409   5.331   9.411
27594WAT      O83023   6.766   8.996   0.647
27594WAT     H183024   6.718   8.962   0.727
27594WAT     H283025   6.833   9.065   0.674
27595WAT      O83026   9.407   2.829   9.759
27595WAT     H183027   9.332   2.838   9.825
27595WAT     H283028   9.424   2.733   9.740
27596WAT      O83029   2.496   5.388   2.795
27596WAT     H183030   2.402   5.423   2.802
27596WAT     H283031   2.505   5.332   2.713
27597WAT      O83032   3.448   9.560   5.699
27597WAT     H183033   3.511   9.635   5.680
27597WAT     H283034   3.489   9.474   5.665
27598WAT      O83035   4.040   1.106   2.424
27598WAT     H183036   4.088   1.052   2.493
27598WAT     H283037   3.943   1.112   2.448
27599WAT      O83038   9.442   6.699   3.076
27599WAT     H183039   9.356   6.655   3.101
27599WAT     H283040   9.432   6.743   2.987
27600WAT      O83041   5.033   7.767   2.040
27600WAT     H183042   4.999   7.860   2.026
27600WAT     H283043   5.069   7.731   1.953
27601WAT      O83044   0.657   1.375   0.243
27601WAT     H183045   0.735   1.419   0.287
27601WAT     H283046   0.578   1.378   0.305
27602WAT      O83047   7.622   2.470   5.116
27602WAT     H183048   7.698   2.520   5.074
27602WAT     H283049   7.658   2.407   5.184
27603WAT      O83050   0.198   8.279   6.399
27603WAT     H183051   0.201   8.376   6.426
27603WAT     H283052   0.164   8.224   6.476
27604WAT      O83053   0.274   2.478   9.026
27604WAT     H183054   0.363   2.505   8.989
27604WAT     H283055   0.201   2.516   8.970
27605WAT      O83056   6.447   7.077   1.391
27605WAT     H183057   6.535   7.034   1.368
27605WAT     H283058   6.380   7.055   1.321
27606WAT      O83059   2.465   9.805   9.071
27606WAT     H183060   2.366   9.795   9.076
27606WAT     H283061   2.500   9.836   9.159
27607WAT      O83062   5.512   2.032   2.938
27607WAT     H183063   5.486   1.975   3.016
27607WAT     H283064   5.429   2.061   2.889
27608WAT      O83065   6.378   8.364   5.140
27608WAT     H183066   6.449   8.294   5.138
27608WAT     H283067   6.418   8.451   5.168
27609WAT      O83068   0.792   7.707   1.866
27609WAT     H183069   0.868   7.657   1.908
27609WAT     H283070   0.808   7.714   1.767
27610WAT      O83071   0.411   6.599   3.868
27610WAT     H183072   0.486   6.658   3.899
27610WAT     H283073   0.332   6.611   3.928
27611WAT      O83074   1.278   7.077   7.114
27611WAT     H183075   1.229   7.104   7.032
27611WAT     H283076   1.372   7.112   7.111
27612WAT      O83077   4.370   2.268   3.066
27612WAT     H183078   4.282   2.222   3.078
27612WAT     H283079   4.361   2.364   3.091
27613WAT      O83080   2.549   4.842   3.167
27613WAT     H183081   2.517   4.935   3.179
27613WAT     H283082   2.565   4.824   3.070
27614WAT      O83083   2.049   7.546   1.441
27614WAT     H183084   1.969   7.544   1.501
27614WAT     H283085   2.100   7.630   1.456
27615WAT      O83086   8.039   1.919   5.860
27615WAT     H183087   7.972   1.965   5.919
27615WAT     H283088   7.994   1.844   5.812
27616WAT      O83089   8.833   3.892   6.054
27616WAT     H183090   8.782   3.924   5.974
27616WAT     H283091   8.923   3.860   6.026
27617WAT      O83092   4.848   8.410   4.274
27617WAT     H183093   4.892   8.343   4.334
27617WAT     H283094   4.752   8.419   4.298
27618WAT      O83095   2.235   0.199   6.862
27618WAT     H183096   2.163   0.268   6.864
27618WAT     H283097   2.222   0.136   6.938
27619WAT      O83098   8.281   2.124   5.807
27619WAT     H183099   8.355   2.139   5.873
27619WAT     H283100   8.206   2.075   5.851
27620WAT      O83101   9.873   5.552   4.145
27620WAT     H183102   9.925   5.476   4.106
27620WAT     H283103   9.828   5.523   4.229
27621WAT      O83104   9.130   5.825   3.180
27621WAT     H183105   9.135   5.873   3.093
27621WAT     H283106   9.100   5.730   3.164
27622WAT      O83107   2.582   8.201   7.186
27622WAT     H183108   2.589   8.252   7.100
27622WAT     H283109   2.492   8.215   7.227
27623WAT      O83110   2.696   3.852   6.343
27623WAT     H183111   2.784   3.859   6.390
27623WAT     H283112   2.691   3.921   6.271
27624WAT      O83113   3.833   5.352   2.653
27624WAT     H183114   3.925   5.317   2.631
27624WAT     H283115   3.774   5.338   2.574
27625WAT      O83116   6.142   1.723   9.169
27625WAT     H183117   6.199   1.700   9.248
27625WAT     H283118   6.051   1.751   9.201
27626WAT      O83119   7.441   7.141   7.142
27626WAT     H183120   7.355   7.101   7.171
27626WAT     H283121   7.517   7.095   7.187
27627WAT      O83122   8.314   0.614   8.816
27627WAT     H183123   8.389   0.561   8.857
27627WAT     H283124   8.286   0.686   8.879
27628WAT      O83125   1.469   1.933   2.347
27628WAT     H183126   1.414   1.995   2.403
27628WAT     H283127   1.552   1.981   2.317
27629WAT      O83128   7.124   6.247   5.879
27629WAT     H183129   7.125   6.325   5.816
27629WAT     H283130   7.080   6.169   5.834
27630WAT      O83131   4.597   0.548   8.747
27630WAT     H183132   4.596   0.590   8.838
27630WAT     H283133   4.690   0.516   8.726
27631WAT      O83134   4.620   4.356   8.304
27631WAT     H183135   4.643   4.299   8.383
27631WAT     H283136   4.662   4.318   8.222
27632WAT      O83137   2.956   1.446   5.132
27632WAT     H183138   2.910   1.494   5.207
27632WAT     H283139   3.030   1.502   5.097
27633WAT      O83140   7.523   2.176   3.820
27633WAT     H183141   7.441   2.214   3.863
27633WAT     H283142   7.582   2.137   3.890
27634WAT      O83143   8.176   3.345   0.686
27634WAT     H183144   8.085   3.318   0.717
27634WAT     H283145   8.243   3.276   0.713
27635WAT      O83146   4.328   1.785   5.270
27635WAT     H183147   4.399   1.725   5.307
27635WAT     H283148   4.306   1.856   5.337
27636WAT      O83149   4.815   3.235   3.917
27636WAT     H183150   4.902   3.282   3.933
27636WAT     H283151   4.739   3.297   3.939
27637WAT      O83152   0.084   7.366   5.794
27637WAT     H183153   0.172   7.406   5.769
27637WAT     H283154   0.070   7.280   5.745
27638WAT      O83155   5.447   0.098   8.681
27638WAT     H183156   5.544   0.112   8.702
27638WAT     H283157   5.398   0.073   8.764
27639WAT      O83158   6.416   1.714   0.093
27639WAT     H183159   6.418   1.697  -0.005
27639WAT     H283160   6.455   1.636   0.142
27640WAT      O83161   8.631   7.969   0.428
27640WAT     H183162   8.542   7.973   0.473
27640WAT     H283163   8.654   8.059   0.391
27641WAT      O83164   9.339   8.676   8.561
27641WAT     H183165   9.258   8.704   8.614
27641WAT     H283166   9.407   8.637   8.623
27642WAT      O83167   6.653   9.056   8.203
27642WAT     H183168   6.570   9.049   8.259
27642WAT     H283169   6.707   8.972   8.212
27643WAT      O83170   8.384   8.348   2.116
27643WAT     H183171   8.329   8.278   2.160
27643WAT     H283172   8.329   8.430   2.101
27644WAT      O83173   1.068   0.511   0.773
27644WAT     H183174   1.001   0.582   0.750
27644WAT     H283175   1.152   0.526   0.721
27645WAT      O83176   5.052   0.414   9.131
27645WAT     H183177   5.122   0.415   9.059
27645WAT     H283178   5.073   0.343   9.197
27646WAT      O83179   2.553   5.166   0.599
27646WAT     H183180   2.646   5.201   0.603
27646WAT     H283181   2.551   5.072   0.634
27647WAT      O83182   7.522   8.761   2.931
27647WAT     H183183   7.424   8.774   2.917
27647WAT     H283184   7.544   8.663   2.925
27648WAT      O83185   7.681   1.049   5.712
27648WAT     H183186   7.776   1.024   5.694
27648WAT     H283187   7.676   1.147   5.733
27649WAT      O83188   8.829   0.304   4.038
27649WAT     H183189   8.879   0.384   4.070
27649WAT     H283190   8.736   0.306   4.074
27650WAT      O83191   1.714   4.965   8.428
27650WAT     H183192   1.765   5.000   8.349
27650WAT     H283193   1.660   4.885   8.401
27651WAT      O83194   8.174   6.634   0.072
27651WAT     H183195   8.159   6.593  -0.018
27651WAT     H283196   8.248   6.701   0.066
27652WAT      O83197   1.649   1.924   6.751
27652WAT     H183198   1.619   1.909   6.845
27652WAT     H283199   1.632   1.841   6.697
27653WAT      O83200   3.753   1.336   0.166
27653WAT     H183201   3.729   1.322   0.070
27653WAT     H283202   3.794   1.427   0.177
27654WAT      O83203   9.696   9.377   0.820
27654WAT     H183204   9.682   9.382   0.721
27654WAT     H283205   9.634   9.309   0.859
27655WAT      O83206   5.063   3.214   3.074
27655WAT     H183207   5.066   3.274   3.154
27655WAT     H283208   5.103   3.125   3.097
27656WAT      O83209   0.415   9.052   9.727
27656WAT     H183210   0.380   9.126   9.785
27656WAT     H283211   0.363   9.049   9.642
27657WAT      O83212   7.444   1.142   3.228
27657WAT     H183213   7.517   1.097   3.177
27657WAT     H283214   7.483   1.194   3.303
27658WAT      O83215   1.168   9.297   2.010
27658WAT     H183216   1.185   9.371   2.076
27658WAT     H283217   1.145   9.213   2.059
27659WAT      O83218   2.154   6.307   5.543
27659WAT     H183219   2.188   6.241   5.610
27659WAT     H283220   2.178   6.277   5.451
27660WAT      O83221   4.092   5.319   9.219
27660WAT     H183222   4.029   5.313   9.296
27660WAT     H283223   4.133   5.410   9.215
27661WAT      O83224   6.748   0.665   5.761
27661WAT     H183225   6.725   0.761   5.777
27661WAT     H283226   6.773   0.622   5.848
27662WAT      O83227   9.152   7.589   8.673
27662WAT     H183228   9.154   7.689   8.676
27662WAT     H283229   9.231   7.556   8.620
27663WAT      O83230   5.808   6.666   3.894
27663WAT     H183231   5.876   6.736   3.872
27663WAT     H283232   5.717   6.708   3.894
27664WAT      O83233   1.873   0.413   0.215
27664WAT     H183234   1.854   0.315   0.207
27664WAT     H283235   1.812   0.464   0.154
27665WAT      O83236   3.484   7.965   8.577
27665WAT     H183237   3.470   7.901   8.501
27665WAT     H283238   3.572   8.011   8.565
27666WAT      O83239   6.692   9.829   5.360
27666WAT     H183240   6.690   9.891   5.281
27666WAT     H283241   6.736   9.743   5.334
27667WAT      O83242   5.524   6.835   3.857
27667WAT     H183243   5.470   6.775   3.798
27667WAT     H283244   5.508   6.811   3.952
27668WAT      O83245   7.652   5.205   5.569
27668WAT     H183246   7.566   5.169   5.531
27668WAT     H283247   7.656   5.184   5.667
27669WAT      O83248   9.034   9.415   7.035
27669WAT     H183249   9.031   9.484   7.108
27669WAT     H283250   8.971   9.341   7.057
27670WAT      O83251   3.303   8.579   4.299
27670WAT     H183252   3.383   8.636   4.283
27670WAT     H283253   3.253   8.613   4.379
27671WAT      O83254   4.323   7.259   0.283
27671WAT     H183255   4.415   7.235   0.251
27671WAT     H283256   4.285   7.331   0.224
27672WAT      O83257   7.627   3.128   4.102
27672WAT     H183258   7.720   3.092   4.095
27672WAT     H283259   7.627   3.226   4.086
27673WAT      O83260   0.095   5.484   3.720
27673WAT     H183261   0.069   5.413   3.655
27673WAT     H283262   0.154   5.446   3.790
27674WAT      O83263   1.971   7.232   5.373
27674WAT     H183264   1.916   7.236   5.290
27674WAT     H283265   2.065   7.206   5.349
27675WAT      O83266   0.709   7.254   8.891
27675WAT     H183267   0.692   7.181   8.825
27675WAT     H283268   0.655   7.239   8.973
27676WAT      O83269   1.191   3.298   0.064
27676WAT     H183270   1.152   3.370   0.005
27676WAT     H283271   1.126   3.222   0.070
27677WAT      O83272   3.367   5.174   4.879
27677WAT     H183273   3.439   5.124   4.928
27677WAT     H283274   3.301   5.109   4.841
27678WAT      O83275   4.529   9.386   2.261
27678WAT     H183276   4.535   9.292   2.228
27678WAT     H283277   4.539   9.449   2.184
27679WAT      O83278   9.209   9.030   3.323
27679WAT     H183279   9.215   9.097   3.398
27679WAT     H283280   9.297   9.025   3.276
27680WAT      O83281   3.200   7.919   4.691
27680WAT     H183282   3.153   7.835   4.665
27680WAT     H283283   3.147   7.967   4.762
27681WAT      O83284   6.766   5.912   6.102
27681WAT     H183285   6.801   6.005   6.087
27681WAT     H283286   6.817   5.848   6.045
27682WAT      O83287   4.202   4.552   8.203
27682WAT     H183288   4.124   4.492   8.191
27682WAT     H283289   4.268   4.510   8.266
27683WAT      O83290   8.933   5.385   5.190
27683WAT     H183291   8.891   5.301   5.225
27683WAT     H283292   8.950   5.376   5.092
27684WAT      O83293   7.622   1.874   9.250
27684WAT     H183294   7.625   1.801   9.318
27684WAT     H283295   7.574   1.954   9.288
27685WAT      O83296   8.481   1.966   8.446
27685WAT     H183297   8.468   2.040   8.512
27685WAT     H283298   8.547   1.900   8.482
27686WAT      O83299   3.585  -0.001   4.445
27686WAT     H183300   3.586   0.065   4.370
27686WAT     H283301   3.492  -0.007   4.482
27687WAT      O83302   9.723   0.305   8.809
27687WAT     H183303   9.717   0.216   8.855
27687WAT     H283304   9.686   0.298   8.717
27688WAT      O83305   6.082   9.382   5.940
27688WAT     H183306   6.139   9.434   6.004
27688WAT     H283307   6.086   9.425   5.850
27689WAT      O83308   6.566   0.818   9.304
27689WAT     H183309   6.516   0.754   9.246
27689WAT     H283310   6.634   0.866   9.250
27690WAT      O83311   6.717   8.440   8.910
27690WAT     H183312   6.750   8.356   8.869
27690WAT     H283313   6.617   8.446   8.897
27691WAT      O83314   5.673   6.607   9.459
27691WAT     H183315   5.590   6.662   9.456
27691WAT     H283316   5.737   6.647   9.525
27692WAT      O83317   5.011   4.349   8.661
27692WAT     H183318   5.065   4.395   8.592
27692WAT     H283319   5.070   4.291   8.717
27693WAT      O83320   7.872   6.308   5.523
27693WAT     H183321   7.829   6.368   5.591
27693WAT     H283322   7.818   6.310   5.439
27694WAT      O83323   4.169   6.424   8.744
27694WAT     H183324   4.232   6.492   8.783
27694WAT     H283325   4.124   6.463   8.664
27695WAT      O83326   0.975   7.546   3.093
27695WAT     H183327   1.056   7.488   3.100
27695WAT     H283328   1.000   7.640   3.113
27696WAT      O83329   0.180   3.346   7.972
27696WAT     H183330   0.129   3.368   7.889
27696WAT     H283331   0.278   3.350   7.953
27697WAT      O83332   1.087   3.509   7.942
27697WAT     H183333   1.134   3.478   7.860
27697WAT     H283334   0.989   3.493   7.933
27698WAT      O83335   0.803   1.401   6.801
27698WAT     H183336   0.806   1.470   6.729
27698WAT     H283337   0.848   1.318   6.769
27699WAT      O83338   2.439   3.133   5.098
27699WAT     H183339   2.378   3.209   5.116
27699WAT     H283340   2.534   3.165   5.097
27700WAT      O83341   8.675   6.623   5.154
27700WAT     H183342   8.723   6.707   5.179
27700WAT     H283343   8.742   6.550   5.138
27701WAT      O83344   8.798   4.768   1.432
27701WAT     H183345   8.810   4.844   1.496
27701WAT     H283346   8.884   4.752   1.383
27702WAT      O83347   9.392   9.232   0.728
27702WAT     H183348   9.305   9.280   0.741
27702WAT     H283349   9.438   9.223   0.817
27703WAT      O83350   2.461   1.612   8.345
27703WAT     H183351   2.456   1.520   8.305
27703WAT     H283352   2.491   1.677   8.276
27704WAT      O83353   1.381   1.083   8.464
27704WAT     H183354   1.469   1.039   8.444
27704WAT     H283355   1.308   1.033   8.417
27705WAT      O83356   7.005   7.983   2.594
27705WAT     H183357   6.966   7.899   2.556
27705WAT     H283358   6.931   8.044   2.623
27706WAT      O83359   8.027   5.052   7.072
27706WAT     H183360   8.114   5.050   7.023
27706WAT     H283361   7.957   5.006   7.018
27707WAT      O83362   0.538   4.153   6.026
27707WAT     H183363   0.536   4.196   5.935
27707WAT     H283364   0.550   4.055   6.016
27708WAT      O83365   9.162   3.620   1.857
27708WAT     H183366   9.189   3.677   1.779
27708WAT     H283367   9.082   3.660   1.902
27709WAT      O83368   8.904   6.104   6.652
27709WAT     H183369   8.834   6.175   6.659
27709WAT     H283370   8.934   6.077   6.744
27710WAT      O83371   1.752   3.272   9.455
27710WAT     H183372   1.786   3.258   9.548
27710WAT     H283373   1.791   3.355   9.417
27711WAT      O83374   0.674   6.910   3.429
27711WAT     H183375   0.690   6.839   3.361
27711WAT     H283376   0.660   6.868   3.519
27712WAT      O83377   5.364   3.424   8.651
27712WAT     H183378   5.330   3.512   8.618
27712WAT     H283379   5.302   3.388   8.722
27713WAT      O83380   5.860   3.456   3.470
27713WAT     H183381   5.838   3.408   3.555
27713WAT     H283382   5.788   3.522   3.449
27714WAT      O83383   3.803   2.280   1.811
27714WAT     H183384   3.825   2.318   1.901
27714WAT     H283385   3.726   2.216   1.820
27715WAT      O83386   3.932   6.273   2.122
27715WAT     H183387   3.907   6.366   2.150
27715WAT     H283388   3.993   6.277   2.043
27716WAT      O83389   2.418   7.343   7.119
27716WAT     H183390   2.458   7.317   7.206
27716WAT     H283391   2.345   7.278   7.095
27717WAT      O83392   0.655   5.478   6.337
27717WAT     H183393   0.570   5.492   6.387
27717WAT     H283394   0.709   5.563   6.338
27718WAT      O83395   0.590   9.167   0.115
27718WAT     H183396   0.593   9.067   0.114
27718WAT     H283397   0.594   9.201   0.021
27719WAT      O83398   6.261   2.265   1.911
27719WAT     H183399   6.185   2.204   1.936
27719WAT     H283400   6.246   2.300   1.819
27720WAT      O83401   2.076   6.910   0.975
27720WAT     H183402   2.118   6.864   0.897
27720WAT     H283403   2.043   6.999   0.947
27721WAT      O83404   6.172   1.849   2.959
27721WAT     H183405   6.086   1.816   2.920
27721WAT     H283406   6.216   1.774   3.010
27722WAT      O83407   5.634   8.248   8.492
27722WAT     H183408   5.692   8.183   8.542
27722WAT     H283409   5.641   8.230   8.394
27723WAT      O83410   3.849   8.777   2.218
27723WAT     H183411   3.777   8.713   2.193
27723WAT     H283412   3.877   8.829   2.138
27724WAT      O83413   4.196   9.365   4.325
27724WAT     H183414   4.232   9.310   4.400
27724WAT     H283415   4.259   9.440   4.306
27725WAT      O83416   7.377   9.198   2.870
27725WAT     H183417   7.448   9.264   2.895
27725WAT     H283418   7.419   9.121   2.821
27726WAT      O83419   5.842   5.032   6.980
27726WAT     H183420   5.880   5.123   6.961
27726WAT     H283421   5.825   5.023   7.078
27727WAT      O83422   1.894   4.230   2.507
27727WAT     H183423   1.884   4.327   2.528
27727WAT     H283424   1.917   4.180   2.590
27728WAT      O83425   3.160   2.226   4.115
27728WAT     H183426   3.125   2.242   4.022
27728WAT     H283427   3.253   2.261   4.122
27729WAT      O83428   8.241   2.884   5.403
27729WAT     H183429   8.193   2.918   5.323
27729WAT     H283430   8.340   2.896   5.390
27730WAT      O83431   3.569   2.523   4.563
27730WAT     H183432   3.486   2.574   4.541
27730WAT     H283433   3.570   2.437   4.513
27731WAT      O83434   3.024   9.078   9.216
27731WAT     H183435   3.024   9.176   9.197
27731WAT     H283436   3.102   9.035   9.171
27732WAT      O83437   6.241   0.377   6.889
27732WAT     H183438   6.258   0.430   6.806
27732WAT     H283439   6.152   0.402   6.926
27733WAT      O83440   5.180   8.868   1.270
27733WAT     H183441   5.153   8.815   1.350
27733WAT     H283442   5.135   8.958   1.273
27734WAT      O83443   4.779   2.111   8.294
27734WAT     H183444   4.863   2.063   8.318
27734WAT     H283445   4.701   2.064   8.335
27735WAT      O83446   2.914   4.421   1.684
27735WAT     H183447   2.995   4.472   1.658
27735WAT     H283448   2.876   4.374   1.604
27736WAT      O83449   2.465   3.208   1.439
27736WAT     H183450   2.434   3.284   1.382
27736WAT     H283451   2.549   3.233   1.486
27737WAT      O83452   3.289   0.734   1.088
27737WAT     H183453   3.352   0.663   1.056
27737WAT     H283454   3.339   0.799   1.146
27738WAT      O83455   7.498   6.738   9.031
27738WAT     H183456   7.550   6.685   8.964
27738WAT     H283457   7.406   6.702   9.038
27739WAT      O83458   5.943   3.636   5.304
27739WAT     H183459   6.021   3.592   5.350
27739WAT     H283460   5.898   3.570   5.244
27740WAT      O83461   2.794   3.832   3.045
27740WAT     H183462   2.719   3.806   3.106
27740WAT     H283463   2.881   3.810   3.089
27741WAT      O83464   7.434   3.005   9.017
27741WAT     H183465   7.521   2.959   9.034
27741WAT     H283466   7.359   2.946   9.044
27742WAT      O83467   5.936   3.113   2.325
27742WAT     H183468   5.941   3.155   2.415
27742WAT     H283469   6.013   3.143   2.269
27743WAT      O83470   8.028   0.732   0.092
27743WAT     H183471   7.995   0.638   0.075
27743WAT     H283472   8.127   0.732   0.096
27744WAT      O83473   5.380   3.668   7.170
27744WAT     H183474   5.449   3.628   7.231
27744WAT     H283475   5.368   3.610   7.090
27745WAT      O83476   3.494   0.511   8.702
27745WAT     H183477   3.419   0.549   8.756
27745WAT     H283478   3.563   0.581   8.686
27746WAT      O83479   1.475   1.360   8.285
27746WAT     H183480   1.452   1.287   8.349
27746WAT     H283481   1.573   1.354   8.263
27747WAT      O83482   3.256   5.404   9.470
27747WAT     H183483   3.169   5.453   9.468
27747WAT     H283484   3.259   5.343   9.549
27748WAT      O83485   6.427   8.350   1.661
27748WAT     H183486   6.400   8.436   1.704
27748WAT     H283487   6.440   8.364   1.563
27749WAT      O83488   1.198   5.925   0.147
27749WAT     H183489   1.134   5.913   0.223
27749WAT     H283490   1.244   5.838   0.128
27750WAT      O83491   3.313   0.776   8.669
27750WAT     H183492   3.291   0.693   8.719
27750WAT     H283493   3.344   0.846   8.733
27751WAT      O83494   5.375   7.055   5.217
27751WAT     H183495   5.332   6.965   5.215
27751WAT     H283496   5.445   7.057   5.288
27752WAT      O83497   8.837   8.239   1.898
27752WAT     H183498   8.917   8.192   1.861
27752WAT     H283499   8.756   8.212   1.847
27753WAT      O83500   0.370   0.362   6.409
27753WAT     H183501   0.305   0.359   6.333
27753WAT     H283502   0.320   0.352   6.495
27754WAT      O83503   7.816   2.156   9.194
27754WAT     H183504   7.815   2.207   9.108
27754WAT     H283505   7.728   2.168   9.240
27755WAT      O83506   0.094   6.966   7.776
27755WAT     H183507   0.076   7.055   7.734
27755WAT     H283508   0.141   6.907   7.710
27756WAT      O83509   4.854   2.266   0.527
27756WAT     H183510   4.935   2.224   0.568
27756WAT     H283511   4.796   2.303   0.598
27757WAT      O83512   8.100   8.788   8.772
27757WAT     H183513   8.147   8.756   8.854
27757WAT     H283514   8.013   8.739   8.762
27758WAT      O83515   6.161   5.157   0.012
27758WAT     H183516   6.095   5.230  -0.010
27758WAT     H283517   6.158   5.087  -0.059
27759WAT      O83518   0.837   4.675   6.746
27759WAT     H183519   0.924   4.627   6.751
27759WAT     H283520   0.806   4.697   6.838
27760WAT      O83521   9.015   1.119   7.882
27760WAT     H183522   9.004   1.218   7.879
27760WAT     H283523   9.112   1.097   7.898
27761WAT      O83524   1.145   0.237   8.481
27761WAT     H183525   1.112   0.319   8.528
27761WAT     H283526   1.131   0.247   8.383
27762WAT      O83527   7.422   9.800   5.246
27762WAT     H183528   7.446   9.707   5.272
27762WAT     H283529   7.472   9.865   5.303
27763WAT      O83530   4.094   1.735   3.920
27763WAT     H183531   4.102   1.760   3.823
27763WAT     H283532   4.008   1.687   3.935
27764WAT      O83533   4.699   8.279   6.393
27764WAT     H183534   4.704   8.365   6.343
27764WAT     H283535   4.641   8.214   6.343
27765WAT      O83536   9.377   1.311   1.965
27765WAT     H183537   9.300   1.251   1.944
27765WAT     H283538   9.343   1.402   1.988
27766WAT      O83539   7.587   7.253   6.194
27766WAT     H183540   7.661   7.191   6.221
27766WAT     H283541   7.504   7.200   6.178
27767WAT      O83542   0.235   0.469   3.167
27767WAT     H183543   0.167   0.406   3.130
27767WAT     H283544   0.192   0.556   3.190
27768WAT      O83545   9.261   4.106   5.541
27768WAT     H183546   9.191   4.173   5.567
27768WAT     H283547   9.272   4.105   5.442
27769WAT      O83548   7.450   9.145   4.500
27769WAT     H183549   7.483   9.060   4.461
27769WAT     H283550   7.366   9.129   4.551
27770WAT      O83551   1.226   4.196   6.971
27770WAT     H183552   1.301   4.248   6.931
27770WAT     H283553   1.261   4.138   7.045
27771WAT      O83554   0.824   8.927   9.608
27771WAT     H183555   0.826   8.928   9.708
27771WAT     H283556   0.909   8.886   9.574
27772WAT      O83557   5.336   5.282   2.082
27772WAT     H183558   5.385   5.307   1.998
27772WAT     H283559   5.238   5.285   2.066
27773WAT      O83560   3.877   5.937   3.469
27773WAT     H183561   3.877   5.847   3.424
27773WAT     H283562   3.847   5.927   3.564
27774WAT      O83563   6.766   4.817   2.417
27774WAT     H183564   6.825   4.777   2.487
27774WAT     H283565   6.696   4.874   2.461
27775WAT      O83566   5.825   7.474   7.894
27775WAT     H183567   5.911   7.425   7.877
27775WAT     H283568   5.758   7.411   7.933
27776WAT      O83569   0.678   2.236   9.573
27776WAT     H183570   0.766   2.194   9.595
27776WAT     H283571   0.605   2.168   9.581
27777WAT      O83572   9.696   8.095   5.852
27777WAT     H183573   9.711   8.190   5.826
27777WAT     H283574   9.602   8.084   5.885
27778WAT      O83575   2.131   4.725   2.147
27778WAT     H183576   2.134   4.762   2.240
27778WAT     H283577   2.090   4.793   2.086
27779WAT      O83578   6.925   4.050   5.819
27779WAT     H183579   6.990   3.993   5.869
27779WAT     H283580   6.832   4.019   5.837
27780WAT      O83581   8.574   5.257   1.445
27780WAT     H183582   8.573   5.200   1.527
27780WAT     H283583   8.529   5.344   1.464
27781WAT      O83584   9.241   6.683   8.738
27781WAT     H183585   9.233   6.659   8.834
27781WAT     H283586   9.308   6.623   8.694
27782WAT      O83587   9.358   3.870   2.288
27782WAT     H183588   9.350   3.938   2.361
27782WAT     H283589   9.435   3.809   2.308
27783WAT      O83590   9.546   4.332   7.846
27783WAT     H183591   9.587   4.291   7.927
27783WAT     H283592   9.614   4.341   7.773
27784WAT      O83593   0.021   2.929   0.895
27784WAT     H183594   0.035   2.830   0.886
27784WAT     H283595  -0.059   2.946   0.954
27785WAT      O83596   6.439   3.944   8.685
27785WAT     H183597   6.521   3.907   8.728
27785WAT     H283598   6.366   3.950   8.753
27786WAT      O83599   1.301   1.634   0.160
27786WAT     H183600   1.357   1.616   0.240
27786WAT     H283601   1.205   1.642   0.187
27787WAT      O83602   8.495   1.349   2.684
27787WAT     H183603   8.401   1.335   2.652
27787WAT     H283604   8.557   1.291   2.630
27788WAT      O83605   7.282   8.516   0.467
27788WAT     H183606   7.303   8.532   0.370
27788WAT     H283607   7.360   8.470   0.510
27789WAT      O83608   7.297   9.297   9.360
27789WAT     H183609   7.377   9.338   9.316
27789WAT     H283610   7.298   9.317   9.458
27790WAT      O83611   5.034   6.622   5.735
27790WAT     H183612   4.989   6.701   5.693
27790WAT     H283613   4.979   6.590   5.813
27791WAT      O83614   9.381   3.859   0.363
27791WAT     H183615   9.309   3.808   0.409
27791WAT     H283616   9.462   3.800   0.355
27792WAT      O83617   6.523   5.942   8.918
27792WAT     H183618   6.449   6.006   8.937
27792WAT     H283619   6.591   5.948   8.990
27793WAT      O83620   1.160   6.830   5.798
27793WAT     H183621   1.163   6.809   5.700
27793WAT     H283622   1.232   6.779   5.845
27794WAT      O83623   6.206   9.670   9.239
27794WAT     H183624   6.147   9.725   9.299
27794WAT     H283625   6.236   9.589   9.289
27795WAT      O83626   6.768   3.281   5.372
27795WAT     H183627   6.834   3.354   5.391
27795WAT     H283628   6.690   3.318   5.323
27796WAT      O83629   3.813   5.034   7.944
27796WAT     H183630   3.762   5.029   7.858
27796WAT     H283631   3.911   5.040   7.925
27797WAT      O83632   5.744   9.330   1.877
27797WAT     H183633   5.686   9.276   1.816
27797WAT     H283634   5.742   9.426   1.848
27798WAT      O83635   3.767   7.409   8.487
27798WAT     H183636   3.762   7.506   8.513
27798WAT     H283637   3.726   7.353   8.559
27799WAT      O83638   9.268   3.723   1.640
27799WAT     H183639   9.357   3.743   1.599
27799WAT     H283640   9.219   3.808   1.658
27800WAT      O83641   7.010   2.400   3.932
27800WAT     H183642   6.957   2.407   3.847
27800WAT     H283643   6.958   2.439   4.007
27801WAT      O83644   8.999   2.392   9.470
27801WAT     H183645   8.967   2.345   9.552
27801WAT     H283646   9.080   2.447   9.492
27802WAT      O83647   8.633   8.960   0.671
27802WAT     H183648   8.713   8.986   0.724
27802WAT     H283649   8.574   9.040   0.659
27803WAT      O83650   7.178   1.844   0.287
27803WAT     H183651   7.231   1.761   0.306
27803WAT     H283652   7.091   1.840   0.336
27804WAT      O83653   2.907   0.502   0.219
27804WAT     H183654   2.808   0.511   0.229
27804WAT     H283655   2.953   0.556   0.290
27805WAT      O83656   5.684   5.964   8.658
27805WAT     H183657   5.634   5.989   8.741
27805WAT     H283658   5.691   5.865   8.652
27806WAT      O83659   6.266   4.299   9.264
27806WAT     H183660   6.209   4.217   9.270
27806WAT     H283661   6.362   4.272   9.252
27807WAT      O83662   0.302   7.512   7.445
27807WAT     H183663   0.239   7.565   7.502
27807WAT     H283664   0.327   7.427   7.493
27808WAT      O83665   7.565   6.929   2.087
27808WAT     H183666   7.508   6.911   2.166
27808WAT     H283667   7.637   6.860   2.080
27809WAT      O83668   7.703   8.908   3.962
27809WAT     H183669   7.653   8.984   3.921
27809WAT     H283670   7.639   8.848   4.009
27810WAT      O83671   6.885   2.814   0.067
27810WAT     H183672   6.929   2.764   0.142
27810WAT     H283673   6.816   2.876   0.105
27811WAT      O83674   0.999   1.593   7.678
27811WAT     H183675   0.993   1.561   7.773
27811WAT     H283676   1.063   1.670   7.673
27812WAT      O83677   1.934   6.762   9.122
27812WAT     H183678   1.962   6.667   9.108
27812WAT     H283679   1.968   6.819   9.047
27813WAT      O83680   7.055   9.624   2.376
27813WAT     H183681   7.078   9.543   2.322
27813WAT     H283682   7.072   9.706   2.322
27814WAT      O83683   1.235   9.071   2.168
27814WAT     H183684   1.242   9.064   2.268
27814WAT     H283685   1.326   9.077   2.128
27815WAT      O83686   2.164   7.035   8.335
27815WAT     H183687   2.210   6.978   8.403
27815WAT     H283688   2.086   6.984   8.297
27816WAT      O83689   5.981   2.839   9.604
27816WAT     H183690   6.075   2.816   9.580
27816WAT     H283691   5.923   2.828   9.523
27817WAT      O83692   9.095   7.595   9.832
27817WAT     H183693   9.035   7.645   9.894
27817WAT     H283694   9.046   7.577   9.746
27818WAT      O83695   3.136   0.924   4.584
27818WAT     H183696   3.098   0.923   4.491
27818WAT     H283697   3.158   0.830   4.612
27819WAT      O83698   9.610   2.939   6.677
27819WAT     H183699   9.561   2.996   6.743
27819WAT     H283700   9.639   2.854   6.722
27820WAT      O83701   5.927   0.240   5.320
27820WAT     H183702   5.856   0.299   5.358
27820WAT     H283703   6.004   0.235   5.384
27821WAT      O83704   4.199   8.753   7.811
27821WAT     H183705   4.278   8.787   7.862
27821WAT     H283706   4.228   8.675   7.755
27822WAT      O83707   7.640   1.344   2.683
27822WAT     H183708   7.693   1.427   2.668
27822WAT     H283709   7.635   1.291   2.598
27823WAT      O83710   8.055   4.865   6.123
27823WAT     H183711   8.092   4.773   6.117
27823WAT     H283712   8.020   4.882   6.215
27824WAT      O83713   7.983   6.837   3.273
27824WAT     H183714   8.037   6.879   3.346
27824WAT     H283715   8.044   6.800   3.204
27825WAT      O83716   9.089   0.783   8.048
27825WAT     H183717   9.113   0.730   8.129
27825WAT     H283718   9.168   0.835   8.017
27826WAT      O83719   3.592   2.242   5.709
27826WAT     H183720   3.558   2.260   5.801
27826WAT     H283721   3.682   2.201   5.714
27827WAT      O83722   7.069   7.493   5.159
27827WAT     H183723   7.113   7.544   5.085
27827WAT     H283724   7.105   7.400   5.162
27828WAT      O83725   6.432   2.823   8.038
27828WAT     H183726   6.415   2.885   8.114
27828WAT     H283727   6.529   2.800   8.035
27829WAT      O83728   3.442   6.908   1.118
27829WAT     H183729   3.383   6.953   1.051
27829WAT     H283730   3.482   6.826   1.078
27830WAT      O83731   2.879   8.513   5.356
27830WAT     H183732   2.790   8.547   5.326
27830WAT     H283733   2.880   8.506   5.456
27831WAT      O83734   8.435   7.839   9.040
27831WAT     H183735   8.340   7.810   9.029
27831WAT     H283736   8.441   7.938   9.033
27832WAT      O83737   4.907   7.998   7.920
27832WAT     H183738   4.912   8.067   7.993
27832WAT     H283739   4.874   8.041   7.836
27833WAT      O83740   7.410   6.367   0.467
27833WAT     H183741   7.329   6.420   0.492
27833WAT     H283742   7.413   6.356   0.367
27834WAT      O83743   6.543   6.930   5.405
27834WAT     H183744   6.472   6.959   5.340
27834WAT     H283745   6.537   6.831   5.418
27835WAT      O83746   3.380   8.030   8.096
27835WAT     H183747   3.321   7.997   8.170
27835WAT     H283748   3.448   8.094   8.133
27836WAT      O83749   6.116   9.773   7.029
27836WAT     H183750   6.069   9.743   6.946
27836WAT     H283751   6.157   9.695   7.075
27837WAT      O83752   0.279   5.991   7.887
27837WAT     H183753   0.274   6.003   7.986
27837WAT     H283754   0.331   6.067   7.847
27838WAT      O83755   4.134   5.591   3.659
27838WAT     H183756   4.089   5.517   3.609
27838WAT     H283757   4.187   5.647   3.595
27839WAT      O83758   2.784   0.050   1.822
27839WAT     H183759   2.826   0.128   1.777
27839WAT     H283760   2.712   0.082   1.884
27840WAT      O83761   1.510   0.535   3.036
27840WAT     H183762   1.469   0.574   2.953
27840WAT     H283763   1.560   0.453   3.012
27841WAT      O83764   8.387   5.147   3.996
27841WAT     H183765   8.363   5.051   4.011
27841WAT     H283766   8.315   5.205   4.032
27842WAT      O83767   4.961   1.571   3.230
27842WAT     H183768   4.956   1.471   3.233
27842WAT     H283769   4.925   1.603   3.143
27843WAT      O83770   5.377   8.166   4.586
27843WAT     H183771   5.438   8.175   4.665
27843WAT     H283772   5.316   8.245   4.582
27844WAT      O83773   4.468   0.242   6.388
27844WAT     H183774   4.425   0.174   6.448
27844WAT     H283775   4.566   0.245   6.406
27845WAT      O83776   8.093   8.607   9.530
27845WAT     H183777   8.162   8.672   9.499
27845WAT     H283778   8.136   8.518   9.544
27846WAT      O83779   9.030   4.391   4.895
27846WAT     H183780   9.040   4.476   4.946
27846WAT     H283781   9.011   4.412   4.799
27847WAT      O83782   4.827   1.095   7.575
27847WAT     H183783   4.822   1.122   7.479
27847WAT     H283784   4.841   1.176   7.632
27848WAT      O83785   9.759   2.668   8.168
27848WAT     H183786   9.824   2.728   8.215
27848WAT     H283787   9.695   2.630   8.235
27849WAT      O83788   6.562   1.809   7.832
27849WAT     H183789   6.558   1.765   7.922
27849WAT     H283790   6.481   1.866   7.819
27850WAT      O83791   4.739   4.944   0.445
27850WAT     H183792   4.774   4.862   0.400
27850WAT     H283793   4.767   5.025   0.393
27851WAT      O83794   1.936   1.921   9.158
27851WAT     H183795   1.979   1.830   9.166
27851WAT     H283796   1.926   1.944   9.061
27852WAT      O83797   5.050   9.022   7.073
27852WAT     H183798   5.040   9.019   7.173
27852WAT     H283799   5.143   8.995   7.048
27853WAT      O83800   9.589   8.677   1.401
27853WAT     H183801   9.578   8.759   1.345
27853WAT     H283802   9.584   8.596   1.342
27854WAT      O83803   3.804   3.377   9.032
27854WAT     H183804   3.820   3.370   8.933
27854WAT     H283805   3.882   3.423   9.075
27855WAT      O83806   0.258   7.247   6.152
27855WAT     H183807   0.213   7.324   6.199
27855WAT     H283808   0.296   7.278   6.066
27856WAT      O83809   3.612   5.927   4.711
27856WAT     H183810   3.637   6.024   4.715
27856WAT     H283811   3.630   5.884   4.800
27857WAT      O83812   1.215   6.760   8.433
27857WAT     H183813   1.218   6.778   8.335
27857WAT     H283814   1.143   6.693   8.452
27858WAT      O83815   7.960   8.300   6.514
27858WAT     H183816   7.871   8.325   6.476
27858WAT     H283817   7.961   8.202   6.534
27859WAT      O83818   0.577   4.659   9.299
27859WAT     H183819   0.663   4.610   9.290
27859WAT     H283820   0.595   4.756   9.315
27860WAT      O83821   9.261   9.329   4.393
27860WAT     H183822   9.247   9.230   4.401
27860WAT     H283823   9.349   9.354   4.434
27861WAT      O83824   7.247   6.175   1.902
27861WAT     H183825   7.181   6.181   1.976
27861WAT     H283826   7.199   6.168   1.814
27862WAT      O83827   1.594   4.653   5.866
27862WAT     H183828   1.660   4.712   5.913
27862WAT     H283829   1.501   4.679   5.892
27863WAT      O83830   2.494   4.449   3.016
27863WAT     H183831   2.560   4.465   2.942
27863WAT     H283832   2.456   4.536   3.046
27864WAT      O83833   5.756   2.329   9.542
27864WAT     H183834   5.666   2.303   9.508
27864WAT     H283835   5.769   2.291   9.634
27865WAT      O83836   7.208   2.975   2.804
27865WAT     H183837   7.166   2.939   2.720
27865WAT     H283838   7.150   3.048   2.841
27866WAT      O83839   1.876   2.441   5.096
27866WAT     H183840   1.928   2.523   5.074
27866WAT     H283841   1.846   2.396   5.012
27867WAT      O83842   4.443   0.341   8.832
27867WAT     H183843   4.425   0.352   8.930
27867WAT     H283844   4.518   0.400   8.805
27868WAT      O83845   2.109   9.526   4.924
27868WAT     H183846   2.188   9.505   4.982
27868WAT     H283847   2.080   9.443   4.877
27869WAT      O83848   1.211   7.977   3.320
27869WAT     H183849   1.133   7.973   3.384
27869WAT     H283850   1.279   7.910   3.347
27870WAT      O83851   1.447   3.865   8.939
27870WAT     H183852   1.381   3.916   8.994
27870WAT     H283853   1.404   3.840   8.852
27871WAT      O83854   0.850   1.038   8.975
27871WAT     H183855   0.790   1.118   8.967
27871WAT     H283856   0.945   1.065   8.959
27872WAT      O83857   9.405   3.466   7.983
27872WAT     H183858   9.489   3.413   7.980
27872WAT     H283859   9.391   3.501   8.076
27873WAT      O83860   9.708   3.398   7.790
27873WAT     H183861   9.798   3.375   7.751
27873WAT     H283862   9.649   3.433   7.717
27874WAT      O83863   9.807   5.971   3.954
27874WAT     H183864   9.871   6.040   3.989
27874WAT     H283865   9.855   5.885   3.940
27875WAT      O83866   8.593   3.466   5.455
27875WAT     H183867   8.663   3.404   5.490
27875WAT     H283868   8.567   3.531   5.526
27876WAT      O83869   4.308   5.551   1.302
27876WAT     H183870   4.255   5.500   1.369
27876WAT     H283871   4.327   5.643   1.337
27877WAT      O83872   0.761   3.434   3.241
27877WAT     H183873   0.849   3.448   3.287
27877WAT     H283874   0.752   3.500   3.166
27878WAT      O83875   1.025   5.412   2.707
27878WAT     H183876   1.007   5.321   2.744
27878WAT     H283877   1.044   5.475   2.782
27879WAT      O83878   3.438   5.851   9.060
27879WAT     H183879   3.394   5.865   9.149
27879WAT     H283880   3.461   5.940   9.021
27880WAT      O83881   7.363   2.418   9.240
27880WAT     H183882   7.389   2.514   9.249
27880WAT     H283883   7.379   2.387   9.147
27881WAT      O83884   8.268   7.761   5.577
27881WAT     H183885   8.207   7.682   5.582
27881WAT     H283886   8.215   7.842   5.551
27882WAT      O83887   9.523   7.335   8.064
27882WAT     H183888   9.529   7.273   7.986
27882WAT     H283889   9.610   7.333   8.115
27883WAT      O83890   2.433   1.923   9.507
27883WAT     H183891   2.381   2.006   9.527
27883WAT     H283892   2.531   1.941   9.515
27884WAT      O83893   1.626   0.192   8.991
27884WAT     H183894   1.528   0.207   8.981
27884WAT     H283895   1.675   0.243   8.920
27885WAT      O83896   2.546   8.077   8.388
27885WAT     H183897   2.538   8.166   8.432
27885WAT     H283898   2.625   8.028   8.425
27886WAT      O83899   1.957   8.638   2.169
27886WAT     H183900   2.029   8.574   2.141
27886WAT     H283901   1.999   8.718   2.213
27887WAT      O83902   6.016   2.078   8.584
27887WAT     H183903   5.960   2.140   8.530
27887WAT     H283904   6.107   2.117   8.596
27888WAT      O83905   8.514   1.784   7.660
27888WAT     H183906   8.534   1.810   7.566
27888WAT     H283907   8.455   1.854   7.702
27889WAT      O83908   8.838   0.236   5.494
27889WAT     H183909   8.773   0.297   5.449
27889WAT     H283910   8.881   0.285   5.570
27890WAT      O83911   2.991   7.066   5.842
27890WAT     H183912   3.074   7.096   5.796
27890WAT     H283913   3.013   6.990   5.903
27891WAT      O83914   7.778   5.445   7.739
27891WAT     H183915   7.755   5.514   7.670
27891WAT     H283916   7.836   5.375   7.699
27892WAT      O83917   9.798   7.322   3.682
27892WAT     H183918   9.725   7.386   3.704
27892WAT     H283919   9.761   7.243   3.634
27893WAT      O83920   1.029   0.916   2.043
27893WAT     H183921   0.947   0.861   2.033
27893WAT     H283922   1.004   1.010   2.065
27894WAT      O83923   0.551   7.615   0.704
27894WAT     H183924   0.601   7.530   0.685
27894WAT     H283925   0.616   7.690   0.712
27895WAT      O83926   1.166   5.753   8.230
27895WAT     H183927   1.207   5.718   8.314
27895WAT     H283928   1.091   5.693   8.202
27896WAT      O83929   8.818   5.804   8.039
27896WAT     H183930   8.868   5.844   7.962
27896WAT     H283931   8.798   5.875   8.106
27897WAT      O83932   6.647   7.250   8.859
27897WAT     H183933   6.665   7.344   8.831
27897WAT     H283934   6.582   7.251   8.935
27898WAT      O83935   4.215   2.677   8.428
27898WAT     H183936   4.126   2.723   8.434
27898WAT     H283937   4.261   2.704   8.343
27899WAT      O83938   3.731   6.279   5.750
27899WAT     H183939   3.740   6.376   5.730
27899WAT     H283940   3.708   6.229   5.666
27900WAT      O83941   8.964   8.196   0.679
27900WAT     H183942   8.916   8.108   0.672
27900WAT     H283943   8.986   8.229   0.587
27901WAT      O83944   5.192   5.074   2.854
27901WAT     H183945   5.112   5.049   2.909
27901WAT     H283946   5.179   5.043   2.760
27902WAT      O83947   1.982   3.602   8.027
27902WAT     H183948   1.926   3.610   7.945
27902WAT     H283949   1.923   3.608   8.108
27903WAT      O83950   2.136   2.322   9.211
27903WAT     H183951   2.204   2.321   9.138
27903WAT     H283952   2.129   2.414   9.250
27904WAT      O83953   6.785   0.269   5.932
27904WAT     H183954   6.779   0.180   5.885
27904WAT     H283955   6.749   0.260   6.025
27905WAT      O83956   3.254   1.214   5.131
27905WAT     H183957   3.321   1.140   5.141
27905WAT     H283958   3.177   1.197   5.192
27906WAT      O83959   1.309   6.071   6.397
27906WAT     H183960   1.263   6.006   6.337
27906WAT     H283961   1.361   6.136   6.343
27907WAT      O83962   5.677   1.511   0.860
27907WAT     H183963   5.714   1.419   0.875
27907WAT     H283964   5.586   1.518   0.901
27908WAT      O83965   8.761   6.607   2.932
27908WAT     H183966   8.790   6.570   3.020
27908WAT     H283967   8.675   6.656   2.943
27909WAT      O83968   0.891   1.960   5.335
27909WAT     H183969   0.928   1.871   5.358
27909WAT     H283970   0.965   2.024   5.316
27910WAT      O83971   8.087   0.058   0.609
27910WAT     H183972   8.176   0.100   0.589
27910WAT     H283973   8.099  -0.013   0.679
27911WAT      O83974   9.058   4.019   4.503
27911WAT     H183975   8.991   3.953   4.538
27911WAT     H283976   9.016   4.110   4.500
27912WAT      O83977   5.013   2.810   8.405
27912WAT     H183978   5.081   2.882   8.392
27912WAT     H283979   4.993   2.767   8.318
27913WAT      O83980   2.704   5.328   5.855
27913WAT     H183981   2.684   5.288   5.765
27913WAT     H283982   2.790   5.379   5.850
27914WAT      O83983   9.633   1.532   4.029
27914WAT     H183984   9.586   1.567   3.947
27914WAT     H283985   9.678   1.446   4.007
27915WAT      O83986   2.494   7.782   7.201
27915WAT     H183987   2.545   7.824   7.126
27915WAT     H283988   2.557   7.739   7.265
27916WAT      O83989   5.602   7.603   9.617
27916WAT     H183990   5.689   7.649   9.603
27916WAT     H283991   5.614   7.524   9.677
27917WAT      O83992   3.251   8.103   6.158
27917WAT     H183993   3.215   8.134   6.070
27917WAT     H283994   3.346   8.075   6.146
27918WAT      O83995   9.568   6.007   1.065
27918WAT     H183996   9.501   5.933   1.065
27918WAT     H283997   9.581   6.041   1.158
27919WAT      O83998   5.208   6.194   5.758
27919WAT     H183999   5.226   6.292   5.761
27919WAT     H284000   5.270   6.147   5.821
27920WAT      O84001   7.703   5.138   3.619
27920WAT     H184002   7.654   5.082   3.686
27920WAT     H284003   7.642   5.210   3.585
27921WAT      O84004   4.744   7.597   7.033
27921WAT     H184005   4.758   7.690   7.068
27921WAT     H284006   4.746   7.599   6.933
27922WAT      O84007   1.211   6.211   8.310
27922WAT     H184008   1.272   6.204   8.232
27922WAT     H284009   1.138   6.143   8.302
27923WAT      O84010   6.606   8.049   2.456
27923WAT     H184011   6.610   8.146   2.432
27923WAT     H284012   6.528   8.007   2.410
27924WAT      O84013   7.883   0.336   8.470
27924WAT     H184014   7.912   0.431   8.469
27924WAT     H284015   7.808   0.323   8.405
27925WAT      O84016   4.970   7.401   8.152
27925WAT     H184017   4.996   7.447   8.067
27925WAT     H284018   4.941   7.307   8.131
27926WAT      O84019   8.693   4.930   4.793
27926WAT     H184020   8.611   4.887   4.831
27926WAT     H284021   8.690   4.924   4.693
27927WAT      O84022   9.732   8.065   1.947
27927WAT     H184023   9.751   7.994   1.879
27927WAT     H284024   9.655   8.121   1.917
27928WAT      O84025   2.827   5.203   3.527
27928WAT     H184026   2.819   5.236   3.621
27928WAT     H284027   2.842   5.281   3.466
27929WAT      O84028   5.637   4.598   3.791
27929WAT     H184029   5.674   4.631   3.878
27929WAT     H284030   5.614   4.676   3.733
27930WAT      O84031   2.591   4.213   8.352
27930WAT     H184032   2.676   4.215   8.405
27930WAT     H284033   2.517   4.175   8.408
27931WAT      O84034   0.631   7.148   6.322
27931WAT     H184035   0.664   7.214   6.389
27931WAT     H284036   0.534   7.129   6.338
27932WAT      O84037   6.640   5.135   8.472
27932WAT     H184038   6.598   5.185   8.547
27932WAT     H284039   6.624   5.184   8.386
27933WAT      O84040   4.210   9.299   5.948
27933WAT     H184041   4.190   9.346   6.034
27933WAT     H284042   4.307   9.275   5.946
27934WAT      O84043   6.109   7.751   0.661
27934WAT     H184044   6.193   7.804   0.650
27934WAT     H284045   6.132   7.654   0.665
27935WAT      O84046   3.901   3.740   9.469
27935WAT     H184047   3.969   3.740   9.396
27935WAT     H284048   3.934   3.686   9.546
27936WAT      O84049   9.748   9.071   9.404
27936WAT     H184050   9.766   8.979   9.439
27936WAT     H284051   9.726   9.132   9.480
27937WAT      O84052   1.469   3.334   4.425
27937WAT     H184053   1.510   3.402   4.366
27937WAT     H284054   1.370   3.333   4.412
27938WAT      O84055   0.325   4.768   3.002
27938WAT     H184056   0.318   4.867   3.011
27938WAT     H284057   0.292   4.740   2.912
27939WAT      O84058   1.476   4.004   5.948
27939WAT     H184059   1.411   3.938   5.985
27939WAT     H284060   1.535   3.959   5.881
27940WAT      O84061   3.241   4.226   6.931
27940WAT     H184062   3.218   4.315   6.892
27940WAT     H284063   3.223   4.154   6.864
27941WAT      O84064   2.803   2.573   2.597
27941WAT     H184065   2.724   2.571   2.659
27941WAT     H284066   2.869   2.504   2.626
27942WAT      O84067   5.255   9.129   8.418
27942WAT     H184068   5.281   9.186   8.340
27942WAT     H284069   5.210   9.186   8.487
27943WAT      O84070   0.656   7.632   8.710
27943WAT     H184071   0.732   7.616   8.773
27943WAT     H284072   0.600   7.708   8.743
27944WAT      O84073   9.607   0.060   5.283
27944WAT     H184074   9.600   0.146   5.333
27944WAT     H284075   9.554  -0.010   5.331
27945WAT      O84076   8.690   4.715   2.564
27945WAT     H184077   8.600   4.726   2.522
27945WAT     H284078   8.688   4.751   2.657
27946WAT      O84079   8.857   5.383   2.393
27946WAT     H184080   8.957   5.373   2.393
27946WAT     H284081   8.823   5.383   2.487
27947WAT      O84082   1.043   0.832   1.328
27947WAT     H184083   1.096   0.914   1.307
27947WAT     H284084   1.001   0.842   1.418
27948WAT      O84085   9.556   0.869   1.988
27948WAT     H184086   9.493   0.801   2.029
27948WAT     H284087   9.650   0.843   2.009
27949WAT      O84088   2.400   1.023   5.376
27949WAT     H184089   2.339   1.051   5.301
27949WAT     H284090   2.494   1.050   5.354
27950WAT      O84091   5.462   5.026   2.443
27950WAT     H184092   5.472   4.951   2.378
27950WAT     H284093   5.503   5.000   2.531
27951WAT      O84094   9.733   9.269   1.203
27951WAT     H184095   9.700   9.356   1.240
27951WAT     H284096   9.669   9.236   1.134
27952WAT      O84097   8.696   6.800   9.631
27952WAT     H184098   8.734   6.746   9.555
27952WAT     H284099   8.625   6.861   9.596
27953WAT      O84100   0.955   0.844   3.236
27953WAT     H184101   0.910   0.813   3.152
27953WAT     H284102   1.041   0.793   3.248
27954WAT      O84103   2.191   2.792   8.574
27954WAT     H184104   2.217   2.809   8.479
27954WAT     H284105   2.096   2.819   8.588
27955WAT      O84106   7.418   5.505   6.212
27955WAT     H184107   7.394   5.498   6.308
27955WAT     H284108   7.456   5.419   6.180
27956WAT      O84109   0.263   2.022   3.458
27956WAT     H184110   0.203   2.058   3.530
27956WAT     H284111   0.217   1.947   3.411
27957WAT      O84112   0.140   6.293   8.860
27957WAT     H184113   0.169   6.370   8.918
27957WAT     H284114   0.062   6.247   8.903
27958WAT      O84115   5.965   7.862   2.143
27958WAT     H184116   5.915   7.803   2.079
27958WAT     H284117   6.053   7.888   2.103
27959WAT      O84118   8.799   9.481   2.757
27959WAT     H184119   8.706   9.508   2.734
27959WAT     H284120   8.832   9.537   2.833
27960WAT      O84121   1.012   1.737   6.580
27960WAT     H184122   1.002   1.836   6.569
27960WAT     H284123   1.076   1.719   6.656
27961WAT      O84124   4.169   6.108   6.611
27961WAT     H184125   4.232   6.057   6.551
27961WAT     H284126   4.152   6.198   6.572
27962WAT      O84127   4.266   5.695   2.615
27962WAT     H184128   4.285   5.793   2.619
27962WAT     H284129   4.353   5.645   2.608
27963WAT      O84130   3.467   7.239   4.596
27963WAT     H184131   3.369   7.234   4.617
27963WAT     H284132   3.520   7.222   4.679
27964WAT      O84133   5.817   7.254   6.021
27964WAT     H184134   5.745   7.226   5.958
27964WAT     H284135   5.900   7.274   5.970
27965WAT      O84136   2.198   2.600   8.883
27965WAT     H184137   2.252   2.684   8.870
27965WAT     H284138   2.231   2.530   8.820
27966WAT      O84139   0.619   5.578   8.963
27966WAT     H184140   0.526   5.614   8.952
27966WAT     H284141   0.616   5.479   8.973
27967WAT      O84142   8.098   4.904   2.114
27967WAT     H184143   8.161   4.981   2.103
27967WAT     H284144   8.063   4.902   2.208
27968WAT      O84145   2.223   7.606   6.486
27968WAT     H184146   2.218   7.568   6.394
27968WAT     H284147   2.198   7.536   6.553
27969WAT      O84148   9.014   3.963   6.426
27969WAT     H184149   8.915   3.951   6.414
27969WAT     H284150   9.054   3.877   6.458
27970WAT      O84151   4.983   0.276   7.994
27970WAT     H184152   4.921   0.223   7.936
27970WAT     H284153   5.077   0.261   7.964
27971WAT      O84154   5.541   7.939   7.942
27971WAT     H184155   5.592   8.011   7.895
27971WAT     H284156   5.533   7.859   7.883
27972WAT      O84157   6.258   2.787   5.827
27972WAT     H184158   6.349   2.747   5.835
27972WAT     H284159   6.213   2.752   5.744
27973WAT      O84160   3.976   3.951   1.525
27973WAT     H184161   4.015   3.905   1.445
27973WAT     H284162   4.023   4.038   1.539
27974WAT      O84163   3.077   7.405   9.595
27974WAT     H184164   3.132   7.420   9.677
27974WAT     H284165   3.105   7.468   9.523
27975WAT      O84166   1.779   6.096   5.167
27975WAT     H184167   1.731   6.090   5.255
27975WAT     H284168   1.714   6.088   5.092
27976WAT      O84169   6.093   6.174   7.658
27976WAT     H184170   6.165   6.176   7.589
27976WAT     H284171   6.049   6.084   7.658
27977WAT      O84172   4.501   8.883   7.113
27977WAT     H184173   4.580   8.822   7.110
27977WAT     H284174   4.439   8.852   7.185
27978WAT      O84175   3.099   7.672   2.065
27978WAT     H184176   3.082   7.595   2.003
27978WAT     H284177   3.194   7.671   2.095
27979WAT      O84178   2.879   0.347   9.871
27979WAT     H184179   2.928   0.386   9.949
27979WAT     H284180   2.839   0.421   9.816
27980WAT      O84181   9.881   8.694   2.489
27980WAT     H184182   9.873   8.792   2.470
27980WAT     H284183   9.903   8.646   2.404
27981WAT      O84184   4.367   8.167   0.222
27981WAT     H184185   4.385   8.069   0.227
27981WAT     H284186   4.319   8.188   0.137
27982WAT      O84187   1.056   6.665   7.232
27982WAT     H184188   0.995   6.742   7.252
27982WAT     H284189   1.058   6.603   7.310
27983WAT      O84190   0.931   4.574   4.463
27983WAT     H184191   0.870   4.496   4.477
27983WAT     H284192   0.883   4.659   4.484
27984WAT      O84193   5.127   0.412   3.813
27984WAT     H184194   5.086   0.375   3.897
27984WAT     H284195   5.168   0.338   3.760
27985WAT      O84196   8.081   5.572   2.986
27985WAT     H184197   8.009   5.530   3.041
27985WAT     H284198   8.160   5.511   2.981
27986WAT      O84199   7.249   6.868   7.550
27986WAT     H184200   7.257   6.810   7.630
27986WAT     H284201   7.172   6.838   7.494
27987WAT      O84202   6.701   1.629   7.030
27987WAT     H184203   6.622   1.569   7.018
27987WAT     H284204   6.782   1.585   6.991
27988WAT      O84205   0.003   4.728   9.400
27988WAT     H184206   0.042   4.638   9.378
27988WAT     H284207   0.054   4.799   9.353
27989WAT      O84208   3.138   9.365   0.027
27989WAT     H184209   3.219   9.346  -0.029
27989WAT     H284210   3.150   9.322   0.117
27990WAT      O84211   1.373   3.655   7.187
27990WAT     H184212   1.378   3.695   7.278
27990WAT     H284213   1.358   3.728   7.119
27991WAT      O84214   0.839   8.331   0.977
27991WAT     H184215   0.788   8.347   0.892
27991WAT     H284216   0.812   8.243   1.016
27992WAT      O84217   8.449   0.275   5.759
27992WAT     H184218   8.366   0.226   5.787
27992WAT     H284219   8.524   0.210   5.748
27993WAT      O84220   3.818   3.115   4.647
27993WAT     H184221   3.755   3.127   4.570
27993WAT     H284222   3.867   3.200   4.664
27994WAT      O84223   6.851   1.256   3.602
27994WAT     H184224   6.850   1.237   3.701
27994WAT     H284225   6.940   1.232   3.564
27995WAT      O84226   5.270   4.820   3.652
27995WAT     H184227   5.276   4.848   3.556
27995WAT     H284228   5.205   4.879   3.700
27996WAT      O84229   3.447   4.265   8.423
27996WAT     H184230   3.530   4.211   8.409
27996WAT     H284231   3.397   4.231   8.502
27997WAT      O84232   1.447   0.957   9.275
27997WAT     H184233   1.447   0.860   9.251
27997WAT     H284234   1.542   0.988   9.285
27998WAT      O84235   9.045   4.925   4.498
27998WAT     H184236   9.118   4.871   4.457
27998WAT     H284237   9.062   4.934   4.597
27999WAT      O84238   6.585   7.079   1.801
27999WAT     H184239   6.668   7.078   1.857
27999WAT     H284240   6.513   7.128   1.849
28000WAT      O84241   7.908   0.517   0.671
28000WAT     H184242   7.929   0.420   0.682
28000WAT     H284243   7.919   0.542   0.575
28001WAT      O84244   0.825   0.148   9.844
28001WAT     H184245   0.882   0.224   9.876
28001WAT     H284246   0.872   0.062   9.862
28002WAT      O84247   3.996   0.256   8.171
28002WAT     H184248   4.030   0.318   8.100
28002WAT     H284249   4.073   0.213   8.218
28003WAT      O84250   5.965   4.625   8.066
28003WAT     H184251   5.898   4.695   8.090
28003WAT     H284252   6.049   4.669   8.035
28004WAT      O84253   6.022   4.425   6.518
28004WAT     H184254   5.985   4.356   6.454
28004WAT     H284255   6.003   4.397   6.612
28005WAT      O84256   6.837   9.330   9.404
28005WAT     H184257   6.922   9.358   9.359
28005WAT     H284258   6.854   9.250   9.461
28006WAT      O84259   4.772   6.322   2.402
28006WAT     H184260   4.714   6.306   2.322
28006WAT     H284261   4.717   6.364   2.474
28007WAT      O84262   6.522   7.583   3.180
28007WAT     H184263   6.509   7.495   3.225
28007WAT     H284264   6.597   7.576   3.115
28008WAT      O84265   6.602   6.488   2.564
28008WAT     H184266   6.607   6.578   2.520
28008WAT     H284267   6.521   6.439   2.533
28009WAT      O84268   8.423   7.338   8.023
28009WAT     H184269   8.481   7.416   8.043
28009WAT     H284270   8.468   7.254   8.055
28010WAT      O84271   8.074   0.303   7.862
28010WAT     H184272   8.153   0.301   7.923
28010WAT     H284273   8.031   0.213   7.861
28011WAT      O84274   8.657   5.596   4.180
28011WAT     H184275   8.586   5.644   4.130
28011WAT     H284276   8.622   5.569   4.270
28012WAT      O84277   3.409   4.380   2.692
28012WAT     H184278   3.437   4.377   2.596
28012WAT     H284279   3.351   4.460   2.708
28013WAT      O84280   7.034   3.906   7.876
28013WAT     H184281   6.964   3.957   7.926
28013WAT     H284282   6.996   3.872   7.790
28014WAT      O84283   5.049   1.754   4.045
28014WAT     H184284   5.052   1.679   3.979
28014WAT     H284285   5.142   1.778   4.072
28015WAT      O84286   4.251   5.880   6.889
28015WAT     H184287   4.190   5.804   6.910
28015WAT     H284288   4.339   5.866   6.934
28016WAT      O84289   5.610   5.469   8.516
28016WAT     H184290   5.510   5.473   8.523
28016WAT     H284291   5.648   5.432   8.601
28017WAT      O84292   3.696   1.581   9.696
28017WAT     H184293   3.755   1.541   9.625
28017WAT     H284294   3.738   1.665   9.731
28018WAT      O84295   8.276   5.456   3.371
28018WAT     H184296   8.308   5.476   3.278
28018WAT     H284297   8.177   5.461   3.375
28019WAT      O84298   3.813   6.801   7.353
28019WAT     H184299   3.722   6.777   7.318
28019WAT     H284300   3.883   6.766   7.291
28020WAT      O84301   2.050   7.975   8.226
28020WAT     H184302   2.028   7.978   8.324
28020WAT     H284303   1.975   7.932   8.176
28021WAT      O84304   5.181   1.547   9.462
28021WAT     H184305   5.178   1.448   9.449
28021WAT     H284306   5.159   1.569   9.557
28022WAT      O84307   0.114   3.197   8.248
28022WAT     H184308   0.029   3.174   8.295
28022WAT     H284309   0.093   3.227   8.155
28023WAT      O84310   1.580   8.732   4.941
28023WAT     H184311   1.584   8.634   4.921
28023WAT     H284312   1.541   8.746   5.032
28024WAT      O84313   0.627   6.366   0.509
28024WAT     H184314   0.704   6.417   0.545
28024WAT     H284315   0.612   6.390   0.413
28025WAT      O84316   9.726   0.487   2.108
28025WAT     H184317   9.780   0.562   2.071
28025WAT     H284318   9.635   0.488   2.067
28026WAT      O84319   3.205   1.258   2.067
28026WAT     H184320   3.264   1.338   2.066
28026WAT     H284321   3.171   1.242   2.159
28027WAT      O84322   5.945   6.480   0.414
28027WAT     H184323   5.866   6.424   0.441
28027WAT     H284324   5.919   6.539   0.338
28028WAT      O84325   1.495   4.239   6.537
28028WAT     H184326   1.417   4.284   6.581
28028WAT     H284327   1.522   4.291   6.456
28029WAT      O84328   0.989   7.640   8.730
28029WAT     H184329   1.047   7.569   8.690
28029WAT     H284330   1.038   7.727   8.727
28030WAT      O84331   2.501   2.330   1.775
28030WAT     H184332   2.599   2.316   1.791
28030WAT     H284333   2.472   2.415   1.819
28031WAT      O84334   5.408   8.026   6.574
28031WAT     H184335   5.399   8.011   6.476
28031WAT     H284336   5.430   7.939   6.619
28032WAT      O84337   5.369   6.402   3.540
28032WAT     H184338   5.464   6.397   3.570
28032WAT     H284339   5.340   6.312   3.506
28033WAT      O84340   3.523   7.233   0.824
28033WAT     H184341   3.527   7.237   0.725
28033WAT     H284342   3.485   7.318   0.860
28034WAT      O84343   2.929   9.424   1.258
28034WAT     H184344   2.922   9.523   1.248
28034WAT     H284345   2.850   9.381   1.214
28035WAT      O84346   5.529   1.003   8.808
28035WAT     H184347   5.452   0.943   8.830
28035WAT     H284348   5.511   1.095   8.843
28036WAT      O84349   6.428   2.035   6.193
28036WAT     H184350   6.334   2.001   6.199
28036WAT     H284351   6.428   2.126   6.150
28037WAT      O84352   6.531   6.318   4.031
28037WAT     H184353   6.530   6.380   4.109
28037WAT     H284354   6.572   6.230   4.058
28038WAT      O84355   9.120   3.632   9.867
28038WAT     H184356   9.176   3.599   9.943
28038WAT     H284357   9.030   3.589   9.871
28039WAT      O84358   5.468   5.170   8.660
28039WAT     H184359   5.396   5.101   8.664
28039WAT     H284360   5.550   5.135   8.706
28040WAT      O84361   7.964   3.258   3.032
28040WAT     H184362   7.892   3.299   3.088
28040WAT     H284363   7.980   3.164   3.062
28041WAT      O84364   0.011   0.998   6.871
28041WAT     H184365   0.097   1.002   6.922
28041WAT     H284366  -0.008   1.086   6.829
28042WAT      O84367   4.045   7.179   6.513
28042WAT     H184368   4.051   7.186   6.414
28042WAT     H284369   4.125   7.132   6.549
28043WAT      O84370   9.476  -0.000   6.851
28043WAT     H184371   9.386  -0.038   6.829
28043WAT     H284372   9.492   0.082   6.796
28044WAT      O84373   5.558   2.572   1.223
28044WAT     H184374   5.544   2.480   1.186
28044WAT     H284375   5.627   2.570   1.295
28045WAT      O84376   2.533   5.886   3.765
28045WAT     H184377   2.570   5.927   3.849
28045WAT     H284378   2.440   5.855   3.782
28046WAT      O84379   9.497   1.733   9.000
28046WAT     H184380   9.588   1.769   9.023
28046WAT     H284381   9.427   1.790   9.044
28047WAT      O84382   3.830   0.045   0.943
28047WAT     H184383   3.922   0.085   0.948
28047WAT     H284384   3.825  -0.035   1.003
28048WAT      O84385   4.326   7.958   8.037
28048WAT     H184386   4.343   7.939   7.941
28048WAT     H284387   4.408   7.997   8.078
28049WAT      O84388   0.623   0.372   0.570
28049WAT     H184389   0.681   0.304   0.615
28049WAT     H284390   0.575   0.426   0.640
28050WAT      O84391   8.762   5.120   7.114
28050WAT     H184392   8.721   5.048   7.059
28050WAT     H284393   8.858   5.098   7.134
28051WAT      O84394   2.225   4.056   4.224
28051WAT     H184395   2.275   3.997   4.161
28051WAT     H284396   2.236   4.152   4.196
28052WAT      O84397   1.733   0.317   7.208
28052WAT     H184398   1.684   0.294   7.292
28052WAT     H284399   1.827   0.343   7.230
28053WAT      O84400   6.612   8.170   0.765
28053WAT     H184401   6.694   8.180   0.709
28053WAT     H284402   6.587   8.073   0.770
28054WAT      O84403   5.957   7.819   2.824
28054WAT     H184404   5.930   7.734   2.869
28054WAT     H284405   5.972   7.890   2.892
28055WAT      O84406   6.567   7.816   3.306
28055WAT     H184407   6.618   7.799   3.390
28055WAT     H284408   6.555   7.731   3.255
28056WAT      O84409   5.488   2.670   3.835
28056WAT     H184410   5.476   2.769   3.839
28056WAT     H284411   5.480   2.632   3.927
28057WAT      O84412   9.176   5.330   8.573
28057WAT     H184413   9.193   5.324   8.475
28057WAT     H284414   9.079   5.350   8.588
28058WAT      O84415   9.351   7.605   0.586
28058WAT     H184416   9.449   7.595   0.567
28058WAT     H284417   9.302   7.525   0.553
28059WAT      O84418   0.654   1.669   3.561
28059WAT     H184419   0.716   1.706   3.630
28059WAT     H284420   0.573   1.727   3.554
28060WAT      O84421   5.021   3.755   6.203
28060WAT     H184422   5.015   3.823   6.275
28060WAT     H284423   4.933   3.747   6.156
28061WAT      O84424   7.834   0.948   7.122
28061WAT     H184425   7.895   0.997   7.059
28061WAT     H284426   7.857   0.972   7.216
28062WAT      O84427   9.013   8.630   3.156
28062WAT     H184428   8.984   8.588   3.069
28062WAT     H284429   8.980   8.575   3.232
28063WAT      O84430   3.229   1.629   0.770
28063WAT     H184431   3.142   1.580   0.757
28063WAT     H284432   3.210   1.726   0.782
28064WAT      O84433   7.653   5.768   0.736
28064WAT     H184434   7.598   5.719   0.668
28064WAT     H284435   7.724   5.707   0.772
28065WAT      O84436   9.714   8.038   4.500
28065WAT     H184437   9.794   8.098   4.500
28065WAT     H284438   9.743   7.942   4.506
28066WAT      O84439   7.767   3.697   6.322
28066WAT     H184440   7.675   3.657   6.321
28066WAT     H284441   7.804   3.694   6.415
28067WAT      O84442   1.328   1.504   9.377
28067WAT     H184443   1.426   1.492   9.390
28067WAT     H284444   1.310   1.595   9.340
28068WAT      O84445   1.228   4.079   9.150
28068WAT     H184446   1.298   4.065   9.221
28068WAT     H284447   1.161   4.147   9.182
28069WAT      O84448   8.725   8.840   9.269
28069WAT     H184449   8.692   8.916   9.326
28069WAT     H284450   8.725   8.756   9.322
28070WAT      O84451   3.246   7.226   5.008
28070WAT     H184452   3.171   7.169   4.975
28070WAT     H284453   3.209   7.295   5.071
28071WAT      O84454   2.496   0.412   0.988
28071WAT     H184455   2.448   0.350   1.050
28071WAT     H284456   2.592   0.385   0.981
28072WAT      O84457   5.676   2.769   0.179
28072WAT     H184458   5.607   2.774   0.251
28072WAT     H284459   5.711   2.675   0.172
28073WAT      O84460   3.294   1.912   2.057
28073WAT     H184461   3.286   1.814   2.035
28073WAT     H284462   3.382   1.946   2.025
28074WAT      O84463   2.428   3.690   0.460
28074WAT     H184464   2.485   3.737   0.392
28074WAT     H284465   2.345   3.657   0.416
28075WAT      O84466   1.360   6.615   8.948
28075WAT     H184467   1.337   6.640   9.042
28075WAT     H284468   1.358   6.696   8.890
28076WAT      O84469   8.370   9.628   6.979
28076WAT     H184470   8.358   9.726   6.961
28076WAT     H284471   8.468   9.605   6.974
28077WAT      O84472   7.179   0.273   0.878
28077WAT     H184473   7.102   0.212   0.860
28077WAT     H284474   7.147   0.368   0.880
28078WAT      O84475   4.305   3.510   2.558
28078WAT     H184476   4.337   3.423   2.522
28078WAT     H284477   4.220   3.536   2.513
28079WAT      O84478   2.548   4.655   5.116
28079WAT     H184479   2.515   4.726   5.054
28079WAT     H284480   2.611   4.595   5.068
28080WAT      O84481   4.599   1.848   4.004
28080WAT     H184482   4.577   1.849   3.907
28080WAT     H284483   4.577   1.937   4.044
28081WAT      O84484   0.220   6.520   6.066
28081WAT     H184485   0.226   6.458   5.988
28081WAT     H284486   0.124   6.531   6.092
28082WAT      O84487   7.087   4.767   7.110
28082WAT     H184488   7.067   4.739   7.016
28082WAT     H284489   7.001   4.785   7.159
28083WAT      O84490   8.466   7.715   6.665
28083WAT     H184491   8.391   7.729   6.601
28083WAT     H284492   8.549   7.690   6.614
28084WAT      O84493   2.576   1.201   8.387
28084WAT     H184494   2.630   1.129   8.345
28084WAT     H284495   2.637   1.273   8.421
28085WAT      O84496   1.718   0.239   4.770
28085WAT     H184497   1.798   0.227   4.711
28085WAT     H284498   1.731   0.187   4.854
28086WAT      O84499   0.659   5.169  -0.002
28086WAT     H184500   0.609   5.253   0.016
28086WAT     H284501   0.613   5.092   0.043
28087WAT      O84502   9.603   8.630   1.833
28087WAT     H184503   9.510   8.646   1.801
28087WAT     H284504   9.659   8.711   1.815
28088WAT      O84505   8.854   6.517   0.650
28088WAT     H184506   8.788   6.559   0.588
28088WAT     H284507   8.907   6.589   0.696
28089WAT      O84508   6.957   4.723   7.723
28089WAT     H184509   7.025   4.777   7.771
28089WAT     H284510   6.894   4.783   7.675
28090WAT      O84511   5.130   1.423   1.671
28090WAT     H184512   5.158   1.401   1.765
28090WAT     H284513   5.049   1.369   1.648
28091WAT      O84514   6.306   0.749   1.647
28091WAT     H184515   6.292   0.833   1.593
28091WAT     H284516   6.220   0.723   1.691
28092WAT      O84517   6.851   1.334   7.642
28092WAT     H184518   6.847   1.360   7.546
28092WAT     H284519   6.886   1.410   7.696
28093WAT      O84520   8.452   0.536   7.454
28093WAT     H184521   8.354   0.516   7.460
28093WAT     H284522   8.472   0.581   7.367
28094WAT      O84523   0.282   7.525   9.729
28094WAT     H184524   0.332   7.610   9.742
28094WAT     H284525   0.334   7.463   9.670
28095WAT      O84526   6.782   6.266   2.604
28095WAT     H184527   6.700   6.303   2.648
28095WAT     H284528   6.796   6.313   2.516
28096WAT      O84529   3.917   8.657   9.773
28096WAT     H184530   3.963   8.722   9.834
28096WAT     H284531   3.818   8.664   9.785
28097WAT      O84532   7.223   0.358   8.005
28097WAT     H184533   7.237   0.259   8.000
28097WAT     H284534   7.149   0.384   7.944
28098WAT      O84535   1.584   3.602   5.061
28098WAT     H184536   1.598   3.512   5.019
28098WAT     H284537   1.632   3.605   5.148
28099WAT      O84538   7.541   3.885   6.082
28099WAT     H184539   7.478   3.860   6.156
28099WAT     H284540   7.635   3.866   6.110
28100WAT      O84541   4.132   5.927   4.013
28100WAT     H184542   4.097   5.855   3.952
28100WAT     H284543   4.231   5.915   4.024
28101WAT      O84544   3.078   1.939   4.165
28101WAT     H184545   3.054   2.023   4.115
28101WAT     H284546   3.141   1.960   4.239
28102WAT      O84547   1.094   0.073   6.145
28102WAT     H184548   1.103   0.133   6.065
28102WAT     H284549   1.111   0.125   6.228
28103WAT      O84550   6.852   7.865   4.166
28103WAT     H184551   6.788   7.906   4.230
28103WAT     H284552   6.811   7.784   4.124
28104WAT      O84553   9.791   9.069   8.738
28104WAT     H184554   9.722   9.120   8.789
28104WAT     H284555   9.822   8.991   8.793
28105WAT      O84556   3.959   5.420   3.553
28105WAT     H184557   3.910   5.401   3.468
28105WAT     H284558   3.917   5.369   3.628
28106WAT      O84559   6.685   7.080   7.725
28106WAT     H184560   6.625   7.092   7.646
28106WAT     H284561   6.644   7.125   7.805
28107WAT      O84562   6.255   6.687   5.721
28107WAT     H184563   6.237   6.783   5.700
28107WAT     H284564   6.331   6.681   5.787
28108WAT      O84565   3.523   6.687   2.173
28108WAT     H184566   3.523   6.638   2.260
28108WAT     H284567   3.463   6.767   2.181
28109WAT      O84568   6.105   2.308   4.004
28109WAT     H184569   6.011   2.342   3.994
28109WAT     H284570   6.161   2.378   4.048
28110WAT      O84571   3.324   2.608   7.616
28110WAT     H184572   3.292   2.539   7.551
28110WAT     H284573   3.310   2.699   7.579
28111WAT      O84574   5.772   1.268   0.884
28111WAT     H184575   5.867   1.249   0.862
28111WAT     H284576   5.729   1.186   0.921
28112WAT      O84577   5.079   4.165   1.664
28112WAT     H184578   5.174   4.175   1.692
28112WAT     H284579   5.058   4.231   1.592
28113WAT      O84580   4.850   2.256   1.171
28113WAT     H184581   4.850   2.273   1.270
28113WAT     H284582   4.836   2.343   1.123
28114WAT      O84583   1.870   2.506   6.050
28114WAT     H184584   1.852   2.569   6.125
28114WAT     H284585   1.929   2.550   5.983
28115WAT      O84586   2.669   4.716   2.490
28115WAT     H184587   2.740   4.739   2.557
28115WAT     H284588   2.703   4.646   2.428
28116WAT      O84589   3.065   8.018   9.744
28116WAT     H184590   3.076   8.051   9.650
28116WAT     H284591   3.146   8.045   9.798
28117WAT      O84592   3.136   8.819   6.033
28117WAT     H184593   3.161   8.880   5.958
28117WAT     H284594   3.169   8.727   6.014
28118WAT      O84595   9.295   0.134   7.276
28118WAT     H184596   9.267   0.073   7.350
28118WAT     H284597   9.377   0.096   7.231
28119WAT      O84598   6.980   6.630   0.423
28119WAT     H184599   6.918   6.595   0.354
28119WAT     H284600   6.973   6.729   0.428
28120WAT      O84601   5.675   6.180   5.912
28120WAT     H184602   5.620   6.154   5.833
28120WAT     H284603   5.679   6.104   5.977
28121WAT      O84604   2.378   3.906   8.674
28121WAT     H184605   2.416   3.852   8.750
28121WAT     H284606   2.280   3.919   8.689
28122WAT      O84607   4.848   6.238   6.493
28122WAT     H184608   4.877   6.160   6.549
28122WAT     H284609   4.813   6.205   6.406
28123WAT      O84610   5.330   8.794   0.200
28123WAT     H184611   5.404   8.743   0.155
28123WAT     H284612   5.369   8.850   0.273
28124WAT      O84613   2.083   8.142   4.211
28124WAT     H184614   2.148   8.178   4.144
28124WAT     H284615   2.024   8.074   4.166
28125WAT      O84616   2.168   1.973   0.139
28125WAT     H184617   2.166   2.068   0.173
28125WAT     H284618   2.222   1.969   0.056
28126WAT      O84619   8.421   1.435   9.008
28126WAT     H184620   8.518   1.439   8.984
28126WAT     H284621   8.386   1.344   8.987
28127WAT      O84622   7.064   0.862   4.144
28127WAT     H184623   7.021   0.771   4.148
28127WAT     H284624   7.133   0.868   4.216
28128WAT      O84625   2.331   8.912   4.483
28128WAT     H184626   2.277   8.985   4.525
28128WAT     H284627   2.388   8.949   4.410
28129WAT      O84628   1.755   5.653   9.197
28129WAT     H184629   1.844   5.676   9.238
28129WAT     H284630   1.754   5.682   9.102
28130WAT      O84631   2.573   5.145   4.554
28130WAT     H184632   2.537   5.074   4.493
28130WAT     H284633   2.672   5.151   4.543
28131WAT      O84634   4.386   5.484   7.146
28131WAT     H184635   4.361   5.432   7.228
28131WAT     H284636   4.482   5.510   7.152
28132WAT      O84637   8.921   8.171   8.206
28132WAT     H184638   9.017   8.162   8.231
28132WAT     H284639   8.874   8.230   8.271
28133WAT      O84640   5.000   5.923   4.076
28133WAT     H184641   5.012   6.011   4.121
28133WAT     H284642   4.944   5.935   3.993
28134WAT      O84643   1.706   9.126   6.357
28134WAT     H184644   1.696   9.087   6.448
28134WAT     H284645   1.626   9.104   6.302
28135WAT      O84646   0.317   2.046   0.846
28135WAT     H184647   0.274   2.135   0.833
28135WAT     H284648   0.370   2.021   0.765
28136WAT      O84649   4.657   0.750   8.149
28136WAT     H184650   4.581   0.698   8.188
28136WAT     H284651   4.739   0.694   8.147
28137WAT      O84652   6.983   1.671   1.267
28137WAT     H184653   6.935   1.584   1.256
28137WAT     H284654   6.960   1.711   1.356
28138WAT      O84655   0.145   7.415   3.939
28138WAT     H184656   0.177   7.459   4.023
28138WAT     H284657   0.213   7.351   3.906
28139WAT      O84658   0.373   6.070   2.401
28139WAT     H184659   0.414   6.053   2.490
28139WAT     H284660   0.329   6.160   2.401
28140WAT      O84661   2.009   3.298   6.619
28140WAT     H184662   1.915   3.303   6.652
28140WAT     H284663   2.070   3.277   6.695
28141WAT      O84664   4.834   0.966   6.869
28141WAT     H184665   4.922   0.919   6.878
28141WAT     H284666   4.834   1.047   6.929
28142WAT      O84667   1.539   9.210   4.439
28142WAT     H184668   1.565   9.294   4.390
28142WAT     H284669   1.612   9.186   4.504
28143WAT      O84670   1.265   6.751   1.557
28143WAT     H184671   1.319   6.831   1.585
28143WAT     H284672   1.325   6.684   1.513
28144WAT      O84673   8.411   3.591   6.413
28144WAT     H184674   8.396   3.598   6.511
28144WAT     H284675   8.364   3.510   6.378
28145WAT      O84676   0.480   7.888   2.511
28145WAT     H184677   0.449   7.825   2.583
28145WAT     H284678   0.543   7.841   2.450
28146WAT      O84679   6.620   4.055   1.120
28146WAT     H184680   6.671   4.012   1.195
28146WAT     H284681   6.654   4.020   1.033
28147WAT      O84682   4.812   6.222   0.986
28147WAT     H184683   4.792   6.158   1.060
28147WAT     H284684   4.886   6.283   1.015
28148WAT      O84685   4.375   0.988   5.925
28148WAT     H184686   4.443   0.992   5.852
28148WAT     H284687   4.398   0.914   5.988
28149WAT      O84688   9.627   5.615   0.979
28149WAT     H184689   9.574   5.531   0.972
28149WAT     H284690   9.702   5.602   1.044
28150WAT      O84691   1.004   6.274   7.133
28150WAT     H184692   0.989   6.259   7.036
28150WAT     H284693   0.919   6.256   7.183
28151WAT      O84694   0.549   1.581   1.713
28151WAT     H184695   0.467   1.560   1.766
28151WAT     H284696   0.614   1.506   1.721
28152WAT      O84697   4.277   1.798   4.784
28152WAT     H184698   4.178   1.803   4.776
28152WAT     H284699   4.304   1.819   4.878
28153WAT      O84700   0.880   4.350   3.867
28153WAT     H184701   0.873   4.420   3.938
28153WAT     H284702   0.860   4.391   3.778
28154WAT      O84703   6.293   1.515   1.502
28154WAT     H184704   6.379   1.566   1.499
28154WAT     H284705   6.218   1.575   1.475
28155WAT      O84706   5.518   6.648   7.587
28155WAT     H184707   5.441   6.630   7.649
28155WAT     H284708   5.595   6.685   7.639
28156WAT      O84709   6.469   8.849   3.342
28156WAT     H184710   6.398   8.874   3.277
28156WAT     H284711   6.472   8.750   3.352
28157WAT      O84712   7.285   1.858   1.001
28157WAT     H184713   7.269   1.764   1.031
28157WAT     H284714   7.379   1.867   0.967
28158WAT      O84715   7.855   7.243   3.123
28158WAT     H184716   7.888   7.327   3.081
28158WAT     H284717   7.759   7.229   3.100
28159WAT      O84718   2.005   2.351   4.823
28159WAT     H184719   2.063   2.390   4.894
28159WAT     H284720   1.978   2.424   4.759
28160WAT      O84721   0.269   8.306   0.973
28160WAT     H184722   0.252   8.334   0.879
28160WAT     H284723   0.228   8.216   0.989
28161WAT      O84724   4.165   0.288   3.381
28161WAT     H184725   4.189   0.224   3.308
28161WAT     H284726   4.226   0.275   3.459
28162WAT      O84727   0.521   6.533   3.377
28162WAT     H184728   0.482   6.540   3.469
28162WAT     H284729   0.476   6.458   3.328
28163WAT      O84730   2.866   1.585   5.752
28163WAT     H184731   2.803   1.662   5.745
28163WAT     H284732   2.829   1.507   5.702
28164WAT      O84733   5.070   6.834   4.490
28164WAT     H184734   5.149   6.844   4.551
28164WAT     H284735   5.067   6.740   4.455
28165WAT      O84736   9.393   4.887   4.931
28165WAT     H184737   9.363   4.944   5.007
28165WAT     H284738   9.435   4.944   4.861
28166WAT      O84739   9.500   3.806   8.756
28166WAT     H184740   9.578   3.753   8.791
28166WAT     H284741   9.431   3.814   8.828
28167WAT      O84742   6.655   7.844   0.749
28167WAT     H184743   6.665   7.795   0.835
28167WAT     H284744   6.741   7.889   0.726
28168WAT      O84745   2.574   7.519   6.981
28168WAT     H184746   2.643   7.575   7.028
28168WAT     H284747   2.520   7.469   7.049
28169WAT      O84748   0.270   9.763   3.469
28169WAT     H184749   0.266   9.708   3.553
28169WAT     H284750   0.177   9.781   3.437
28170WAT      O84751   1.006   7.899   6.764
28170WAT     H184752   1.065   7.919   6.842
28170WAT     H284753   1.030   7.959   6.688
28171WAT      O84754   2.733   0.087   4.466
28171WAT     H184755   2.711   0.172   4.417
28171WAT     H284756   2.703   0.096   4.561
28172WAT      O84757   9.725   6.346   9.636
28172WAT     H184758   9.759   6.286   9.565
28172WAT     H284759   9.634   6.317   9.664
28173WAT      O84760   0.813   3.975   5.429
28173WAT     H184761   0.864   3.891   5.448
28173WAT     H284762   0.716   3.953   5.419
28174WAT      O84763   4.660   4.094   6.413
28174WAT     H184764   4.751   4.099   6.454
28174WAT     H284765   4.668   4.104   6.313
28175WAT      O84766   4.040   9.281   0.712
28175WAT     H184767   3.978   9.240   0.646
28175WAT     H284768   4.080   9.364   0.673
28176WAT      O84769   2.994   1.877   4.702
28176WAT     H184770   2.920   1.851   4.764
28176WAT     H284771   3.020   1.972   4.719
28177WAT      O84772   4.585   2.335   6.860
28177WAT     H184773   4.681   2.355   6.842
28177WAT     H284774   4.535   2.330   6.774
28178WAT      O84775   3.187   5.318   4.172
28178WAT     H184776   3.284   5.305   4.150
28178WAT     H284777   3.176   5.404   4.222
28179WAT      O84778   5.770   6.048   1.383
28179WAT     H184779   5.683   6.039   1.334
28179WAT     H284780   5.806   5.957   1.404
28180WAT      O84781   6.214   5.679   0.116
28180WAT     H184782   6.254   5.658   0.027
28180WAT     H284783   6.267   5.751   0.161
28181WAT      O84784   7.558   4.138   8.401
28181WAT     H184785   7.521   4.046   8.392
28181WAT     H284786   7.649   4.142   8.359
28182WAT      O84787   5.473   2.918   4.905
28182WAT     H184788   5.470   2.823   4.874
28182WAT     H284789   5.554   2.932   4.963
28183WAT      O84790   2.447   4.750   9.546
28183WAT     H184791   2.505   4.692   9.489
28183WAT     H284792   2.474   4.741   9.642
28184WAT      O84793   0.291   4.119   0.839
28184WAT     H184794   0.202   4.157   0.814
28184WAT     H284795   0.336   4.179   0.905
28185WAT      O84796   7.061   1.662   5.910
28185WAT     H184797   6.965   1.672   5.886
28185WAT     H284798   7.075   1.691   6.005
28186WAT      O84799   4.205   7.855   6.260
28186WAT     H184800   4.117   7.902   6.264
28186WAT     H284801   4.211   7.789   6.334
28187WAT      O84802   0.317   8.464   3.751
28187WAT     H184803   0.271   8.455   3.839
28187WAT     H284804   0.262   8.421   3.680
28188WAT      O84805   2.288   5.159   8.234
28188WAT     H184806   2.316   5.101   8.311
28188WAT     H284807   2.226   5.108   8.175
28189WAT      O84808   6.269   0.262   8.984
28189WAT     H184809   6.346   0.325   8.991
28189WAT     H284810   6.269   0.220   8.893
28190WAT      O84811   7.913   9.130   7.403
28190WAT     H184812   7.877   9.061   7.465
28190WAT     H284813   7.880   9.111   7.310
28191WAT      O84814   4.187   0.682   3.440
28191WAT     H184815   4.209   0.759   3.381
28191WAT     H284816   4.232   0.694   3.529
28192WAT      O84817   2.299   9.138   8.253
28192WAT     H184818   2.225   9.147   8.320
28192WAT     H284819   2.384   9.172   8.293
28193WAT      O84820   3.760   0.337   6.118
28193WAT     H184821   3.784   0.411   6.181
28193WAT     H284822   3.661   0.324   6.119
28194WAT      O84823   3.302   7.061   0.953
28194WAT     H184824   3.223   7.099   0.904
28194WAT     H284825   3.385   7.109   0.924
28195WAT      O84826   6.674   8.178   3.958
28195WAT     H184827   6.609   8.247   3.926
28195WAT     H284828   6.638   8.136   4.041
28196WAT      O84829   7.816   2.434   3.930
28196WAT     H184830   7.856   2.411   4.019
28196WAT     H284831   7.873   2.503   3.885
28197WAT      O84832   7.367   5.940   1.996
28197WAT     H184833   7.312   6.020   1.969
28197WAT     H284834   7.364   5.871   1.923
28198WAT      O84835   9.698   6.605   6.943
28198WAT     H184836   9.756   6.679   6.977
28198WAT     H284837   9.743   6.562   6.864
28199WAT      O84838   8.404   9.083   6.485
28199WAT     H184839   8.462   9.112   6.410
28199WAT     H284840   8.317   9.050   6.449
28200WAT      O84841   2.151   0.100   4.792
28200WAT     H184842   2.135   0.042   4.872
28200WAT     H284843   2.127   0.051   4.709
28201WAT      O84844   1.737   1.082   2.737
28201WAT     H184845   1.794   1.000   2.749
28201WAT     H284846   1.704   1.113   2.826
28202WAT      O84847   9.299   5.921   1.321
28202WAT     H184848   9.329   5.885   1.410
28202WAT     H284849   9.353   5.878   1.248
28203WAT      O84850   3.798   7.060   0.442
28203WAT     H184851   3.814   6.962   0.446
28203WAT     H284852   3.845   7.105   0.518
28204WAT      O84853   0.608   0.760   0.580
28204WAT     H184854   0.706   0.775   0.586
28204WAT     H284855   0.582   0.743   0.485
28205WAT      O84856   5.356   0.792   3.530
28205WAT     H184857   5.299   0.772   3.450
28205WAT     H284858   5.412   0.873   3.511
28206WAT      O84859   5.765   3.804   4.098
28206WAT     H184860   5.710   3.788   4.180
28206WAT     H284861   5.819   3.887   4.109
28207WAT      O84862   4.463   9.129   9.064
28207WAT     H184863   4.490   9.124   9.160
28207WAT     H284864   4.442   9.224   9.041
28208WAT      O84865   0.864   7.050   8.626
28208WAT     H184866   0.891   6.956   8.649
28208WAT     H284867   0.869   7.063   8.527
28209WAT      O84868   5.896   3.581   0.110
28209WAT     H184869   5.831   3.506   0.120
28209WAT     H284870   5.978   3.562   0.164
28210WAT      O84871   8.889   7.632   6.197
28210WAT     H184872   8.928   7.699   6.261
28210WAT     H284873   8.800   7.665   6.165
28211WAT      O84874   7.871   2.372   2.406
28211WAT     H184875   7.930   2.418   2.340
28211WAT     H284876   7.775   2.381   2.378
28212WAT      O84877   3.038   7.058   5.299
28212WAT     H184878   3.063   6.964   5.275
28212WAT     H284879   3.098   7.091   5.373
28213WAT      O84880   1.273   4.363   2.652
28213WAT     H184881   1.277   4.270   2.688
28213WAT     H284882   1.195   4.411   2.693
28214WAT      O84883   0.681   6.938   4.340
28214WAT     H184884   0.714   6.846   4.361
28214WAT     H284885   0.723   6.971   4.255
28215WAT      O84886   5.368   5.807   6.687
28215WAT     H184887   5.461   5.790   6.655
28215WAT     H284888   5.357   5.904   6.708
28216WAT      O84889   7.016   2.819   9.547
28216WAT     H184890   6.972   2.758   9.613
28216WAT     H284891   7.091   2.868   9.593
28217WAT      O84892   8.279   8.907   2.320
28217WAT     H184893   8.252   8.994   2.279
28217WAT     H284894   8.236   8.831   2.270
28218WAT      O84895   9.083   2.166   0.690
28218WAT     H184896   9.044   2.186   0.780
28218WAT     H284897   9.182   2.163   0.696
28219WAT      O84898   4.862   3.843   9.269
28219WAT     H184899   4.869   3.904   9.348
28219WAT     H284900   4.777   3.790   9.275
28220WAT      O84901   3.448   5.691   7.718
28220WAT     H184902   3.370   5.692   7.780
28220WAT     H284903   3.457   5.600   7.677
28221WAT      O84904   3.899   3.630   4.607
28221WAT     H184905   3.956   3.597   4.532
28221WAT     H284906   3.825   3.687   4.571
28222WAT      O84907   8.147   0.610   1.536
28222WAT     H184908   8.155   0.559   1.450
28222WAT     H284909   8.223   0.674   1.544
28223WAT      O84910   7.970   3.176   8.300
28223WAT     H184911   7.910   3.176   8.380
28223WAT     H284912   8.065   3.191   8.330
28224WAT      O84913   8.315   8.894   7.538
28224WAT     H184914   8.253   8.937   7.473
28224WAT     H284915   8.371   8.825   7.491
28225WAT      O84916   8.832   4.173   3.155
28225WAT     H184917   8.773   4.178   3.075
28225WAT     H284918   8.786   4.216   3.233
28226WAT      O84919   6.999   3.324   6.918
28226WAT     H184920   7.099   3.334   6.918
28226WAT     H284921   6.957   3.415   6.925
28227WAT      O84922   0.812   2.473   6.299
28227WAT     H184923   0.876   2.397   6.288
28227WAT     H284924   0.843   2.532   6.374
28228WAT      O84925   3.665   1.897   5.792
28228WAT     H184926   3.664   1.992   5.758
28228WAT     H284927   3.663   1.834   5.714
28229WAT      O84928   5.035   6.259   0.795
28229WAT     H184929   4.946   6.213   0.799
28229WAT     H284930   5.048   6.298   0.703
28230WAT      O84931   1.511   5.020   5.284
28230WAT     H184932   1.502   4.923   5.262
28230WAT     H284933   1.590   5.033   5.344
28231WAT      O84934   7.921   9.526   3.566
28231WAT     H184935   7.866   9.560   3.642
28231WAT     H284936   7.975   9.601   3.528
28232WAT      O84937   8.347   6.734   5.852
28232WAT     H184938   8.423   6.677   5.821
28232WAT     H284939   8.302   6.690   5.930
28233WAT      O84940   7.893   1.318   4.298
28233WAT     H184941   7.893   1.410   4.258
28233WAT     H284942   7.929   1.252   4.232
28234WAT      O84943   4.837   3.729   4.773
28234WAT     H184944   4.808   3.769   4.686
28234WAT     H284945   4.784   3.646   4.791
28235WAT      O84946   8.975   5.795   5.015
28235WAT     H184947   8.973   5.745   4.929
28235WAT     H284948   8.883   5.796   5.055
28236WAT      O84949   5.563   0.804   4.358
28236WAT     H184950   5.663   0.798   4.360
28236WAT     H284951   5.531   0.787   4.265
28237WAT      O84952   2.262   2.954   5.346
28237WAT     H184953   2.179   2.924   5.391
28237WAT     H284954   2.241   2.989   5.255
28238WAT      O84955   3.095   2.983   6.431
28238WAT     H184956   3.079   2.961   6.527
28238WAT     H284957   3.142   3.071   6.424
28239WAT      O84958   6.978   9.634   6.812
28239WAT     H184959   6.919   9.689   6.754
28239WAT     H284960   7.039   9.693   6.864
28240WAT      O84961   6.792   7.757   5.984
28240WAT     H184962   6.798   7.736   6.082
28240WAT     H284963   6.698   7.744   5.953
28241WAT      O84964   4.333   2.568   2.830
28241WAT     H184965   4.343   2.495   2.898
28241WAT     H284966   4.259   2.629   2.858
28242WAT      O84967   7.520   0.447   6.854
28242WAT     H184968   7.558   0.523   6.906
28242WAT     H284969   7.567   0.439   6.766
28243WAT      O84970   7.311   8.992   9.795
28243WAT     H184971   7.304   8.938   9.878
28243WAT     H284972   7.371   8.946   9.729
28244WAT      O84973   1.819   4.184   1.911
28244WAT     H184974   1.788   4.263   1.963
28244WAT     H284975   1.740   4.133   1.878
28245WAT      O84976   7.173   4.854   5.491
28245WAT     H184977   7.073   4.855   5.491
28245WAT     H284978   7.206   4.795   5.564
28246WAT      O84979   8.885   7.469   8.096
28246WAT     H184980   8.924   7.383   8.062
28246WAT     H284981   8.794   7.452   8.133
28247WAT      O84982   5.519   3.471   9.010
28247WAT     H184983   5.448   3.515   9.066
28247WAT     H284984   5.550   3.534   8.939
28248WAT      O84985   0.888   5.947   9.825
28248WAT     H184986   0.971   6.002   9.840
28248WAT     H284987   0.910   5.869   9.766
28249WAT      O84988   0.380   1.554   9.322
28249WAT     H184989   0.305   1.620   9.330
28249WAT     H284990   0.359   1.489   9.249
28250WAT      O84991   6.144   3.246   3.844
28250WAT     H184992   6.233   3.220   3.880
28250WAT     H284993   6.140   3.228   3.745
28251WAT      O84994   2.170   3.406   7.426
28251WAT     H184995   2.158   3.460   7.510
28251WAT     H284996   2.107   3.439   7.356
28252WAT      O84997   2.060   7.740   2.756
28252WAT     H184998   2.121   7.744   2.677
28252WAT     H284999   2.107   7.695   2.832
28253WAT      O85000   8.277   7.125   6.385
28253WAT     H185001   8.188   7.080   6.378
28253WAT     H285002   8.293   7.153   6.479
28254WAT      O85003   6.212   2.592   7.097
28254WAT     H185004   6.249   2.645   7.174
28254WAT     H285005   6.120   2.561   7.120
28255WAT      O85006   4.529   9.702   0.459
28255WAT     H185007   4.512   9.755   0.376
28255WAT     H285008   4.598   9.747   0.515
28256WAT      O85009   0.556   0.358   8.283
28256WAT     H185010   0.555   0.322   8.376
28256WAT     H285011   0.464   0.350   8.243
28257WAT      O85012   8.608   8.988   5.007
28257WAT     H185013   8.604   9.049   5.086
28257WAT     H285014   8.605   8.893   5.038
28258WAT      O85015   5.863   8.536   5.305
28258WAT     H185016   5.891   8.491   5.220
28258WAT     H285017   5.794   8.605   5.284
28259WAT      O85018   0.847   6.777   1.879
28259WAT     H185019   0.901   6.760   1.797
28259WAT     H285020   0.890   6.850   1.933
28260WAT      O85021   8.743   2.170   5.368
28260WAT     H185022   8.820   2.225   5.338
28260WAT     H285023   8.730   2.182   5.467
28261WAT      O85024   3.021   7.732   7.756
28261WAT     H185025   2.945   7.707   7.816
28261WAT     H285026   3.104   7.743   7.810
28262WAT      O85027   8.963   9.625   0.732
28262WAT     H185028   8.983   9.530   0.707
28262WAT     H285029   8.864   9.636   0.743
28263WAT      O85030   1.863   7.078   4.984
28263WAT     H185031   1.899   7.017   5.054
28263WAT     H285032   1.932   7.145   4.959
28264WAT      O85033   4.934   6.780   1.045
28264WAT     H185034   4.934   6.713   0.970
28264WAT     H285035   4.942   6.731   1.132
28265WAT      O85036   9.261   1.110   2.273
28265WAT     H185037   9.232   1.137   2.181
28265WAT     H285038   9.319   1.182   2.312
28266WAT      O85039   7.672   5.717   5.130
28266WAT     H185040   7.694   5.737   5.225
28266WAT     H285041   7.719   5.633   5.102
28267WAT      O85042   3.207   8.860   8.382
28267WAT     H185043   3.123   8.887   8.335
28267WAT     H285044   3.280   8.848   8.315
28268WAT      O85045   3.320   4.212   6.302
28268WAT     H185046   3.257   4.202   6.225
28268WAT     H285047   3.341   4.122   6.340
28269WAT      O85048   1.627   0.121   5.520
28269WAT     H185049   1.687   0.200   5.530
28269WAT     H285050   1.570   0.112   5.601
28270WAT      O85051   0.876   5.239   7.224
28270WAT     H185052   0.786   5.218   7.186
28270WAT     H285053   0.927   5.296   7.161
28271WAT      O85054   8.747   0.661   3.904
28271WAT     H185055   8.813   0.623   3.969
28271WAT     H285056   8.726   0.592   3.834
28272WAT      O85057   3.305   0.310   9.278
28272WAT     H185058   3.257   0.347   9.358
28272WAT     H285059   3.244   0.250   9.227
28273WAT      O85060   1.101   3.311   2.981
28273WAT     H185061   1.030   3.293   2.913
28273WAT     H285062   1.188   3.327   2.934
28274WAT      O85063   4.090   3.429   7.174
28274WAT     H185064   4.186   3.400   7.164
28274WAT     H285065   4.077   3.517   7.128
28275WAT      O85066   8.455   9.694   4.700
28275WAT     H185067   8.517   9.646   4.761
28275WAT     H285068   8.372   9.640   4.687
28276WAT      O85069   7.093   0.100   5.384
28276WAT     H185070   7.069   0.197   5.378
28276WAT     H285071   7.019   0.050   5.428
28277WAT      O85072   6.017   0.952   1.775
28277WAT     H185073   6.039   0.855   1.786
28277WAT     H285074   5.933   0.973   1.824
28278WAT      O85075   8.179   4.525   7.538
28278WAT     H185076   8.215   4.471   7.462
28278WAT     H285077   8.145   4.465   7.609
28279WAT      O85078   5.141   6.679   1.965
28279WAT     H185079   5.121   6.758   2.023
28279WAT     H285080   5.200   6.708   1.889
28280WAT      O85081   7.410   4.118   1.106
28280WAT     H185082   7.365   4.047   1.159
28280WAT     H285083   7.446   4.079   1.021
28281WAT      O85084   0.804   8.616   1.367
28281WAT     H185085   0.857   8.689   1.323
28281WAT     H285086   0.852   8.585   1.449
28282WAT      O85087   4.564   6.943   1.452
28282WAT     H185088   4.483   6.990   1.489
28282WAT     H285089   4.646   6.996   1.474
28283WAT      O85090   3.919   6.065   7.630
28283WAT     H185091   3.978   5.989   7.605
28283WAT     H285092   3.827   6.049   7.593
28284WAT      O85093   3.958   7.539   9.589
28284WAT     H185094   3.950   7.589   9.503
28284WAT     H285095   3.911   7.589   9.662
28285WAT      O85096   4.404   8.329   5.999
28285WAT     H185097   4.311   8.362   6.014
28285WAT     H285098   4.401   8.240   5.952
28286WAT      O85099   7.695   7.299   0.271
28286WAT     H185100   7.677   7.365   0.344
28286WAT     H285101   7.761   7.232   0.302
28287WAT      O85102   1.066   5.086   8.066
28287WAT     H185103   1.031   5.159   8.125
28287WAT     H285104   1.165   5.079   8.077
28288WAT      O85105   0.697   0.102   4.420
28288WAT     H185106   0.762   0.027   4.431
28288WAT     H285107   0.726   0.161   4.345
28289WAT      O85108   9.232   1.546   0.490
28289WAT     H185109   9.229   1.564   0.391
28289WAT     H285110   9.221   1.632   0.539
28290WAT      O85111   6.613   5.937   6.327
28290WAT     H185112   6.549   5.860   6.329
28290WAT     H285113   6.671   5.930   6.245
28291WAT      O85114   3.631   2.216   4.659
28291WAT     H185115   3.721   2.252   4.683
28291WAT     H285116   3.634   2.177   4.567
28292WAT      O85117   8.482   9.256   2.981
28292WAT     H185118   8.444   9.341   2.945
28292WAT     H285119   8.509   9.197   2.905
28293WAT      O85120   8.114   9.196   1.311
28293WAT     H185121   8.167   9.177   1.393
28293WAT     H285122   8.112   9.295   1.295
28294WAT      O85123   3.047   5.110   1.803
28294WAT     H185124   3.132   5.058   1.814
28294WAT     H285125   3.034   5.133   1.707
28295WAT      O85126   4.535   0.148   8.178
28295WAT     H185127   4.485   0.157   8.092
28295WAT     H285128   4.555   0.239   8.214
28296WAT      O85129   4.229   8.332   6.999
28296WAT     H185130   4.276   8.387   7.068
28296WAT     H285131   4.293   8.308   6.926
28297WAT      O85132   8.625   2.669   3.346
28297WAT     H185133   8.659   2.763   3.349
28297WAT     H285134   8.676   2.617   3.278
28298WAT      O85135   3.695   3.980   0.987
28298WAT     H185136   3.596   3.987   0.977
28298WAT     H285137   3.724   3.886   0.968
28299WAT      O85138   0.954   6.786   0.080
28299WAT     H185139   0.920   6.698   0.112
28299WAT     H285140   0.885   6.829   0.022
28300WAT      O85141   2.472   1.348   1.337
28300WAT     H185142   2.510   1.422   1.280
28300WAT     H285143   2.530   1.267   1.329
28301WAT      O85144   8.465   2.847   7.338
28301WAT     H185145   8.541   2.783   7.343
28301WAT     H285146   8.493   2.928   7.285
28302WAT      O85147   0.375   4.203   5.508
28302WAT     H185148   0.296   4.229   5.453
28302WAT     H285149   0.432   4.284   5.524
28303WAT      O85150   3.616   1.026   1.841
28303WAT     H185151   3.587   1.082   1.763
28303WAT     H285152   3.632   1.084   1.920
28304WAT      O85153   7.950   3.829   4.297
28304WAT     H185154   7.871   3.889   4.284
28304WAT     H285155   8.032   3.872   4.260
28305WAT      O85156   2.876   0.213   9.267
28305WAT     H185157   2.800   0.255   9.316
28305WAT     H285158   2.910   0.135   9.319
28306WAT      O85159   6.797   7.704   7.708
28306WAT     H185160   6.773   7.670   7.617
28306WAT     H285161   6.738   7.781   7.732
28307WAT      O85162   7.236   8.933   5.590
28307WAT     H185163   7.235   9.021   5.635
28307WAT     H285164   7.290   8.940   5.505
28308WAT      O85165   2.272   8.916   3.883
28308WAT     H185166   2.305   8.855   3.955
28308WAT     H285167   2.173   8.927   3.891
28309WAT      O85168   8.526   8.082   9.349
28309WAT     H185169   8.564   8.174   9.340
28309WAT     H285170   8.600   8.016   9.363
28310WAT      O85171   8.273   3.330   1.627
28310WAT     H185172   8.245   3.389   1.702
28310WAT     H285173   8.338   3.378   1.568
28311WAT      O85174   1.092   5.173   3.167
28311WAT     H185175   1.113   5.131   3.079
28311WAT     H285176   1.135   5.120   3.240
28312WAT      O85177   2.952   0.804   1.884
28312WAT     H185178   2.921   0.764   1.797
28312WAT     H285179   2.889   0.876   1.912
28313WAT      O85180   3.656   3.391   4.830
28313WAT     H185181   3.755   3.380   4.817
28313WAT     H285182   3.637   3.396   4.928
28314WAT      O85183   5.005   2.474   4.634
28314WAT     H185184   4.949   2.556   4.623
28314WAT     H285185   5.007   2.424   4.547
28315WAT      O85186   3.088   2.179   9.488
28315WAT     H185187   3.187   2.176   9.499
28315WAT     H285188   3.051   2.257   9.540
28316WAT      O85189   0.808   7.370   5.758
28316WAT     H185190   0.840   7.311   5.684
28316WAT     H285191   0.863   7.354   5.840
28317WAT      O85192   8.217   7.593   1.298
28317WAT     H185193   8.264   7.564   1.381
28317WAT     H285194   8.189   7.512   1.246
28318WAT      O85195   4.568   2.543   1.072
28318WAT     H185196   4.556   2.457   1.022
28318WAT     H285197   4.662   2.576   1.061
28319WAT      O85198   3.583   8.010   3.023
28319WAT     H185199   3.631   8.066   2.955
28319WAT     H285200   3.648   7.972   3.088
28320WAT      O85201   6.228   4.570   7.235
28320WAT     H185202   6.264   4.575   7.328
28320WAT     H285203   6.305   4.567   7.170
28321WAT      O85204   3.798   2.402   0.479
28321WAT     H185205   3.805   2.342   0.400
28321WAT     H285206   3.863   2.477   0.470
28322WAT      O85207   1.379   8.527   3.406
28322WAT     H185208   1.325   8.546   3.324
28322WAT     H285209   1.358   8.595   3.476
28323WAT      O85210   0.374   1.926   8.929
28323WAT     H185211   0.322   1.945   9.013
28323WAT     H285212   0.450   1.990   8.922
28324WAT      O85213   1.469   6.126   1.982
28324WAT     H185214   1.378   6.119   1.941
28324WAT     H285215   1.508   6.034   1.993
28325WAT      O85216   3.921   8.915   5.237
28325WAT     H185217   3.939   8.953   5.146
28325WAT     H285218   3.836   8.953   5.273
28326WAT      O85219   5.349   7.897   0.122
28326WAT     H185220   5.418   7.849   0.068
28326WAT     H285221   5.304   7.833   0.184
28327WAT      O85222   0.163   8.037   1.027
28327WAT     H185223   0.088   8.085   1.073
28327WAT     H285224   0.223   7.996   1.095
28328WAT      O85225   3.201   0.698   4.857
28328WAT     H185226   3.264   0.627   4.828
28328WAT     H285227   3.107   0.662   4.856
28329WAT      O85228   2.204   5.172   2.251
28329WAT     H185229   2.220   5.178   2.153
28329WAT     H285230   2.141   5.097   2.270
28330WAT      O85231   4.951   4.375   1.948
28330WAT     H185232   5.034   4.383   1.894
28330WAT     H285233   4.873   4.406   1.894
28331WAT      O85234   3.753   6.656   1.481
28331WAT     H185235   3.666   6.693   1.515
28331WAT     H285236   3.742   6.627   1.386
28332WAT      O85237   2.516   2.585   1.302
28332WAT     H185238   2.567   2.512   1.257
28332WAT     H285239   2.418   2.565   1.296
28333WAT      O85240   5.306   1.298   5.362
28333WAT     H185241   5.387   1.240   5.360
28333WAT     H285242   5.256   1.283   5.448
28334WAT      O85243   4.959   1.962   3.022
28334WAT     H185244   5.044   2.014   3.013
28334WAT     H285245   4.923   1.974   3.115
28335WAT      O85246   0.904   0.134   1.757
28335WAT     H185247   0.825   0.098   1.807
28335WAT     H285248   0.976   0.065   1.754
28336WAT      O85249   0.470   5.705   2.513
28336WAT     H185250   0.540   5.776   2.500
28336WAT     H285251   0.510   5.615   2.496
28337WAT      O85252   0.576   6.132   5.817
28337WAT     H185253   0.658   6.153   5.870
28337WAT     H285254   0.590   6.163   5.722
28338WAT      O85255   2.078   9.108   2.492
28338WAT     H185256   2.129   9.122   2.407
28338WAT     H285257   2.109   9.024   2.535
28339WAT      O85258   0.078   5.345   8.922
28339WAT     H185259  -0.004   5.384   8.964
28339WAT     H285260   0.158   5.397   8.951
28340WAT      O85261   1.670   7.770   1.295
28340WAT     H185262   1.647   7.692   1.354
28340WAT     H285263   1.762   7.803   1.318
28341WAT      O85264   6.566   6.823   1.583
28341WAT     H185265   6.626   6.894   1.546
28341WAT     H285266   6.620   6.756   1.634
28342WAT      O85267   9.868   6.004   2.515
28342WAT     H185268   9.872   6.042   2.607
28342WAT     H285269   9.927   6.059   2.454
28343WAT      O85270   7.270   7.485   3.538
28343WAT     H185271   7.277   7.522   3.446
28343WAT     H285272   7.349   7.426   3.556
28344WAT      O85273   8.718   9.612   8.795
28344WAT     H185274   8.697   9.649   8.886
28344WAT     H285275   8.713   9.512   8.798
28345WAT      O85276   8.909   2.624   0.001
28345WAT     H185277   8.992   2.614   0.055
28345WAT     H285278   8.865   2.712   0.023
28346WAT      O85279   7.957   5.874   6.515
28346WAT     H185280   7.931   5.910   6.605
28346WAT     H285281   7.982   5.778   6.523
28347WAT      O85282   5.402   6.892   8.356
28347WAT     H185283   5.345   6.867   8.435
28347WAT     H285284   5.494   6.855   8.370
28348WAT      O85285   8.540   0.206   1.384
28348WAT     H185286   8.580   0.116   1.364
28348WAT     H285287   8.443   0.195   1.403
28349WAT      O85288   6.047   6.483   8.605
28349WAT     H185289   6.134   6.533   8.602
28349WAT     H285290   5.986   6.527   8.670
28350WAT      O85291   9.590   3.708   2.383
28350WAT     H185292   9.634   3.704   2.293
28350WAT     H285293   9.653   3.751   2.448
28351WAT      O85294   6.859   5.727   7.314
28351WAT     H185295   6.934   5.731   7.382
28351WAT     H285296   6.896   5.701   7.225
28352WAT      O85297   7.153   3.136   8.828
28352WAT     H185298   7.129   3.055   8.774
28352WAT     H285299   7.252   3.146   8.831
28353WAT      O85300   1.409   2.345   8.187
28353WAT     H185301   1.483   2.283   8.211
28353WAT     H285302   1.440   2.440   8.197
28354WAT      O85303   3.012   8.846   0.418
28354WAT     H185304   2.929   8.816   0.464
28354WAT     H285305   3.078   8.771   0.416
28355WAT      O85306   3.130   4.498   0.195
28355WAT     H185307   3.159   4.444   0.275
28355WAT     H285308   3.210   4.521   0.140
28356WAT      O85309   7.327   9.134   1.916
28356WAT     H185310   7.302   9.047   1.874
28356WAT     H285311   7.269   9.207   1.879
28357WAT      O85312   6.139   7.897   9.883
28357WAT     H185313   6.145   7.798   9.899
28357WAT     H285314   6.129   7.914   9.785
28358WAT      O85315   9.175   3.220   9.479
28358WAT     H185316   9.270   3.189   9.471
28358WAT     H285317   9.114   3.141   9.470
28359WAT      O85318   2.752   7.869   5.371
28359WAT     H185319   2.777   7.923   5.291
28359WAT     H285320   2.667   7.904   5.410
28360WAT      O85321   6.490   5.589   4.406
28360WAT     H185322   6.478   5.542   4.318
28360WAT     H285323   6.528   5.680   4.390
28361WAT      O85324   4.797   8.733   1.846
28361WAT     H185325   4.809   8.709   1.750
28361WAT     H285326   4.708   8.777   1.858
28362WAT      O85327   5.871   0.644   0.991
28362WAT     H185328   5.792   0.608   0.941
28362WAT     H285329   5.841   0.675   1.082
28363WAT      O85330   7.048   8.918   3.086
28363WAT     H185331   7.098   9.001   3.111
28363WAT     H285332   7.072   8.892   2.993
28364WAT      O85333   3.717   1.208   5.892
28364WAT     H185334   3.750   1.299   5.867
28364WAT     H285335   3.786   1.162   5.947
28365WAT      O85336   3.069   0.413   2.627
28365WAT     H185337   3.063   0.317   2.598
28365WAT     H285338   3.157   0.451   2.599
28366WAT      O85339   3.725   9.494   5.730
28366WAT     H185340   3.789   9.564   5.760
28366WAT     H285341   3.710   9.501   5.632
28367WAT      O85342   4.828   1.235   5.305
28367WAT     H185343   4.809   1.185   5.390
28367WAT     H285344   4.778   1.322   5.305
28368WAT      O85345   6.347   0.524   9.748
28368WAT     H185346   6.257   0.480   9.742
28368WAT     H285347   6.380   0.545   9.656
28369WAT      O85348   9.031   8.441   6.685
28369WAT     H185349   9.059   8.537   6.695
28369WAT     H285350   9.042   8.393   6.772
28370WAT      O85351   3.699   3.976   7.982
28370WAT     H185352   3.797   3.960   7.986
28370WAT     H285353   3.649   3.890   7.993
28371WAT      O85354   2.233   7.662   8.470
28371WAT     H185355   2.211   7.577   8.422
28371WAT     H285356   2.298   7.715   8.416
28372WAT      O85357   3.265   3.702   4.753
28372WAT     H185358   3.352   3.685   4.707
28372WAT     H285359   3.280   3.764   4.830
28373WAT      O85360   0.791   7.748   5.570
28373WAT     H185361   0.865   7.681   5.566
28373WAT     H285362   0.827   7.838   5.546
28374WAT      O85363   3.691   4.696   8.911
28374WAT     H185364   3.663   4.658   8.999
28374WAT     H285365   3.612   4.731   8.862
28375WAT      O85366   0.133   5.852   0.723
28375WAT     H185367   0.161   5.943   0.751
28375WAT     H285368   0.048   5.827   0.770
28376WAT      O85369   3.599   3.886   5.598
28376WAT     H185370   3.511   3.861   5.637
28376WAT     H285371   3.593   3.885   5.498
28377WAT      O85372   3.232   0.891   0.686
28377WAT     H185373   3.299   0.906   0.758
28377WAT     H285374   3.264   0.932   0.601
28378WAT      O85375   7.833   4.924   6.838
28378WAT     H185376   7.890   4.995   6.795
28378WAT     H285377   7.762   4.895   6.775
28379WAT      O85378   4.676   2.425   5.104
28379WAT     H185379   4.671   2.377   5.191
28379WAT     H285380   4.585   2.459   5.080
28380WAT      O85381   8.606   4.958   6.929
28380WAT     H185382   8.631   4.993   6.839
28380WAT     H285383   8.517   4.995   6.955
28381WAT      O85384   9.557   7.166   3.564
28381WAT     H185385   9.528   7.229   3.492
28381WAT     H285386   9.592   7.082   3.522
28382WAT      O85387   4.070   9.355   3.612
28382WAT     H185388   4.036   9.264   3.637
28382WAT     H285389   4.170   9.353   3.608
28383WAT      O85390   8.356   1.695   9.833
28383WAT     H185391   8.280   1.758   9.824
28383WAT     H285392   8.356   1.656   9.925
28384WAT      O85393   3.672   2.908   3.781
28384WAT     H185394   3.700   2.857   3.700
28384WAT     H285395   3.646   2.845   3.853
28385WAT      O85396   1.914   2.497   3.744
28385WAT     H185397   1.918   2.536   3.836
28385WAT     H285398   1.984   2.427   3.734
28386WAT      O85399   3.795   0.403   7.376
28386WAT     H185400   3.722   0.363   7.322
28386WAT     H285401   3.808   0.499   7.350
28387WAT      O85402   8.156   1.245   7.449
28387WAT     H185403   8.106   1.250   7.536
28387WAT     H285404   8.250   1.216   7.467
28388WAT      O85405   4.724   3.078   6.570
28388WAT     H185406   4.644   3.103   6.515
28388WAT     H285407   4.786   3.157   6.576
28389WAT      O85408   0.090   7.973   1.645
28389WAT     H185409   0.016   7.914   1.679
28389WAT     H285410   0.090   7.972   1.546
28390WAT      O85411   3.278   7.722   8.672
28390WAT     H185412   3.330   7.796   8.714
28390WAT     H285413   3.260   7.651   8.740
28391WAT      O85414   8.909   0.553   9.040
28391WAT     H185415   8.819   0.513   9.056
28391WAT     H285416   8.899   0.646   9.004
28392WAT      O85417   0.357   2.901   4.826
28392WAT     H185418   0.268   2.942   4.846
28392WAT     H285419   0.353   2.854   4.737
28393WAT      O85420   7.133   6.020   8.181
28393WAT     H185421   7.066   5.991   8.249
28393WAT     H285422   7.111   6.113   8.150
28394WAT      O85423   9.358   3.211   7.791
28394WAT     H185424   9.378   3.300   7.750
28394WAT     H285425   9.308   3.223   7.876
28395WAT      O85426   3.302   1.563   4.114
28395WAT     H185427   3.317   1.621   4.034
28395WAT     H285428   3.325   1.615   4.197
28396WAT      O85429   5.796   6.854   6.281
28396WAT     H185430   5.852   6.902   6.213
28396WAT     H285431   5.782   6.912   6.361
28397WAT      O85432   2.947   1.144   7.022
28397WAT     H185433   2.977   1.049   7.010
28397WAT     H285434   2.977   1.198   6.943
28398WAT      O85435   9.115   1.976   5.382
28398WAT     H185436   9.047   1.977   5.456
28398WAT     H285437   9.070   1.951   5.296
28399WAT      O85438   4.983   1.091   6.542
28399WAT     H185439   4.952   1.098   6.447
28399WAT     H285440   5.018   0.999   6.558
28400WAT      O85441   4.556   2.083   4.086
28400WAT     H185442   4.608   2.091   4.171
28400WAT     H285443   4.540   2.174   4.048
28401WAT      O85444   9.137   3.140   0.869
28401WAT     H185445   9.074   3.197   0.921
28401WAT     H285446   9.225   3.135   0.916
28402WAT      O85447   4.446   0.727   4.588
28402WAT     H185448   4.505   0.725   4.668
28402WAT     H285449   4.350   0.724   4.617
28403WAT      O85450   6.393   6.768   0.926
28403WAT     H185451   6.381   6.733   1.019
28403WAT     H285452   6.305   6.770   0.879
28404WAT      O85453   8.707   0.693   1.938
28404WAT     H185454   8.760   0.778   1.941
28404WAT     H285455   8.690   0.662   2.032
28405WAT      O85456   1.148   9.461   7.142
28405WAT     H185457   1.116   9.405   7.065
28405WAT     H285458   1.115   9.554   7.131
28406WAT      O85459   9.238   9.733   6.761
28406WAT     H185460   9.246   9.770   6.669
28406WAT     H285461   9.214   9.807   6.825
28407WAT      O85462   5.109   5.068   2.221
28407WAT     H185463   5.077   5.126   2.146
28407WAT     H285464   5.170   5.121   2.280
28408WAT      O85465   3.840   4.587   8.554
28408WAT     H185466   3.747   4.550   8.557
28408WAT     H285467   3.903   4.516   8.522
28409WAT      O85468   6.337   5.282   0.817
28409WAT     H185469   6.266   5.238   0.762
28409WAT     H285470   6.338   5.380   0.798
28410WAT      O85471   5.733   7.250   2.829
28410WAT     H185472   5.793   7.172   2.812
28410WAT     H285473   5.641   7.217   2.848
28411WAT      O85474   7.450   5.838   0.925
28411WAT     H185475   7.534   5.814   0.876
28411WAT     H285476   7.447   5.936   0.942
28412WAT      O85477   7.538   1.752   2.509
28412WAT     H185478   7.494   1.712   2.588
28412WAT     H285479   7.490   1.837   2.484
28413WAT      O85480   3.426   8.212   9.197
28413WAT     H185481   3.460   8.292   9.149
28413WAT     H285482   3.343   8.179   9.152
28414WAT      O85483   4.064   6.774   0.009
28414WAT     H185484   4.115   6.857   0.032
28414WAT     H285485   4.125   6.695   0.011
28415WAT      O85486   1.254   3.187   2.569
28415WAT     H185487   1.327   3.219   2.630
28415WAT     H285488   1.292   3.121   2.503
28416WAT      O85489   9.444   2.228   5.457
28416WAT     H185490   9.366   2.276   5.498
28416WAT     H285491   9.416   2.189   5.369
28417WAT      O85492   8.593   6.157   1.509
28417WAT     H185493   8.661   6.221   1.545
28417WAT     H285494   8.603   6.151   1.409
28418WAT      O85495   3.121   8.167   8.047
28418WAT     H185496   3.070   8.201   7.968
28418WAT     H285497   3.215   8.199   8.042
28419WAT      O85498   0.288   8.624   0.539
28419WAT     H185499   0.197   8.665   0.552
28419WAT     H285500   0.351   8.664   0.605
28420WAT      O85501   7.609   6.608   8.817
28420WAT     H185502   7.569   6.517   8.816
28420WAT     H285503   7.546   6.673   8.774
28421WAT      O85504   0.856   2.823   2.689
28421WAT     H185505   0.907   2.907   2.672
28421WAT     H285506   0.896   2.748   2.636
28422WAT      O85507   1.928   6.845   1.473
28422WAT     H185508   1.892   6.938   1.468
28422WAT     H285509   1.876   6.793   1.541
28423WAT      O85510   1.924   8.005   6.752
28423WAT     H185511   1.940   8.049   6.840
28423WAT     H285512   1.900   8.075   6.684
28424WAT      O85513   7.491   4.899   6.977
28424WAT     H185514   7.569   4.947   7.016
28424WAT     H285515   7.517   4.859   6.889
28425WAT      O85516   7.982   5.424   7.055
28425WAT     H185517   7.936   5.355   7.111
28425WAT     H285518   7.935   5.432   6.967
28426WAT      O85519   0.809   4.731   3.390
28426WAT     H185520   0.803   4.790   3.309
28426WAT     H285521   0.788   4.637   3.365
28427WAT      O85522   0.773   8.214   6.794
28427WAT     H185523   0.753   8.124   6.757
28427WAT     H285524   0.854   8.210   6.853
28428WAT      O85525   3.036   5.975   7.775
28428WAT     H185526   3.062   6.070   7.758
28428WAT     H285527   3.041   5.923   7.690
28429WAT      O85528   8.858   1.848   4.594
28429WAT     H185529   8.832   1.848   4.497
28429WAT     H285530   8.809   1.775   4.642
28430WAT      O85531   3.465   2.006   9.561
28430WAT     H185532   3.472   1.987   9.658
28430WAT     H285533   3.439   2.101   9.547
28431WAT      O85534   0.185   8.161   3.122
28431WAT     H185535   0.146   8.240   3.171
28431WAT     H285536   0.230   8.100   3.188
28432WAT      O85537   4.603   9.178   1.073
28432WAT     H185538   4.660   9.259   1.081
28432WAT     H285539   4.514   9.204   1.035
28433WAT      O85540   1.872   5.823   0.744
28433WAT     H185541   1.774   5.831   0.763
28433WAT     H285542   1.895   5.726   0.730
28434WAT      O85543   3.904   4.666   1.480
28434WAT     H185544   3.866   4.608   1.407
28434WAT     H285545   3.980   4.720   1.444
28435WAT      O85546   4.436   7.361   4.960
28435WAT     H185547   4.530   7.365   4.994
28435WAT     H285548   4.437   7.339   4.862
28436WAT      O85549   1.365   7.800   8.748
28436WAT     H185550   1.445   7.858   8.733
28436WAT     H285551   1.282   7.847   8.717
28437WAT      O85552   3.494   8.037   9.631
28437WAT     H185553   3.452   8.108   9.688
28437WAT     H285554   3.535   7.967   9.689
28438WAT      O85555   5.788   7.347   2.562
28438WAT     H185556   5.760   7.315   2.652
28438WAT     H285557   5.814   7.444   2.568
28439WAT      O85558   2.350   7.094   4.311
28439WAT     H185559   2.426   7.082   4.375
28439WAT     H285560   2.385   7.124   4.222
28440WAT      O85561   4.169   3.419   5.546
28440WAT     H185562   4.257   3.432   5.500
28440WAT     H285563   4.122   3.507   5.554
28441WAT      O85564   4.830   6.852   2.899
28441WAT     H185565   4.848   6.836   2.802
28441WAT     H285566   4.909   6.895   2.941
28442WAT      O85567   3.229   6.766   8.295
28442WAT     H185568   3.236   6.718   8.382
28442WAT     H285569   3.169   6.714   8.233
28443WAT      O85570   8.970   1.753   1.980
28443WAT     H185571   9.043   1.738   2.047
28443WAT     H285572   8.907   1.823   2.015
28444WAT      O85573   7.546   9.716   5.732
28444WAT     H185574   7.576   9.622   5.746
28444WAT     H285575   7.578   9.773   5.808
28445WAT      O85576   7.435   9.779   4.971
28445WAT     H185577   7.430   9.788   5.070
28445WAT     H285578   7.433   9.681   4.947
28446WAT      O85579   0.642   0.325   4.775
28446WAT     H185580   0.645   0.235   4.733
28446WAT     H285581   0.708   0.386   4.729
28447WAT      O85582   7.512   2.040   5.891
28447WAT     H185583   7.419   2.003   5.892
28447WAT     H285584   7.578   1.965   5.904
28448WAT      O85585   2.529   4.098   0.195
28448WAT     H185586   2.540   4.092   0.294
28448WAT     H285587   2.598   4.041   0.150
28449WAT      O85588   1.010   6.388   5.983
28449WAT     H185589   1.096   6.338   5.996
28449WAT     H285590   1.028   6.473   5.933
28450WAT      O85591   7.981   0.910   4.419
28450WAT     H185592   8.042   0.836   4.392
28450WAT     H285593   7.898   0.872   4.460
28451WAT      O85594   8.241   4.830   3.806
28451WAT     H185595   8.294   4.872   3.879
28451WAT     H285596   8.278   4.739   3.786
28452WAT      O85597   4.143   6.525   2.722
28452WAT     H185598   4.188   6.497   2.637
28452WAT     H285599   4.165   6.460   2.795
28453WAT      O85600   7.325   9.848   5.645
28453WAT     H185601   7.296   9.814   5.556
28453WAT     H285602   7.411   9.804   5.671
28454WAT      O85603   3.870   6.167   4.261
28454WAT     H185604   3.947   6.136   4.317
28454WAT     H285605   3.844   6.260   4.289
28455WAT      O85606   1.280   5.451   9.379
28455WAT     H185607   1.310   5.369   9.331
28455WAT     H285608   1.244   5.517   9.313
28456WAT      O85609   5.440   9.755   0.633
28456WAT     H185610   5.485   9.760   0.544
28456WAT     H285611   5.468   9.833   0.689
28457WAT      O85612   0.627   6.253   8.139
28457WAT     H185613   0.581   6.184   8.083
28457WAT     H285614   0.578   6.339   8.132
28458WAT      O85615   0.604   9.298   6.789
28458WAT     H185616   0.539   9.373   6.785
28458WAT     H285617   0.670   9.314   6.862
28459WAT      O85618   6.926   5.713   5.947
28459WAT     H185619   6.901   5.777   5.874
28459WAT     H285620   7.007   5.747   5.995
28460WAT      O85621   1.647   9.042   2.503
28460WAT     H185622   1.586   9.113   2.467
28460WAT     H285623   1.595   8.958   2.519
28461WAT      O85624   6.685   5.853   2.476
28461WAT     H185625   6.675   5.932   2.416
28461WAT     H285626   6.773   5.808   2.457
28462WAT      O85627   0.968   3.244   6.985
28462WAT     H185628   0.932   3.212   7.072
28462WAT     H285629   0.936   3.337   6.967
28463WAT      O85630   9.035   0.593   1.071
28463WAT     H185631   8.955   0.636   1.029
28463WAT     H285632   9.118   0.624   1.025
28464WAT      O85633   6.866   0.219   8.096
28464WAT     H185634   6.788   0.218   8.034
28464WAT     H285635   6.893   0.314   8.115
28465WAT      O85636   7.351   9.600   2.521
28465WAT     H185637   7.414   9.643   2.586
28465WAT     H285638   7.304   9.671   2.469
28466WAT      O85639   6.241   1.044   5.522
28466WAT     H185640   6.279   0.957   5.554
28466WAT     H285641   6.269   1.117   5.584
28467WAT      O85642   1.367   8.798   5.757
28467WAT     H185643   1.298   8.806   5.686
28467WAT     H285644   1.455   8.832   5.722
28468WAT      O85645   6.906   8.064   3.914
28468WAT     H185646   6.825   8.118   3.936
28468WAT     H285647   6.898   7.973   3.955
28469WAT      O85648   5.395   8.927   2.248
28469WAT     H185649   5.463   8.980   2.196
28469WAT     H285650   5.411   8.830   2.235
28470WAT      O85651   3.702   5.539   8.591
28470WAT     H185652   3.657   5.450   8.586
28470WAT     H285653   3.678   5.583   8.678
28471WAT      O85654   5.943   7.929   1.436
28471WAT     H185655   5.914   7.923   1.340
28471WAT     H285656   6.021   7.991   1.444
28472WAT      O85657   1.840   0.371   9.209
28472WAT     H185658   1.763   0.415   9.163
28472WAT     H285659   1.921   0.428   9.200
28473WAT      O85660   0.456   3.824   6.253
28473WAT     H185661   0.477   3.841   6.349
28473WAT     H285662   0.538   3.835   6.197
28474WAT      O85663   5.610   3.338   7.785
28474WAT     H185664   5.617   3.334   7.884
28474WAT     H285665   5.602   3.245   7.749
28475WAT      O85666   7.994   3.945   8.130
28475WAT     H185667   7.939   4.026   8.108
28475WAT     H285668   7.942   3.885   8.191
28476WAT      O85669   1.310   1.155   1.614
28476WAT     H185670   1.264   1.115   1.693
28476WAT     H285671   1.393   1.203   1.644
28477WAT      O85672   8.299   5.990   0.962
28477WAT     H185673   8.276   5.908   0.910
28477WAT     H285674   8.220   6.051   0.965
28478WAT      O85675   2.688   7.505   7.862
28478WAT     H185676   2.595   7.485   7.833
28478WAT     H285677   2.744   7.422   7.854
28479WAT      O85678   1.306   1.726   8.377
28479WAT     H185679   1.335   1.726   8.472
28479WAT     H285680   1.371   1.779   8.322
28480WAT      O85681   7.154   0.737   9.331
28480WAT     H185682   7.060   0.721   9.364
28480WAT     H285683   7.218   0.708   9.402
28481WAT      O85684   0.881   6.193   5.224
28481WAT     H185685   0.807   6.254   5.251
28481WAT     H285686   0.843   6.114   5.175
28482WAT      O85687   4.342   8.707   9.542
28482WAT     H185688   4.333   8.804   9.522
28482WAT     H285689   4.302   8.653   9.467
28483WAT      O85690   2.678   8.132   4.295
28483WAT     H185691   2.680   8.231   4.278
28483WAT     H285692   2.591   8.094   4.263
28484WAT      O85693   7.990   6.500   1.269
28484WAT     H185694   7.903   6.537   1.236
28484WAT     H285695   8.065   6.552   1.229
28485WAT      O85696   8.843   9.077   0.811
28485WAT     H185697   8.917   9.088   0.745
28485WAT     H285698   8.831   9.164   0.861
28486WAT      O85699   4.156   2.811   9.476
28486WAT     H185700   4.085   2.756   9.432
28486WAT     H285701   4.241   2.758   9.479
28487WAT      O85702   0.352   8.087   5.728
28487WAT     H185703   0.331   8.130   5.640
28487WAT     H285704   0.318   8.145   5.802
28488WAT      O85705   1.732   2.256   3.424
28488WAT     H185706   1.656   2.256   3.489
28488WAT     H285707   1.742   2.165   3.384
28489WAT      O85708   1.508   6.716   8.394
28489WAT     H185709   1.579   6.783   8.416
28489WAT     H285710   1.418   6.754   8.416
28490WAT      O85711   6.812   0.566   0.315
28490WAT     H185712   6.878   0.630   0.276
28490WAT     H285713   6.721   0.588   0.280
28491WAT      O85714   6.179   0.672   7.074
28491WAT     H185715   6.140   0.581   7.082
28491WAT     H285716   6.279   0.666   7.079
28492WAT      O85717   5.848   1.497   7.773
28492WAT     H185718   5.788   1.555   7.718
28492WAT     H285719   5.822   1.401   7.762
28493WAT      O85720   9.820   9.217   3.254
28493WAT     H185721   9.759   9.295   3.243
28493WAT     H285722   9.801   9.150   3.182
28494WAT      O85723   9.290   9.820   6.515
28494WAT     H185724   9.247   9.882   6.449
28494WAT     H285725   9.354   9.759   6.467
28495WAT      O85726   2.368   8.209   0.909
28495WAT     H185727   2.299   8.188   0.979
28495WAT     H285728   2.398   8.304   0.920
28496WAT      O85729   0.299   2.427   0.239
28496WAT     H185730   0.367   2.494   0.208
28496WAT     H285731   0.278   2.443   0.336
28497WAT      O85732   9.485   6.879   3.897
28497WAT     H185733   9.446   6.927   3.975
28497WAT     H285734   9.457   6.924   3.812
28498WAT      O85735   1.877   8.466   6.512
28498WAT     H185736   1.814   8.454   6.436
28498WAT     H285737   1.886   8.564   6.533
28499WAT      O85738   4.199   6.076   9.798
28499WAT     H185739   4.206   6.010   9.872
28499WAT     H285740   4.243   6.162   9.825
28500WAT      O85741   0.407   1.647   3.154
28500WAT     H185742   0.385   1.579   3.083
28500WAT     H285743   0.422   1.736   3.111
28501WAT      O85744   7.654   0.258   8.358
28501WAT     H185745   7.581   0.280   8.423
28501WAT     H285746   7.660   0.159   8.347
28502WAT      O85747   0.791   2.397   6.630
28502WAT     H185748   0.723   2.411   6.702
28502WAT     H285749   0.760   2.324   6.569
28503WAT      O85750   4.437   0.975   8.695
28503WAT     H185751   4.533   0.950   8.683
28503WAT     H285752   4.380   0.908   8.647
28504WAT      O85753   5.157   3.884   5.901
28504WAT     H185754   5.199   3.943   5.970
28504WAT     H285755   5.059   3.877   5.919
28505WAT      O85756   0.290  -0.003   2.419
28505WAT     H185757   0.239   0.071   2.463
28505WAT     H285758   0.386   0.001   2.448
28506WAT      O85759   0.035   4.899   2.620
28506WAT     H185760  -0.026   4.978   2.610
28506WAT     H285761   0.125   4.930   2.649
28507WAT      O85762   7.305   2.308   0.267
28507WAT     H185763   7.307   2.209   0.249
28507WAT     H285764   7.330   2.324   0.363
28508WAT      O85765   6.206   5.285   8.773
28508WAT     H185766   6.183   5.356   8.707
28508WAT     H285767   6.133   5.277   8.841
28509WAT      O85768   8.270   3.493   6.021
28509WAT     H185769   8.219   3.578   6.029
28509WAT     H285770   8.222   3.431   5.959
28510WAT      O85771   0.825   6.168   5.927
28510WAT     H185772   0.886   6.244   5.952
28510WAT     H285773   0.795   6.121   6.010
28511WAT      O85774   3.266   8.073   3.791
28511WAT     H185775   3.274   7.981   3.831
28511WAT     H285776   3.176   8.081   3.747
28512WAT      O85777   6.718   2.559   9.258
28512WAT     H185778   6.724   2.537   9.161
28512WAT     H285779   6.718   2.658   9.270
28513WAT      O85780   2.302   1.031   5.633
28513WAT     H185781   2.329   1.110   5.689
28513WAT     H285782   2.332   1.046   5.539
28514WAT      O85783   0.867   6.643   3.030
28514WAT     H185784   0.927   6.686   2.962
28514WAT     H285785   0.901   6.552   3.050
28515WAT      O85786   7.205   0.913   4.858
28515WAT     H185787   7.211   0.987   4.790
28515WAT     H285788   7.225   0.950   4.948
28516WAT      O85789   1.661   3.309   1.501
28516WAT     H185790   1.619   3.391   1.539
28516WAT     H285791   1.693   3.250   1.576
28517WAT      O85792   9.122   3.715   2.208
28517WAT     H185793   9.208   3.765   2.202
28517WAT     H285794   9.060   3.746   2.137
28518WAT      O85795   5.817   9.375   2.302
28518WAT     H185796   5.778   9.431   2.375
28518WAT     H285797   5.787   9.410   2.213
28519WAT      O85798   1.302   4.449   6.117
28519WAT     H185799   1.381   4.396   6.086
28519WAT     H285800   1.232   4.449   6.046
28520WAT      O85801   7.380   3.618   4.488
28520WAT     H185802   7.395   3.711   4.453
28520WAT     H285803   7.341   3.561   4.415
28521WAT      O85804   8.464   8.890   8.208
28521WAT     H185805   8.465   8.986   8.237
28521WAT     H285806   8.404   8.880   8.128
28522WAT      O85807   6.142   3.850   7.049
28522WAT     H185808   6.067   3.905   7.084
28522WAT     H285809   6.158   3.773   7.111
28523WAT      O85810   6.919   4.798   5.469
28523WAT     H185811   6.861   4.874   5.441
28523WAT     H285812   6.952   4.749   5.388
28524WAT      O85813   9.268   1.630   0.976
28524WAT     H185814   9.276   1.721   0.935
28524WAT     H285815   9.225   1.568   0.911
28525WAT      O85816   1.360   3.177   7.591
28525WAT     H185817   1.459   3.167   7.595
28525WAT     H285818   1.317   3.092   7.623
28526WAT      O85819   1.553   6.224   0.389
28526WAT     H185820   1.505   6.263   0.468
28526WAT     H285821   1.493   6.230   0.309
28527WAT      O85822   5.022   5.019   5.369
28527WAT     H185823   4.926   5.048   5.362
28527WAT     H285824   5.061   5.009   5.277
28528WAT      O85825   0.294   2.322   8.048
28528WAT     H185826   0.356   2.274   8.111
28528WAT     H285827   0.241   2.256   7.996
28529WAT      O85828   7.128   9.085   0.258
28529WAT     H185829   7.196   9.011   0.250
28529WAT     H285830   7.146   9.154   0.188
28530WAT      O85831   7.323   6.346   8.163
28530WAT     H185832   7.352   6.267   8.109
28530WAT     H285833   7.232   6.330   8.200
28531WAT      O85834   3.303   5.475   9.099
28531WAT     H185835   3.364   5.516   9.166
28531WAT     H285836   3.208   5.497   9.121
28532WAT      O85837   4.065   1.663   0.635
28532WAT     H185838   4.119   1.625   0.709
28532WAT     H285839   4.039   1.757   0.657
28533WAT      O85840   3.863   4.391   5.848
28533WAT     H185841   3.961   4.393   5.827
28533WAT     H285842   3.839   4.299   5.881
28534WAT      O85843   2.730   0.427   7.419
28534WAT     H185844   2.783   0.417   7.335
28534WAT     H285845   2.793   0.437   7.496
28535WAT      O85846   2.926   2.167   4.657
28535WAT     H185847   3.014   2.162   4.705
28535WAT     H285848   2.913   2.260   4.623
28536WAT      O85849   4.225   8.327   0.400
28536WAT     H185850   4.273   8.259   0.344
28536WAT     H285851   4.193   8.402   0.343
28537WAT      O85852   0.802   6.320   8.538
28537WAT     H185853   0.884   6.285   8.583
28537WAT     H285854   0.764   6.250   8.478
28538WAT      O85855   0.331   8.012   4.290
28538WAT     H185856   0.428   8.034   4.279
28538WAT     H285857   0.322   7.920   4.329
28539WAT      O85858   9.854   4.132   3.096
28539WAT     H185859   9.929   4.078   3.135
28539WAT     H285860   9.782   4.144   3.165
28540WAT      O85861   5.813   7.809   8.966
28540WAT     H185862   5.910   7.803   8.989
28540WAT     H285863   5.787   7.732   8.908
28541WAT      O85864   1.974   4.802   2.997
28541WAT     H185865   1.940   4.853   3.075
28541WAT     H285866   2.014   4.716   3.029
28542WAT      O85867   4.370   9.632   6.601
28542WAT     H185868   4.452   9.575   6.592
28542WAT     H285869   4.378   9.712   6.542
28543WAT      O85870   5.864   6.590   0.676
28543WAT     H185871   5.956   6.583   0.638
28543WAT     H285872   5.802   6.533   0.624
28544WAT      O85873   5.874   1.765   9.282
28544WAT     H185874   5.868   1.667   9.265
28544WAT     H285875   5.782   1.804   9.284
28545WAT      O85876   0.825   3.764   4.699
28545WAT     H185877   0.832   3.785   4.602
28545WAT     H285878   0.729   3.757   4.726
28546WAT      O85879   0.464   9.715   0.749
28546WAT     H185880   0.533   9.699   0.679
28546WAT     H285881   0.386   9.653   0.734
28547WAT      O85882   3.622   0.995   8.592
28547WAT     H185883   3.670   1.024   8.509
28547WAT     H285884   3.668   0.916   8.632
28548WAT      O85885   5.196   1.082   7.034
28548WAT     H185886   5.283   1.032   7.034
28548WAT     H285887   5.210   1.172   6.995
28549WAT      O85888   0.890   6.921   5.042
28549WAT     H185889   0.899   7.017   5.066
28549WAT     H285890   0.938   6.904   4.956
28550WAT      O85891   8.120   9.838   8.978
28550WAT     H185892   8.110   9.937   8.967
28550WAT     H285893   8.215   9.816   9.002
28551WAT      O85894   0.621   2.364   8.178
28551WAT     H185895   0.560   2.287   8.192
28551WAT     H285896   0.709   2.345   8.221
28552WAT      O85897   2.649   0.679   0.393
28552WAT     H185898   2.634   0.608   0.462
28552WAT     H285899   2.648   0.769   0.436
28553WAT      O85900   7.384   2.136   4.308
28553WAT     H185901   7.393   2.224   4.354
28553WAT     H285902   7.466   2.118   4.254
28554WAT      O85903   7.891   5.931   2.490
28554WAT     H185904   7.812   5.870   2.480
28554WAT     H285905   7.945   5.901   2.569
28555WAT      O85906   2.846   7.029   5.486
28555WAT     H185907   2.871   6.965   5.559
28555WAT     H285908   2.927   7.050   5.431
28556WAT      O85909   0.288   5.080   6.746
28556WAT     H185910   0.232   5.117   6.672
28556WAT     H285911   0.286   5.142   6.825
28557WAT      O85912   2.304   2.863   1.972
28557WAT     H185913   2.401   2.859   1.998
28557WAT     H285914   2.256   2.785   2.013
28558WAT      O85915   0.073   6.122   5.672
28558WAT     H185916   0.042   6.208   5.630
28558WAT     H285917   0.003   6.052   5.658
28559WAT      O85918   6.910   4.789   1.357
28559WAT     H185919   6.895   4.816   1.452
28559WAT     H285920   6.836   4.729   1.327
28560WAT      O85921   6.392   5.676   6.725
28560WAT     H185922   6.317   5.611   6.739
28560WAT     H285923   6.406   5.690   6.627
28561WAT      O85924   7.197   4.711   5.991
28561WAT     H185925   7.263   4.781   6.020
28561WAT     H285926   7.219   4.624   6.035
28562WAT      O85927   8.051   5.052   2.918
28562WAT     H185928   8.077   4.955   2.922
28562WAT     H285929   7.960   5.063   2.958
28563WAT      O85930   0.099   5.270   9.557
28563WAT     H185931   0.171   5.329   9.520
28563WAT     H285932   0.087   5.191   9.497
28564WAT      O85933   9.131   4.445   6.261
28564WAT     H185934   9.218   4.451   6.212
28564WAT     H285935   9.139   4.488   6.350
28565WAT      O85936   9.388   2.198   9.237
28565WAT     H185937   9.472   2.203   9.290
28565WAT     H285938   9.404   2.143   9.155
28566WAT      O85939   1.351   4.221   0.963
28566WAT     H185940   1.421   4.286   0.992
28566WAT     H285941   1.351   4.216   0.863
28567WAT      O85942   9.588   5.782   9.654
28567WAT     H185943   9.546   5.699   9.690
28567WAT     H285944   9.632   5.763   9.567
28568WAT      O85945   7.153   7.647   2.018
28568WAT     H185946   7.092   7.718   2.054
28568WAT     H285947   7.138   7.561   2.067
28569WAT      O85948   1.361   5.808   0.750
28569WAT     H185949   1.280   5.750   0.750
28569WAT     H285950   1.335   5.903   0.772
28570WAT      O85951   8.943   4.031   3.366
28570WAT     H185952   9.034   4.061   3.337
28570WAT     H285953   8.880   4.039   3.289
28571WAT      O85954   9.030   6.036   6.874
28571WAT     H185955   8.969   5.992   6.940
28571WAT     H285956   9.086   5.966   6.830
28572WAT      O85957   7.975   0.281   4.237
28572WAT     H185958   7.993   0.313   4.329
28572WAT     H285959   7.935   0.355   4.183
28573WAT      O85960   3.839   6.794   4.033
28573WAT     H185961   3.775   6.850   4.085
28573WAT     H285962   3.837   6.700   4.067
28574WAT      O85963   9.350   3.308   3.825
28574WAT     H185964   9.326   3.215   3.852
28574WAT     H285965   9.358   3.365   3.906
28575WAT      O85966   7.059   2.536   9.058
28575WAT     H185967   7.042   2.601   9.132
28575WAT     H285968   7.151   2.551   9.021
28576WAT      O85969   4.329   3.734   8.038
28576WAT     H185970   4.276   3.652   8.061
28576WAT     H285971   4.417   3.732   8.085
28577WAT      O85972   9.793   3.082   2.998
28577WAT     H185973   9.731   3.011   2.965
28577WAT     H285974   9.804   3.152   2.927
28578WAT      O85975   1.430   4.253   2.045
28578WAT     H185976   1.411   4.244   2.143
28578WAT     H285977   1.348   4.286   1.998
28579WAT      O85978   7.595   3.312   0.066
28579WAT     H185979   7.615   3.344   0.158
28579WAT     H285980   7.675   3.265   0.029
28580WAT      O85981   6.905   0.647   9.413
28580WAT     H185982   6.869   0.567   9.365
28580WAT     H285983   6.834   0.683   9.474
28581WAT      O85984   9.703   4.770   6.716
28581WAT     H185985   9.727   4.831   6.641
28581WAT     H285986   9.615   4.728   6.699
28582WAT      O85987   7.736   0.296   3.216
28582WAT     H185988   7.641   0.279   3.192
28582WAT     H285989   7.746   0.389   3.253
28583WAT      O85990   3.079   9.051   3.467
28583WAT     H185991   3.058   9.148   3.482
28583WAT     H285992   3.061   9.027   3.372
28584WAT      O85993   9.557   9.030   7.918
28584WAT     H185994   9.648   9.028   7.878
28584WAT     H285995   9.556   9.096   7.993
28585WAT      O85996   8.217   5.519   2.202
28585WAT     H185997   8.192   5.424   2.219
28585WAT     H285998   8.158   5.556   2.130
28586WAT      O85999   4.460   6.096   8.529
28586WAT     H186000   4.522   6.118   8.604
28586WAT     H286001   4.367   6.085   8.566
28587WAT      O86002   6.356   6.174   9.778
28587WAT     H186003   6.404   6.123   9.707
28587WAT     H286004   6.278   6.121   9.812
28588WAT      O86005   8.200   7.968   1.459
28588WAT     H186006   8.255   7.968   1.543
28588WAT     H286007   8.190   8.062   1.426
28589WAT      O86008   0.434   3.007   1.959
28589WAT     H186009   0.463   2.934   2.020
28589WAT     H286010   0.335   3.019   1.965
28590WAT      O86011   1.504   7.428   6.126
28590WAT     H186012   1.535   7.413   6.032
28590WAT     H286013   1.580   7.463   6.181
28591WAT      O86014   8.544   7.362   3.734
28591WAT     H186015   8.600   7.434   3.774
28591WAT     H286016   8.602   7.301   3.679
28592WAT      O86017   6.991   7.250   9.649
28592WAT     H186018   7.026   7.202   9.568
28592WAT     H286019   7.060   7.249   9.721
28593WAT      O86020   6.303   2.904   9.337
28593WAT     H186021   6.299   2.822   9.394
28593WAT     H286022   6.370   2.968   9.375
28594WAT      O86023   5.309   6.791   1.062
28594WAT     H186024   5.278   6.705   1.102
28594WAT     H286025   5.341   6.852   1.135
28595WAT      O86026   9.179   1.732   2.162
28595WAT     H186027   9.227   1.820   2.168
28595WAT     H286028   9.203   1.675   2.241
28596WAT      O86029   5.474   5.549   9.007
28596WAT     H186030   5.452   5.579   8.914
28596WAT     H286031   5.458   5.450   9.015
28597WAT      O86032   0.610   7.750   6.476
28597WAT     H186033   0.615   7.823   6.544
28597WAT     H286034   0.613   7.790   6.384
28598WAT      O86035   8.244   1.827   8.421
28598WAT     H186036   8.309   1.895   8.387
28598WAT     H286037   8.259   1.813   8.519
28599WAT      O86038   6.415   9.693   7.453
28599WAT     H186039   6.370   9.777   7.481
28599WAT     H286040   6.422   9.631   7.532
28600WAT      O86041   2.764   9.179   5.454
28600WAT     H186042   2.671   9.143   5.458
28600WAT     H286043   2.790   9.193   5.358
28601WAT      O86044   4.826   6.509   0.355
28601WAT     H186045   4.915   6.516   0.311
28601WAT     H286046   4.801   6.598   0.394
28602WAT      O86047   6.088   6.539   9.438
28602WAT     H186048   6.181   6.548   9.401
28602WAT     H286049   6.046   6.629   9.443
28603WAT      O86050   0.305   6.156   1.574
28603WAT     H186051   0.239   6.146   1.648
28603WAT     H286052   0.391   6.112   1.600
28604WAT      O86053   6.187   3.862   4.182
28604WAT     H186054   6.271   3.845   4.234
28604WAT     H286055   6.196   3.825   4.090
28605WAT      O86056   6.161   0.278   6.250
28605WAT     H186057   6.161   0.295   6.151
28605WAT     H286058   6.184   0.183   6.268
28606WAT      O86059   3.466   0.945   0.810
28606WAT     H186060   3.484   0.994   0.724
28606WAT     H286061   3.549   0.897   0.839
28607WAT      O86062   5.083   0.044   1.778
28607WAT     H186063   5.038   0.067   1.692
28607WAT     H286064   5.176   0.081   1.779
28608WAT      O86065   4.725   8.765   6.568
28608WAT     H186066   4.811   8.778   6.617
28608WAT     H286067   4.744   8.746   6.472
28609WAT      O86068   5.362   7.152   8.258
28609WAT     H186069   5.382   7.058   8.285
28609WAT     H286070   5.353   7.157   8.158
28610WAT      O86071   9.858   3.133   0.469
28610WAT     H186072   9.775   3.080   0.483
28610WAT     H286073   9.857   3.173   0.377
28611WAT      O86074   4.858   0.442   9.858
28611WAT     H186075   4.903   0.517   9.907
28611WAT     H286076   4.830   0.473   9.768
28612WAT      O86077   2.840   7.592   1.843
28612WAT     H186078   2.832   7.612   1.941
28612WAT     H286079   2.937   7.591   1.817
28613WAT      O86080   4.002   2.033   9.524
28613WAT     H186081   3.903   2.029   9.520
28613WAT     H286082   4.030   2.115   9.573
28614WAT      O86083   8.419   5.674   1.248
28614WAT     H186084   8.375   5.754   1.290
28614WAT     H286085   8.350   5.616   1.206
28615WAT      O86086   0.641   5.850   5.349
28615WAT     H186087   0.662   5.754   5.330
28615WAT     H286088   0.721   5.894   5.391
28616WAT      O86089   6.562   2.005   2.697
28616WAT     H186090   6.517   2.019   2.609
28616WAT     H286091   6.516   2.061   2.767
28617WAT      O86092   9.887   4.433   2.858
28617WAT     H186093   9.830   4.452   2.938
28617WAT     H286094   9.888   4.335   2.840
28618WAT      O86095   8.992   7.065   6.318
28618WAT     H186096   8.956   6.990   6.373
28618WAT     H286097   9.050   7.124   6.375
28619WAT      O86098   1.282   9.753   1.549
28619WAT     H186099   1.345   9.739   1.625
28619WAT     H286100   1.301   9.686   1.477
28620WAT      O86101   9.725   9.460   5.412
28620WAT     H186102   9.690   9.474   5.320
28620WAT     H286103   9.817   9.421   5.407
28621WAT      O86104   7.822   0.479   5.288
28621WAT     H186105   7.900   0.427   5.253
28621WAT     H286106   7.746   0.472   5.224
28622WAT      O86107   1.689   5.752   5.891
28622WAT     H186108   1.589   5.747   5.893
28622WAT     H286109   1.720   5.820   5.957
28623WAT      O86110   1.871   0.469   6.269
28623WAT     H186111   1.886   0.384   6.219
28623WAT     H286112   1.837   0.539   6.206
28624WAT      O86113   0.830   9.832   7.905
28624WAT     H186114   0.919   9.856   7.945
28624WAT     H286115   0.838   9.744   7.858
28625WAT      O86116   5.246   1.112   8.605
28625WAT     H186117   5.180   1.112   8.531
28625WAT     H286118   5.334   1.078   8.572
28626WAT      O86119   2.628   9.422   8.865
28626WAT     H186120   2.727   9.438   8.870
28626WAT     H286121   2.599   9.366   8.942
28627WAT      O86122   9.156   6.433   7.849
28627WAT     H186123   9.189   6.507   7.790
28627WAT     H286124   9.192   6.446   7.942
28628WAT      O86125   8.352   0.649   3.284
28628WAT     H186126   8.402   0.605   3.210
28628WAT     H286127   8.348   0.748   3.267
28629WAT      O86128   8.444   4.487   4.742
28629WAT     H186129   8.508   4.508   4.816
28629WAT     H286130   8.472   4.534   4.659
28630WAT      O86131   7.518   8.392   4.087
28630WAT     H186132   7.594   8.382   4.151
28630WAT     H286133   7.552   8.397   3.994
28631WAT      O86134   0.641   6.760   6.149
28631WAT     H186135   0.734   6.798   6.156
28631WAT     H286136   0.587   6.814   6.085
28632WAT      O86137   4.567   3.101   6.058
28632WAT     H186138   4.501   3.113   5.983
28632WAT     H286139   4.572   3.187   6.110
28633WAT      O86140   2.568   1.052   2.051
28633WAT     H186141   2.581   0.970   2.106
28633WAT     H286142   2.639   1.056   1.980
28634WAT      O86143   8.592   1.549   6.670
28634WAT     H186144   8.526   1.485   6.631
28634WAT     H286145   8.684   1.510   6.663
28635WAT      O86146   3.049   9.621   7.629
28635WAT     H186147   3.092   9.601   7.718
28635WAT     H286148   3.056   9.541   7.570
28636WAT      O86149   6.945   7.609   6.244
28636WAT     H186150   7.021   7.670   6.222
28636WAT     H286151   6.929   7.547   6.167
28637WAT      O86152   4.870   8.189   5.961
28637WAT     H186153   4.946   8.153   5.907
28637WAT     H286154   4.896   8.190   6.058
28638WAT      O86155   8.568   3.252   5.864
28638WAT     H186156   8.490   3.192   5.844
28638WAT     H286157   8.554   3.296   5.953
28639WAT      O86158   6.527   5.399   3.168
28639WAT     H186159   6.474   5.450   3.101
28639WAT     H286160   6.487   5.411   3.259
28640WAT      O86161   2.358   1.080   0.991
28640WAT     H186162   2.366   0.981   1.008
28640WAT     H286163   2.279   1.116   1.041
28641WAT      O86164   6.553   2.414   8.277
28641WAT     H186165   6.549   2.348   8.202
28641WAT     H286166   6.546   2.366   8.364
28642WAT      O86167   6.714   9.410   3.507
28642WAT     H186168   6.782   9.473   3.469
28642WAT     H286169   6.751   9.318   3.508
28643WAT      O86170   7.894   5.869   9.145
28643WAT     H186171   7.909   5.899   9.051
28643WAT     H286172   7.802   5.895   9.173
28644WAT      O86173   0.689   4.504   5.953
28644WAT     H186174   0.747   4.566   5.899
28644WAT     H286175   0.723   4.410   5.944
28645WAT      O86176   7.516   8.459   3.526
28645WAT     H186177   7.500   8.557   3.511
28645WAT     H286178   7.430   8.410   3.519
28646WAT      O86179   3.374   7.167   8.831
28646WAT     H186180   3.388   7.120   8.919
28646WAT     H286181   3.455   7.154   8.774
28647WAT      O86182   9.711   4.305   6.993
28647WAT     H186183   9.768   4.231   6.957
28647WAT     H286184   9.623   4.305   6.947
28648WAT      O86185   0.602   8.556   2.963
28648WAT     H186186   0.680   8.542   3.023
28648WAT     H286187   0.612   8.497   2.882
28649WAT      O86188   6.163   7.100   7.098
28649WAT     H186189   6.146   7.195   7.127
28649WAT     H286190   6.239   7.097   7.034
28650WAT      O86191   1.864   6.339   2.285
28650WAT     H186192   1.882   6.248   2.323
28650WAT     H286193   1.780   6.376   2.326
28651WAT      O86194   8.638   1.289   0.305
28651WAT     H186195   8.647   1.285   0.205
28651WAT     H286196   8.545   1.264   0.331
28652WAT      O86197   5.759   1.020   8.632
28652WAT     H186198   5.692   1.018   8.706
28652WAT     H286199   5.720   1.067   8.553
28653WAT      O86200   2.393   0.102   8.418
28653WAT     H186201   2.457   0.148   8.356
28653WAT     H286202   2.439   0.080   8.504
28654WAT      O86203   9.032   1.401   2.245
28654WAT     H186204   8.932   1.407   2.233
28654WAT     H286205   9.057   1.440   2.333
28655WAT      O86206   6.405   6.902   6.077
28655WAT     H186207   6.393   6.888   6.176
28655WAT     H286208   6.326   6.864   6.028
28656WAT      O86209   6.755   9.780   6.667
28656WAT     H186210   6.722   9.758   6.758
28656WAT     H286211   6.794   9.872   6.667
28657WAT      O86212   8.630   5.663   2.691
28657WAT     H186213   8.639   5.612   2.777
28657WAT     H286214   8.681   5.749   2.698
28658WAT      O86215   8.527   2.461   8.057
28658WAT     H186216   8.486   2.419   8.138
28658WAT     H286217   8.619   2.425   8.044
28659WAT      O86218   5.274   1.799   2.948
28659WAT     H186219   5.224   1.718   2.979
28659WAT     H286220   5.338   1.827   3.019
28660WAT      O86221   3.014   4.828   8.274
28660WAT     H186222   2.984   4.754   8.214
28660WAT     H286223   2.958   4.828   8.358
28661WAT      O86224   3.755   9.664   9.456
28661WAT     H186225   3.655   9.663   9.466
28661WAT     H286226   3.797   9.686   9.544
28662WAT      O86227   0.392   4.659   4.538
28662WAT     H186228   0.462   4.634   4.472
28662WAT     H286229   0.432   4.664   4.630
28663WAT      O86230   0.694   5.256   4.091
28663WAT     H186231   0.658   5.198   4.018
28663WAT     H286232   0.786   5.288   4.065
28664WAT      O86233   1.907   4.045   9.853
28664WAT     H186234   1.919   3.981   9.777
28664WAT     H286235   1.947   4.006   9.936
28665WAT      O86236   3.507   0.139   6.731
28665WAT     H186237   3.437   0.086   6.683
28665WAT     H286238   3.479   0.235   6.736
28666WAT      O86239   5.916   0.440   5.864
28666WAT     H186240   5.900   0.536   5.887
28666WAT     H286241   5.919   0.430   5.764
28667WAT      O86242   8.254   2.152   9.733
28667WAT     H186243   8.320   2.135   9.659
28667WAT     H286244   8.247   2.250   9.750
28668WAT      O86245   5.314   3.708   3.331
28668WAT     H186246   5.229   3.688   3.380
28668WAT     H286247   5.300   3.691   3.233
28669WAT      O86248   6.035   6.759   8.932
28669WAT     H186249   6.111   6.811   8.893
28669WAT     H286250   6.041   6.760   9.032
28670WAT      O86251   6.373   9.419   0.337
28670WAT     H186252   6.401   9.355   0.265
28670WAT     H286253   6.437   9.495   0.341
28671WAT      O86254   1.832   5.849   3.510
28671WAT     H186255   1.764   5.793   3.463
28671WAT     H286256   1.801   5.869   3.603
28672WAT      O86257   3.330   9.677   5.324
28672WAT     H186258   3.375   9.618   5.258
28672WAT     H286259   3.339   9.773   5.294
28673WAT      O86260   8.703   2.311   6.272
28673WAT     H186261   8.670   2.223   6.306
28673WAT     H286262   8.787   2.336   6.320
28674WAT      O86263   5.263   0.177   4.256
28674WAT     H186264   5.359   0.200   4.272
28674WAT     H286265   5.258   0.093   4.202
28675WAT      O86266   6.268   0.663   8.547
28675WAT     H186267   6.253   0.672   8.449
28675WAT     H286268   6.307   0.748   8.583
28676WAT      O86269   2.701   4.153   9.178
28676WAT     H186270   2.766   4.107   9.239
28676WAT     H286271   2.646   4.085   9.130
28677WAT      O86272   7.748   8.236   2.991
28677WAT     H186273   7.825   8.198   3.042
28677WAT     H286274   7.663   8.216   3.040
28678WAT      O86275   4.512   2.607   5.660
28678WAT     H186276   4.529   2.585   5.563
28678WAT     H286277   4.462   2.533   5.703
28679WAT      O86278   1.399   1.882   9.519
28679WAT     H186279   1.457   1.845   9.446
28679WAT     H286280   1.326   1.816   9.540
28680WAT      O86281   8.481   3.563   0.686
28680WAT     H186282   8.511   3.474   0.652
28680WAT     H286283   8.381   3.567   0.687
28681WAT      O86284   9.319   2.030   3.998
28681WAT     H186285   9.396   2.011   3.937
28681WAT     H286286   9.313   1.957   4.067
28682WAT      O86287   2.919   5.348   4.989
28682WAT     H186288   2.857   5.397   4.928
28682WAT     H286289   3.013   5.374   4.968
28683WAT      O86290   4.077   9.360   1.897
28683WAT     H186291   4.148   9.415   1.940
28683WAT     H286292   4.114   9.271   1.872
28684WAT      O86293   7.489   6.788   7.718
28684WAT     H186294   7.550   6.769   7.795
28684WAT     H286295   7.539   6.836   7.647
28685WAT      O86296   9.441   0.917   8.169
28685WAT     H186297   9.374   0.929   8.243
28685WAT     H286298   9.506   0.992   8.170
28686WAT      O86299   7.504   0.583   8.926
28686WAT     H186300   7.555   0.534   8.854
28686WAT     H286301   7.542   0.675   8.936
28687WAT      O86302   1.319   9.697   3.945
28687WAT     H186303   1.223   9.668   3.950
28687WAT     H286304   1.341   9.755   4.023
28688WAT      O86305   0.736   2.798   5.562
28688WAT     H186306   0.702   2.869   5.623
28688WAT     H286307   0.796   2.736   5.613
28689WAT      O86308   2.232   0.843   5.952
28689WAT     H186309   2.255   0.799   5.866
28689WAT     H286310   2.297   0.816   6.023
28690WAT      O86311   7.193   4.372   9.153
28690WAT     H186312   7.161   4.383   9.059
28690WAT     H286313   7.288   4.404   9.159
28691WAT      O86314   9.557   8.201   1.214
28691WAT     H186315   9.488   8.144   1.170
28691WAT     H286316   9.513   8.260   1.281
28692WAT      O86317   4.445   2.151   6.399
28692WAT     H186318   4.521   2.152   6.334
28692WAT     H286319   4.439   2.060   6.441
28693WAT      O86320   1.258   3.288   0.521
28693WAT     H186321   1.289   3.309   0.428
28693WAT     H286322   1.161   3.264   0.518
28694WAT      O86323   2.323   8.098   7.897
28694WAT     H186324   2.244   8.040   7.913
28694WAT     H286325   2.363   8.125   7.985
28695WAT      O86326   3.778   4.989   9.143
28695WAT     H186327   3.680   4.989   9.122
28695WAT     H286328   3.809   5.083   9.155
28696WAT      O86329   0.746   8.817   0.891
28696WAT     H186330   0.777   8.772   0.807
28696WAT     H286331   0.709   8.748   0.954
28697WAT      O86332   0.906   8.513   0.078
28697WAT     H186333   0.813   8.547   0.090
28697WAT     H286334   0.965   8.586   0.043
28698WAT      O86335   1.451   6.283   7.267
28698WAT     H186336   1.394   6.239   7.336
28698WAT     H286337   1.481   6.372   7.300
28699WAT      O86338   3.812   0.334   7.750
28699WAT     H186339   3.841   0.386   7.830
28699WAT     H286340   3.892   0.305   7.697
28700WAT      O86341   4.700   9.222   7.048
28700WAT     H186342   4.732   9.278   6.972
28700WAT     H286343   4.659   9.138   7.013
28701WAT      O86344   5.793   2.699   9.441
28701WAT     H186345   5.745   2.686   9.528
28701WAT     H286346   5.726   2.715   9.368
28702WAT      O86347   3.820   2.659   7.519
28702WAT     H186348   3.902   2.606   7.542
28702WAT     H286349   3.848   2.751   7.489
28703WAT      O86350   8.165   1.223   5.427
28703WAT     H186351   8.087   1.281   5.452
28703WAT     H286352   8.237   1.234   5.495
28704WAT      O86353   6.880   7.548   2.226
28704WAT     H186354   6.856   7.475   2.162
28704WAT     H286355   6.884   7.635   2.177
28705WAT      O86356   9.729   3.384   9.213
28705WAT     H186357   9.673   3.405   9.293
28705WAT     H286358   9.673   3.334   9.146
28706WAT      O86359   5.498   8.872   7.454
28706WAT     H186360   5.427   8.828   7.398
28706WAT     H286361   5.461   8.955   7.494
28707WAT      O86362   1.524   9.846   1.091
28707WAT     H186363   1.519   9.747   1.109
28707WAT     H286364   1.433   9.880   1.065
28708WAT      O86365   7.550   8.199   2.070
28708WAT     H186366   7.553   8.172   2.166
28708WAT     H286367   7.481   8.145   2.022
28709WAT      O86368   3.709   5.314   7.355
28709WAT     H186369   3.809   5.321   7.361
28709WAT     H286370   3.684   5.227   7.313
28710WAT      O86371   2.603   2.648   5.379
28710WAT     H186372   2.635   2.742   5.386
28710WAT     H286373   2.517   2.639   5.430
28711WAT      O86374   8.598   3.942   9.612
28711WAT     H186375   8.551   3.969   9.528
28711WAT     H286376   8.668   3.873   9.590
28712WAT      O86377   6.407   7.364   1.360
28712WAT     H186378   6.430   7.418   1.441
28712WAT     H286379   6.429   7.268   1.376
28713WAT      O86380   4.057   7.497   1.404
28713WAT     H186381   4.003   7.451   1.475
28713WAT     H286382   4.104   7.576   1.444
28714WAT      O86383   8.551   5.026   6.330
28714WAT     H186384   8.507   5.057   6.414
28714WAT     H286385   8.504   4.945   6.295
28715WAT      O86386   3.972   5.932   7.374
28715WAT     H186387   3.879   5.961   7.352
28715WAT     H286388   4.014   5.891   7.294
28716WAT      O86389   1.734   9.709   7.598
28716WAT     H186390   1.798   9.682   7.670
28716WAT     H286391   1.641   9.681   7.623
28717WAT      O86392   2.831   5.566   6.680
28717WAT     H186393   2.820   5.471   6.651
28717WAT     H286394   2.926   5.593   6.668
28718WAT      O86395   5.944   2.226   5.946
28718WAT     H186396   5.885   2.147   5.958
28718WAT     H286397   5.932   2.264   5.855
28719WAT      O86398   5.969   8.011   2.356
28719WAT     H186399   5.962   7.980   2.261
28719WAT     H286400   5.992   7.934   2.415
28720WAT      O86401   6.021   8.380   7.833
28720WAT     H186402   5.990   8.286   7.844
28720WAT     H286403   6.109   8.391   7.879
28721WAT      O86404   5.888   5.413   2.544
28721WAT     H186405   5.795   5.442   2.566
28721WAT     H286406   5.926   5.362   2.622
28722WAT      O86407   9.373   7.144   0.052
28722WAT     H186408   9.423   7.159  -0.033
28722WAT     H286409   9.286   7.194   0.048
28723WAT      O86410   1.138   8.632   5.609
28723WAT     H186411   1.107   8.663   5.699
28723WAT     H286412   1.174   8.710   5.557
28724WAT      O86413   5.456   8.029   7.149
28724WAT     H186414   5.379   8.089   7.128
28724WAT     H286415   5.477   7.972   7.070
28725WAT      O86416   5.252   6.989   6.442
28725WAT     H186417   5.329   6.972   6.382
28725WAT     H286418   5.226   6.904   6.489
28726WAT      O86419   3.531   9.371   4.227
28726WAT     H186420   3.560   9.308   4.155
28726WAT     H286421   3.588   9.357   4.308
28727WAT      O86422   5.588   4.048   2.706
28727WAT     H186423   5.658   4.110   2.670
28727WAT     H286424   5.533   4.013   2.631
28728WAT      O86425   7.398   0.020   6.876
28728WAT     H186426   7.394   0.028   6.976
28728WAT     H286427   7.488   0.049   6.844
28729WAT      O86428   4.672   4.983   9.237
28729WAT     H186429   4.754   4.947   9.193
28729WAT     H286430   4.591   4.939   9.198
28730WAT      O86431   1.769   2.065   9.301
28730WAT     H186432   1.718   1.988   9.339
28730WAT     H286433   1.827   2.032   9.226
28731WAT      O86434   9.676   3.529   3.177
28731WAT     H186435   9.713   3.436   3.180
28731WAT     H286436   9.576   3.525   3.177
28732WAT      O86437   1.214   8.101   8.885
28732WAT     H186438   1.290   8.157   8.918
28732WAT     H286439   1.188   8.035   8.955
28733WAT      O86440   6.163   3.231   7.122
28733WAT     H186441   6.140   3.144   7.166
28733WAT     H286442   6.129   3.230   7.028
28734WAT      O86443   1.968   0.748   6.107
28734WAT     H186444   1.993   0.809   6.032
28734WAT     H286445   1.898   0.684   6.075
28735WAT      O86446   1.439   8.482   7.023
28735WAT     H186447   1.465   8.550   7.092
28735WAT     H286448   1.423   8.394   7.068
28736WAT      O86449   0.044   5.560   6.487
28736WAT     H186450   0.081   5.602   6.404
28736WAT     H286451  -0.044   5.519   6.466
28737WAT      O86452   9.461   5.303   0.338
28737WAT     H186453   9.406   5.387   0.338
28737WAT     H286454   9.403   5.225   0.318
28738WAT      O86455   3.346   1.505   2.615
28738WAT     H186456   3.426   1.497   2.675
28738WAT     H286457   3.284   1.574   2.652
28739WAT      O86458   8.246   1.324   4.462
28739WAT     H186459   8.255   1.343   4.559
28739WAT     H286460   8.310   1.383   4.411
28740WAT      O86461   2.055   5.358   3.999
28740WAT     H186462   2.086   5.436   3.945
28740WAT     H286463   1.960   5.372   4.027
28741WAT      O86464   1.037   0.158   5.647
28741WAT     H186465   1.006   0.253   5.647
28741WAT     H286466   0.959   0.097   5.660
28742WAT      O86467   5.725   3.860   1.964
28742WAT     H186468   5.712   3.958   1.948
28742WAT     H286469   5.822   3.842   1.978
28743WAT      O86470   0.197   6.333   5.886
28743WAT     H186471   0.233   6.240   5.879
28743WAT     H286472   0.098   6.330   5.898
28744WAT      O86473   4.228   1.674   0.419
28744WAT     H186474   4.158   1.693   0.488
28744WAT     H286475   4.193   1.607   0.354
28745WAT      O86476   8.567   2.681   3.992
28745WAT     H186477   8.649   2.681   4.049
28745WAT     H286478   8.584   2.735   3.909
28746WAT      O86479   8.505   7.726   1.181
28746WAT     H186480   8.436   7.695   1.247
28746WAT     H286481   8.460   7.755   1.097
28747WAT      O86482   3.790   3.438   5.541
28747WAT     H186483   3.700   3.418   5.504
28747WAT     H286484   3.852   3.463   5.466
28748WAT      O86485   9.857   6.276   1.010
28748WAT     H186486   9.935   6.307   0.955
28748WAT     H286487   9.831   6.349   1.073
28749WAT      O86488   3.565   3.396   8.574
28749WAT     H186489   3.599   3.305   8.599
28749WAT     H286490   3.518   3.391   8.486
28750WAT      O86491   0.755   1.241   2.974
28750WAT     H186492   0.849   1.248   3.005
28750WAT     H286493   0.753   1.233   2.874
28751WAT      O86494   0.246   6.756   3.432
28751WAT     H186495   0.317   6.706   3.481
28751WAT     H286496   0.288   6.806   3.355
28752WAT      O86497   2.361   2.523   3.125
28752WAT     H186498   2.417   2.592   3.171
28752WAT     H286499   2.265   2.535   3.151
28753WAT      O86500   6.616   5.911   5.118
28753WAT     H186501   6.602   5.949   5.209
28753WAT     H286502   6.560   5.961   5.051
28754WAT      O86503   2.801   5.511   2.070
28754WAT     H186504   2.899   5.509   2.053
28754WAT     H286505   2.777   5.596   2.117
28755WAT      O86506   7.527   3.363   2.022
28755WAT     H186507   7.608   3.334   2.073
28755WAT     H286508   7.556   3.409   1.938
28756WAT      O86509   1.610   3.688   0.372
28756WAT     H186510   1.510   3.679   0.369
28756WAT     H286511   1.648   3.611   0.425
28757WAT      O86512   1.148   5.188   4.497
28757WAT     H186513   1.187   5.199   4.588
28757WAT     H286514   1.128   5.279   4.459
28758WAT      O86515   8.010   8.914   1.901
28758WAT     H186516   7.996   9.012   1.887
28758WAT     H286517   7.922   8.866   1.898
28759WAT      O86518   8.318   6.496   4.881
28759WAT     H186519   8.315   6.396   4.878
28759WAT     H286520   8.349   6.525   4.972
28760WAT      O86521   5.370   4.291   0.831
28760WAT     H186522   5.302   4.362   0.848
28760WAT     H286523   5.328   4.201   0.847
28761WAT      O86524   2.531   8.357   7.961
28761WAT     H186525   2.533   8.265   8.000
28761WAT     H286526   2.537   8.352   7.861
28762WAT      O86527   7.482   4.864   2.722
28762WAT     H186528   7.415   4.880   2.649
28762WAT     H286529   7.435   4.865   2.810
28763WAT      O86530   2.838   7.040   4.306
28763WAT     H186531   2.917   6.986   4.333
28763WAT     H286532   2.868   7.132   4.279
28764WAT      O86533   3.027   7.095   2.122
28764WAT     H186534   2.950   7.157   2.104
28764WAT     H286535   2.992   7.002   2.132
28765WAT      O86536   5.581   3.279   1.283
28765WAT     H186537   5.554   3.320   1.196
28765WAT     H286538   5.681   3.275   1.289
28766WAT      O86539   6.121   9.110   4.736
28766WAT     H186540   6.183   9.159   4.796
28766WAT     H286541   6.062   9.050   4.790
28767WAT      O86542   8.867   0.058   1.485
28767WAT     H186543   8.854   0.122   1.561
28767WAT     H286544   8.946   0.086   1.431
28768WAT      O86545   2.855   9.498   3.974
28768WAT     H186546   2.793   9.566   4.013
28768WAT     H286547   2.848   9.500   3.874
28769WAT      O86548   5.412   0.022   9.849
28769WAT     H186549   5.357   0.104   9.865
28769WAT     H286550   5.393  -0.045   9.921
28770WAT      O86551   4.580   3.377   0.072
28770WAT     H186552   4.657   3.420   0.120
28770WAT     H286553   4.563   3.287   0.111
28771WAT      O86554   8.178   9.163   2.514
28771WAT     H186555   8.111   9.094   2.486
28771WAT     H286556   8.154   9.199   2.604
28772WAT      O86557   4.035   0.668   6.422
28772WAT     H186558   4.133   0.652   6.424
28772WAT     H286559   3.996   0.650   6.513
28773WAT      O86560   3.635   0.356   2.723
28773WAT     H186561   3.695   0.433   2.703
28773WAT     H286562   3.687   0.271   2.720
28774WAT      O86563   6.423   1.085   5.012
28774WAT     H186564   6.437   1.135   4.926
28774WAT     H286565   6.340   1.119   5.057
28775WAT      O86566   3.308   1.590   6.353
28775WAT     H186567   3.208   1.589   6.341
28775WAT     H286568   3.336   1.678   6.392
28776WAT      O86569   8.694   3.989   5.831
28776WAT     H186570   8.621   3.923   5.849
28776WAT     H286571   8.706   3.999   5.733
28777WAT      O86572   2.784   8.977   9.121
28777WAT     H186573   2.853   9.023   9.177
28777WAT     H286574   2.758   9.037   9.044
28778WAT      O86575   1.027   9.541   1.437
28778WAT     H186576   1.119   9.520   1.404
28778WAT     H286577   0.992   9.621   1.388
28779WAT      O86578   7.695   7.935   6.275
28779WAT     H186579   7.637   7.920   6.355
28779WAT     H286580   7.771   7.869   6.277
28780WAT      O86581   3.813   5.483   0.604
28780WAT     H186582   3.736   5.481   0.668
28780WAT     H286583   3.820   5.395   0.559
28781WAT      O86584   7.464   2.970   5.129
28781WAT     H186585   7.537   2.960   5.062
28781WAT     H286586   7.464   2.891   5.190
28782WAT      O86587   5.870   5.564   1.951
28782WAT     H186588   5.930   5.492   1.918
28782WAT     H286589   5.848   5.626   1.876
28783WAT      O86590   2.186   6.057   6.191
28783WAT     H186591   2.271   6.099   6.226
28783WAT     H286592   2.209   5.988   6.123
28784WAT      O86593   2.314   6.249   6.712
28784WAT     H186594   2.290   6.272   6.618
28784WAT     H286595   2.366   6.324   6.753
28785WAT      O86596   2.952   1.910   6.410
28785WAT     H186597   2.895   1.992   6.414
28785WAT     H286598   3.021   1.913   6.483
28786WAT      O86599   4.387   6.180   2.140
28786WAT     H186600   4.479   6.217   2.135
28786WAT     H286601   4.339   6.220   2.219
28787WAT      O86602   6.261   0.542   1.402
28787WAT     H186603   6.186   0.608   1.402
28787WAT     H286604   6.293   0.527   1.495
28788WAT      O86605   9.264   7.405   7.965
28788WAT     H186606   9.349   7.405   8.017
28788WAT     H286607   9.246   7.313   7.930
28789WAT      O86608   3.194   3.757   8.166
28789WAT     H186609   3.132   3.739   8.242
28789WAT     H286610   3.193   3.855   8.145
28790WAT      O86611   5.063   3.452   3.245
28790WAT     H186612   5.051   3.535   3.190
28790WAT     H286613   4.991   3.447   3.314
28791WAT      O86614   7.793   5.222   0.533
28791WAT     H186615   7.801   5.321   0.526
28791WAT     H286616   7.850   5.189   0.609
28792WAT      O86617   5.643   3.697   0.045
28792WAT     H186618   5.623   3.716  -0.051
28792WAT     H286619   5.736   3.662   0.053
28793WAT      O86620   9.296   8.799   0.447
28793WAT     H186621   9.382   8.779   0.493
28793WAT     H286622   9.221   8.797   0.514
28794WAT      O86623   1.405   5.358   4.916
28794WAT     H186624   1.434   5.322   5.004
28794WAT     H286625   1.486   5.385   4.863
28795WAT      O86626   6.850   8.540   9.291
28795WAT     H186627   6.784   8.603   9.332
28795WAT     H286628   6.802   8.460   9.254
28796WAT      O86629   5.118   7.430   5.016
28796WAT     H186630   5.108   7.530   5.024
28796WAT     H286631   5.187   7.410   4.946
28797WAT      O86632   1.137   0.112   9.584
28797WAT     H186633   1.196   0.032   9.570
28797WAT     H286634   1.047   0.094   9.544
28798WAT      O86635   4.724   6.636   6.338
28798WAT     H186636   4.683   6.557   6.382
28798WAT     H286637   4.658   6.711   6.334
28799WAT      O86638   6.087   9.262   9.199
28799WAT     H186639   6.128   9.338   9.249
28799WAT     H286640   6.035   9.204   9.263
28800WAT      O86641   9.478   5.544   9.745
28800WAT     H186642   9.421   5.546   9.827
28800WAT     H286643   9.540   5.466   9.750
28801WAT      O86644   9.135   6.798   7.590
28801WAT     H186645   9.233   6.807   7.608
28801WAT     H286646   9.084   6.858   7.651
28802WAT      O86647   8.578   7.647   8.569
28802WAT     H186648   8.535   7.619   8.655
28802WAT     H286649   8.656   7.707   8.590
28803WAT      O86650   6.508   9.594   3.614
28803WAT     H186651   6.556   9.642   3.687
28803WAT     H286652   6.573   9.539   3.561
28804WAT      O86653   2.907   3.354   9.402
28804WAT     H186654   3.000   3.339   9.436
28804WAT     H286655   2.843   3.346   9.478
28805WAT      O86656   2.467   8.878   4.862
28805WAT     H186657   2.422   8.829   4.936
28805WAT     H286658   2.468   8.822   4.779
28806WAT      O86659   2.333   8.958   6.890
28806WAT     H186660   2.236   8.952   6.913
28806WAT     H286661   2.386   8.902   6.955
28807WAT      O86662   1.835   9.123   5.465
28807WAT     H186663   1.925   9.161   5.445
28807WAT     H286664   1.767   9.196   5.462
28808WAT      O86665   9.870   3.670   0.264
28808WAT     H186666   9.900   3.766   0.262
28808WAT     H286667   9.919   3.622   0.337
28809WAT      O86668   9.439   8.007   3.706
28809WAT     H186669   9.454   7.925   3.761
28809WAT     H286670   9.421   7.981   3.611
28810WAT      O86671   4.746   9.710   6.687
28810WAT     H186672   4.717   9.780   6.621
28810WAT     H286673   4.707   9.622   6.661
28811WAT      O86674   2.604   7.164   0.284
28811WAT     H186675   2.585   7.070   0.311
28811WAT     H286676   2.653   7.211   0.358
28812WAT      O86677   4.741   6.124   6.268
28812WAT     H186678   4.642   6.125   6.277
28812WAT     H286679   4.769   6.049   6.209
28813WAT      O86680   7.801   3.969   2.541
28813WAT     H186681   7.767   3.877   2.522
28813WAT     H286682   7.739   4.036   2.499
28814WAT      O86683   4.412   4.361   9.536
28814WAT     H186684   4.348   4.378   9.611
28814WAT     H286685   4.363   4.369   9.449
28815WAT      O86686   0.199   3.472   6.681
28815WAT     H186687   0.279   3.524   6.711
28815WAT     H286688   0.224   3.376   6.670
28816WAT      O86689   7.576   4.374   0.593
28816WAT     H186690   7.519   4.368   0.511
28816WAT     H286691   7.616   4.285   0.613
28817WAT      O86692   0.264   0.122   0.843
28817WAT     H186693   0.307   0.065   0.773
28817WAT     H286694   0.229   0.206   0.800
28818WAT      O86695   6.274   7.800   1.245
28818WAT     H186696   6.316   7.882   1.283
28818WAT     H286697   6.345   7.736   1.215
28819WAT      O86698   4.510   5.798   9.504
28819WAT     H186699   4.443   5.866   9.535
28819WAT     H286700   4.547   5.749   9.583
28820WAT      O86701   7.429   9.759   3.777
28820WAT     H186702   7.459   9.704   3.699
28820WAT     H286703   7.358   9.823   3.746
28821WAT      O86704   7.424   2.420   8.725
28821WAT     H186705   7.478   2.380   8.800
28821WAT     H286706   7.486   2.458   8.656
28822WAT      O86707   5.789   2.108   0.228
28822WAT     H186708   5.819   2.195   0.187
28822WAT     H286709   5.718   2.067   0.171
28823WAT      O86710   2.801   8.637   4.171
28823WAT     H186711   2.761   8.621   4.080
28823WAT     H286712   2.899   8.649   4.162
28824WAT      O86713   2.577   3.207   7.197
28824WAT     H186714   2.590   3.237   7.292
28824WAT     H286715   2.655   3.238   7.142
28825WAT      O86716   4.467   1.104   0.885
28825WAT     H186717   4.530   1.175   0.918
28825WAT     H286718   4.520   1.027   0.848
28826WAT      O86719   3.920   5.440   7.867
28826WAT     H186720   3.856   5.384   7.920
28826WAT     H286721   3.888   5.445   7.772
28827WAT      O86722   3.600   0.387   2.990
28827WAT     H186723   3.631   0.375   2.896
28827WAT     H286724   3.679   0.403   3.049
28828WAT      O86725   6.269   3.762   8.554
28828WAT     H186726   6.327   3.834   8.594
28828WAT     H286727   6.187   3.804   8.516
28829WAT      O86728   3.429   7.689   6.979
28829WAT     H186729   3.423   7.665   6.882
28829WAT     H286730   3.525   7.702   7.004
28830WAT      O86731   5.631   7.495   1.082
28830WAT     H186732   5.649   7.523   0.988
28830WAT     H286733   5.543   7.532   1.112
28831WAT      O86734   9.674   1.203   2.999
28831WAT     H186735   9.732   1.123   3.018
28831WAT     H286736   9.730   1.285   3.000
28832WAT      O86737   2.551   2.015   0.767
28832WAT     H186738   2.645   2.006   0.735
28832WAT     H286739   2.518   1.927   0.799
28833WAT      O86740   6.145   4.330   4.961
28833WAT     H186741   6.067   4.355   5.018
28833WAT     H286742   6.153   4.394   4.884
28834WAT      O86743   5.856   5.294   2.160
28834WAT     H186744   5.807   5.244   2.089
28834WAT     H286745   5.798   5.369   2.194
28835WAT      O86746   3.931   9.563   3.558
28835WAT     H186747   3.953   9.603   3.469
28835WAT     H286748   3.992   9.486   3.576
28836WAT      O86749   7.279   7.349   1.381
28836WAT     H186750   7.323   7.297   1.309
28836WAT     H286751   7.316   7.322   1.470
28837WAT      O86752   9.357   6.107   6.276
28837WAT     H186753   9.279   6.061   6.232
28837WAT     H286754   9.371   6.068   6.367
28838WAT      O86755   7.614   2.123   4.181
28838WAT     H186756   7.637   2.045   4.123
28838WAT     H286757   7.697   2.175   4.201
28839WAT      O86758   1.538   8.353   5.757
28839WAT     H186759   1.443   8.380   5.768
28839WAT     H286760   1.544   8.281   5.688
28840WAT      O86761   4.733   6.611   2.954
28840WAT     H186762   4.770   6.578   3.041
28840WAT     H286763   4.779   6.696   2.928
28841WAT      O86764   5.774   5.440   3.042
28841WAT     H186765   5.730   5.354   3.018
28841WAT     H286766   5.799   5.489   2.958
28842WAT      O86767   2.596   1.316   2.109
28842WAT     H186768   2.693   1.305   2.128
28842WAT     H286769   2.549   1.228   2.118
28843WAT      O86770   1.948   2.125   9.833
28843WAT     H186771   1.905   2.194   9.775
28843WAT     H286772   1.985   2.051   9.776
28844WAT      O86773   4.433   2.552   5.099
28844WAT     H186774   4.453   2.632   5.155
28844WAT     H286775   4.337   2.527   5.108
28845WAT      O86776   3.194   8.053   2.218
28845WAT     H186777   3.097   8.071   2.237
28845WAT     H286778   3.234   8.133   2.174
28846WAT      O86779   0.881   5.415   5.641
28846WAT     H186780   0.855   5.440   5.734
28846WAT     H286781   0.980   5.414   5.632
28847WAT      O86782   9.431   8.349   9.433
28847WAT     H186783   9.507   8.296   9.471
28847WAT     H286784   9.427   8.438   9.479
28848WAT      O86785   4.307   1.317   0.119
28848WAT     H186786   4.326   1.246   0.187
28848WAT     H286787   4.333   1.284   0.028
28849WAT      O86788   1.798   8.368   0.022
28849WAT     H186789   1.787   8.269   0.011
28849WAT     H286790   1.873   8.400  -0.035
28850WAT      O86791   7.990   6.985   4.925
28850WAT     H186792   8.047   6.916   4.969
28850WAT     H286793   7.904   6.994   4.976
28851WAT      O86794   2.975   1.518   4.105
28851WAT     H186795   2.947   1.451   4.036
28851WAT     H286796   3.072   1.506   4.126
28852WAT      O86797   4.439   1.241   6.084
28852WAT     H186798   4.490   1.201   6.160
28852WAT     H286799   4.410   1.168   6.022
28853WAT      O86800   6.203   4.755   3.367
28853WAT     H186801   6.285   4.793   3.324
28853WAT     H286802   6.219   4.659   3.391
28854WAT      O86803   7.170   6.517   1.845
28854WAT     H186804   7.190   6.470   1.931
28854WAT     H286805   7.201   6.460   1.769
28855WAT      O86806   5.756   7.167   1.423
28855WAT     H186807   5.824   7.225   1.467
28855WAT     H286808   5.802   7.096   1.370
28856WAT      O86809   6.151   2.105   7.121
28856WAT     H186810   6.092   2.074   7.047
28856WAT     H286811   6.242   2.126   7.085
28857WAT      O86812   0.089   6.375   1.845
28857WAT     H186813   0.073   6.439   1.770
28857WAT     H286814   0.108   6.284   1.807
28858WAT      O86815   2.616   1.633   3.564
28858WAT     H186816   2.632   1.536   3.582
28858WAT     H286817   2.650   1.687   3.641
28859WAT      O86818   0.481   4.361   2.389
28859WAT     H186819   0.578   4.337   2.400
28859WAT     H286820   0.425   4.284   2.419
28860WAT      O86821   0.472   6.106   8.473
28860WAT     H186822   0.492   6.098   8.570
28860WAT     H286823   0.448   6.016   8.436
28861WAT      O86824   4.615   9.008   2.004
28861WAT     H186825   4.694   8.974   2.055
28861WAT     H286826   4.617   8.971   1.912
28862WAT      O86827   0.824   8.313   5.415
28862WAT     H186828   0.778   8.376   5.479
28862WAT     H286829   0.805   8.219   5.442
28863WAT      O86830   6.839   2.903   7.759
28863WAT     H186831   6.881   2.865   7.842
28863WAT     H286832   6.773   2.974   7.785
28864WAT      O86833   0.230   4.351   4.202
28864WAT     H186834   0.182   4.273   4.240
28864WAT     H286835   0.222   4.429   4.264
28865WAT      O86836   9.301   6.467   2.210
28865WAT     H186837   9.386   6.498   2.253
28865WAT     H286838   9.273   6.379   2.249
28866WAT      O86839   7.151   6.666   4.265
28866WAT     H186840   7.146   6.745   4.204
28866WAT     H286841   7.062   6.621   4.269
28867WAT      O86842   8.138   3.911   0.193
28867WAT     H186843   8.039   3.919   0.206
28867WAT     H286844   8.163   3.951   0.105
28868WAT      O86845   8.749   2.466   3.215
28868WAT     H186846   8.768   2.468   3.117
28868WAT     H286847   8.794   2.386   3.255
28869WAT      O86848   7.322   1.026   5.114
28869WAT     H186849   7.265   1.091   5.165
28869WAT     H286850   7.382   0.977   5.178
28870WAT      O86851   5.840   4.012   0.151
28870WAT     H186852   5.878   3.943   0.089
28870WAT     H286853   5.858   3.986   0.246
28871WAT      O86854   2.769   3.693   3.835
28871WAT     H186855   2.839   3.764   3.820
28871WAT     H286856   2.764   3.634   3.755
28872WAT      O86857   5.019   1.212   9.195
28872WAT     H186858   4.981   1.300   9.166
28872WAT     H286859   5.018   1.148   9.117
28873WAT      O86860   8.786   7.329   1.199
28873WAT     H186861   8.860   7.263   1.209
28873WAT     H286862   8.819   7.409   1.149
28874WAT      O86863   7.811   4.147   8.057
28874WAT     H186864   7.834   4.194   7.971
28874WAT     H286865   7.780   4.215   8.124
28875WAT      O86866   1.643   8.479   8.448
28875WAT     H186867   1.717   8.412   8.450
28875WAT     H286868   1.570   8.450   8.510
28876WAT      O86869   2.176   2.617   0.491
28876WAT     H186870   2.250   2.576   0.544
28876WAT     H286871   2.162   2.564   0.407
28877WAT      O86872   6.600   3.158   0.249
28877WAT     H186873   6.530   3.162   0.321
28877WAT     H286874   6.555   3.150   0.160
28878WAT      O86875   7.359   3.727   2.756
28878WAT     H186876   7.278   3.784   2.766
28878WAT     H286877   7.430   3.756   2.820
28879WAT      O86878   1.233   6.191   6.023
28879WAT     H186879   1.330   6.170   6.037
28879WAT     H286880   1.178   6.135   6.085
28880WAT      O86881   1.004   7.006   9.668
28880WAT     H186882   1.039   6.949   9.594
28880WAT     H286883   0.999   7.101   9.637
28881WAT      O86884   2.094   3.786   3.188
28881WAT     H186885   2.182   3.829   3.169
28881WAT     H286886   2.028   3.815   3.119
28882WAT      O86887   4.574   5.925   8.326
28882WAT     H186888   4.523   5.990   8.382
28882WAT     H286889   4.664   5.963   8.304
28883WAT      O86890   2.883   4.751   0.420
28883WAT     H186891   2.882   4.848   0.398
28883WAT     H286892   2.968   4.729   0.469
28884WAT      O86893   3.929   4.298   1.315
28884WAT     H186894   3.855   4.238   1.284
28884WAT     H286895   3.909   4.393   1.288
28885WAT      O86896   3.076   8.571   7.098
28885WAT     H186897   3.085   8.488   7.043
28885WAT     H286898   3.066   8.546   7.195
28886WAT      O86899   9.726   4.268   0.273
28886WAT     H186900   9.658   4.266   0.347
28886WAT     H286901   9.692   4.214   0.196
28887WAT      O86902   3.476   6.272   0.839
28887WAT     H186903   3.403   6.214   0.874
28887WAT     H286904   3.563   6.223   0.844
28888WAT      O86905   7.617   3.470   6.558
28888WAT     H186906   7.559   3.511   6.488
28888WAT     H286907   7.611   3.523   6.642
28889WAT      O86908   4.756   7.716   4.953
28889WAT     H186909   4.815   7.655   4.899
28889WAT     H286910   4.685   7.754   4.894
28890WAT      O86911   9.736   3.987   6.740
28890WAT     H186912   9.661   3.931   6.706
28890WAT     H286913   9.738   3.984   6.840
28891WAT      O86914   5.087   5.686   5.552
28891WAT     H186915   5.121   5.654   5.464
28891WAT     H286916   5.010   5.630   5.581
28892WAT      O86917   6.914   4.274   6.757
28892WAT     H186918   6.898   4.197   6.818
28892WAT     H286919   6.881   4.358   6.800
28893WAT      O86920   2.065   9.289   3.152
28893WAT     H186921   1.992   9.348   3.187
28893WAT     H286922   2.026   9.218   3.094
28894WAT      O86923   7.188   2.509   6.882
28894WAT     H186924   7.218   2.604   6.871
28894WAT     H286925   7.128   2.501   6.962
28895WAT      O86926   0.877   8.360   9.244
28895WAT     H186927   0.802   8.380   9.306
28895WAT     H286928   0.932   8.285   9.281
28896WAT      O86929   4.235   9.113   9.262
28896WAT     H186930   4.205   9.208   9.263
28896WAT     H286931   4.199   9.068   9.181
28897WAT      O86932   9.352   1.599   1.993
28897WAT     H186933   9.289   1.662   2.038
28897WAT     H286934   9.433   1.586   2.050
28898WAT      O86935   6.764   8.341   7.313
28898WAT     H186936   6.787   8.409   7.244
28898WAT     H286937   6.847   8.295   7.345
28899WAT      O86938   7.597   9.732   3.084
28899WAT     H186939   7.518   9.670   3.085
28899WAT     H286940   7.672   9.690   3.136
28900WAT      O86941   1.170   0.726   2.189
28900WAT     H186942   1.106   0.781   2.135
28900WAT     H286943   1.235   0.786   2.235
28901WAT      O86944   5.675   3.911   3.165
28901WAT     H186945   5.672   3.983   3.095
28901WAT     H286946   5.645   3.824   3.125
28902WAT      O86947   9.258   9.769   7.464
28902WAT     H186948   9.179   9.749   7.522
28902WAT     H286949   9.306   9.684   7.442
28903WAT      O86950   6.207   2.085   4.132
28903WAT     H186951   6.166   2.105   4.221
28903WAT     H286952   6.182   2.157   4.067
28904WAT      O86953   8.410   9.784   1.034
28904WAT     H186954   8.382   9.769   1.129
28904WAT     H286955   8.413   9.697   0.986
28905WAT      O86956   1.685   3.962   6.689
28905WAT     H186957   1.716   3.871   6.718
28905WAT     H286958   1.677   3.965   6.590
28906WAT      O86959   2.406   7.523   4.019
28906WAT     H186960   2.308   7.517   4.038
28906WAT     H286961   2.421   7.510   3.921
28907WAT      O86962   5.519   9.416   0.029
28907WAT     H186963   5.461   9.492   0.059
28907WAT     H286964   5.464   9.333   0.022
28908WAT      O86965   5.348   6.793   6.791
28908WAT     H186966   5.424   6.762   6.849
28908WAT     H286967   5.367   6.766   6.696
28909WAT      O86968   2.709   7.171   8.962
28909WAT     H186969   2.706   7.157   9.061
28909WAT     H286970   2.645   7.244   8.936
28910WAT      O86971   0.621   8.767   9.309
28910WAT     H186972   0.552   8.792   9.378
28910WAT     H286973   0.583   8.698   9.248
28911WAT      O86974   0.740   8.386   5.173
28911WAT     H186975   0.769   8.360   5.265
28911WAT     H286976   0.640   8.398   5.172
28912WAT      O86977   2.381   6.444   9.465
28912WAT     H186978   2.453   6.512   9.478
28912WAT     H286979   2.312   6.454   9.537
28913WAT      O86980   0.215   4.294   9.876
28913WAT     H186981   0.279   4.271   9.950
28913WAT     H286982   0.141   4.350   9.913
28914WAT      O86983   4.919   8.254   7.700
28914WAT     H186984   4.854   8.330   7.687
28914WAT     H286985   5.008   8.291   7.727
28915WAT      O86986   7.487   5.520   0.259
28915WAT     H186987   7.496   5.529   0.358
28915WAT     H286988   7.564   5.467   0.223
28916WAT      O86989   0.436   6.283   1.948
28916WAT     H186990   0.511   6.224   1.979
28916WAT     H286991   0.412   6.347   2.020
28917WAT      O86992   4.751   2.565   3.184
28917WAT     H186993   4.682   2.601   3.120
28917WAT     H286994   4.820   2.635   3.201
28918WAT      O86995   8.644   8.240   0.940
28918WAT     H186996   8.682   8.150   0.920
28918WAT     H286997   8.699   8.310   0.895
28919WAT      O86998   6.243   8.058   7.896
28919WAT     H186999   6.284   8.126   7.834
28919WAT     H287000   6.259   7.966   7.860
28920WAT      O87001   6.500   1.939   9.858
28920WAT     H187002   6.474   1.859   9.913
28920WAT     H287003   6.419   1.979   9.817
28921WAT      O87004   8.496   5.488   2.260
28921WAT     H187005   8.544   5.431   2.194
28921WAT     H287006   8.398   5.491   2.237
28922WAT      O87007   8.456   6.735   2.375
28922WAT     H187008   8.425   6.828   2.361
28922WAT     H287009   8.377   6.675   2.388
28923WAT      O87010   2.210   9.134   0.476
28923WAT     H187011   2.221   9.190   0.558
28923WAT     H287012   2.289   9.147   0.416
28924WAT      O87013   6.956   7.514   3.185
28924WAT     H187014   7.009   7.430   3.183
28924WAT     H287015   6.998   7.582   3.125
28925WAT      O87016   0.569   1.366   3.149
28925WAT     H187017   0.633   1.327   3.082
28925WAT     H287018   0.614   1.372   3.238
28926WAT      O87019   7.908   9.218   0.923
28926WAT     H187020   7.813   9.196   0.902
28926WAT     H287021   7.933   9.177   1.011
28927WAT      O87022   6.365   6.900   4.225
28927WAT     H187023   6.276   6.868   4.258
28927WAT     H287024   6.369   6.889   4.126
28928WAT      O87025   6.140   5.147   2.587
28928WAT     H187026   6.223   5.191   2.555
28928WAT     H287027   6.094   5.205   2.653
28929WAT      O87028   2.703   6.162   5.857
28929WAT     H187029   2.675   6.127   5.768
28929WAT     H287030   2.621   6.179   5.913
28930WAT      O87031   8.350   6.240   1.536
28930WAT     H187032   8.442   6.209   1.513
28930WAT     H287033   8.291   6.161   1.555
28931WAT      O87034   7.977   9.488   5.404
28931WAT     H187035   7.883   9.456   5.401
28931WAT     H287036   8.010   9.504   5.311
28932WAT      O87037   8.460   9.484   9.641
28932WAT     H187038   8.454   9.567   9.695
28932WAT     H287039   8.383   9.480   9.577
28933WAT      O87040   5.428   9.333   5.718
28933WAT     H187041   5.342   9.286   5.738
28933WAT     H287042   5.433   9.418   5.770
28934WAT      O87043   0.934   6.370   9.314
28934WAT     H187044   0.852   6.326   9.350
28934WAT     H287045   0.911   6.423   9.233
28935WAT      O87046   7.028   8.306   5.460
28935WAT     H187047   7.003   8.215   5.427
28935WAT     H287048   6.959   8.338   5.525
28936WAT      O87049   8.791   6.576   1.090
28936WAT     H187050   8.879   6.543   1.057
28936WAT     H287051   8.796   6.593   1.189
28937WAT      O87052   9.007   6.465   9.266
28937WAT     H187053   8.913   6.447   9.237
28937WAT     H287054   9.009   6.485   9.364
28938WAT      O87055   1.731   5.891   9.478
28938WAT     H187056   1.768   5.916   9.389
28938WAT     H287057   1.633   5.912   9.481
28939WAT      O87058   7.881   9.274   6.966
28939WAT     H187059   7.920   9.367   6.968
28939WAT     H287060   7.877   9.243   6.871
28940WAT      O87061   1.094   7.220   8.444
28940WAT     H187062   1.012   7.175   8.408
28940WAT     H287063   1.167   7.153   8.454
28941WAT      O87064   4.027   7.412   0.875
28941WAT     H187065   4.050   7.318   0.901
28941WAT     H287066   4.078   7.475   0.934
28942WAT      O87067   3.621   8.764   9.429
28942WAT     H187068   3.666   8.817   9.356
28942WAT     H287069   3.566   8.692   9.387
28943WAT      O87070   1.522   9.719   9.409
28943WAT     H187071   1.607   9.667   9.410
28943WAT     H287072   1.541   9.814   9.384
28944WAT      O87073   2.903   0.709   6.097
28944WAT     H187074   2.833   0.750   6.038
28944WAT     H287075   2.964   0.653   6.041
28945WAT      O87076   0.090   8.203   6.929
28945WAT     H187077   0.120   8.129   6.989
28945WAT     H287078   0.090   8.289   6.979
28946WAT      O87079   0.722   2.278   6.024
28946WAT     H187080   0.776   2.248   6.103
28946WAT     H287081   0.746   2.373   6.002
28947WAT      O87082   4.469   5.299   9.841
28947WAT     H187083   4.471   5.310   9.741
28947WAT     H287084   4.517   5.215   9.866
28948WAT      O87085   6.934   9.054   6.827
28948WAT     H187086   6.985   8.968   6.830
28948WAT     H287087   6.868   9.057   6.902
28949WAT      O87088   0.221   8.972   4.908
28949WAT     H187089   0.177   9.022   4.982
28949WAT     H287090   0.307   9.016   4.883
28950WAT      O87091   3.714   1.580   4.593
28950WAT     H187092   3.725   1.657   4.656
28950WAT     H287093   3.649   1.514   4.631
28951WAT      O87094   0.181   2.231   9.439
28951WAT     H187095   0.092   2.262   9.473
28951WAT     H287096   0.182   2.236   9.339
28952WAT      O87097   6.350   5.861   9.657
28952WAT     H187098   6.392   5.796   9.593
28952WAT     H287099   6.251   5.847   9.658
28953WAT      O87100   1.840   5.877   2.553
28953WAT     H187101   1.901   5.841   2.483
28953WAT     H287102   1.891   5.942   2.611
28954WAT      O87103   1.647   2.919   7.847
28954WAT     H187104   1.619   3.008   7.883
28954WAT     H287105   1.742   2.923   7.817
28955WAT      O87106   3.937   6.687   6.126
28955WAT     H187107   3.937   6.726   6.218
28955WAT     H287108   4.029   6.696   6.087
28956WAT      O87109   0.280   0.849   3.519
28956WAT     H187110   0.359   0.821   3.465
28956WAT     H287111   0.268   0.786   3.595
28957WAT      O87112   3.345   7.649   2.151
28957WAT     H187113   3.379   7.571   2.099
28957WAT     H287114   3.354   7.629   2.249
28958WAT      O87115   0.985   2.773   6.720
28958WAT     H187116   0.989   2.710   6.797
28958WAT     H287117   0.990   2.867   6.754
28959WAT      O87118   6.824   1.145   0.281
28959WAT     H187119   6.795   1.147   0.185
28959WAT     H287120   6.894   1.074   0.292
28960WAT      O87121   5.939   2.690   9.845
28960WAT     H187122   5.972   2.708   9.752
28960WAT     H287123   5.848   2.648   9.840
28961WAT      O87124   3.170   5.515   6.072
28961WAT     H187125   3.212   5.575   6.003
28961WAT     H287126   3.095   5.464   6.031
28962WAT      O87127   5.102   4.135   4.932
28962WAT     H187128   5.042   4.153   5.010
28962WAT     H287129   5.157   4.216   4.912
28963WAT      O87130   5.785   0.527   1.893
28963WAT     H187131   5.720   0.583   1.841
28963WAT     H287132   5.792   0.437   1.851
28964WAT      O87133   2.925   9.338   8.429
28964WAT     H187134   2.898   9.274   8.358
28964WAT     H287135   3.025   9.341   8.435
28965WAT      O87136   5.724   5.131   4.636
28965WAT     H187137   5.627   5.149   4.654
28965WAT     H287138   5.777   5.147   4.719
28966WAT      O87139   2.201   3.789   6.783
28966WAT     H187140   2.221   3.792   6.685
28966WAT     H287141   2.274   3.740   6.830
28967WAT      O87142   3.458   5.628   0.593
28967WAT     H187143   3.521   5.603   0.666
28967WAT     H287144   3.405   5.548   0.566
28968WAT      O87145   1.305   4.698   5.831
28968WAT     H187146   1.216   4.654   5.824
28968WAT     H287147   1.293   4.797   5.835
28969WAT      O87148   1.771   8.232   6.591
28969WAT     H187149   1.793   8.156   6.530
28969WAT     H287150   1.828   8.311   6.567
28970WAT      O87151   1.849   1.621   4.001
28970WAT     H187152   1.783   1.692   4.026
28970WAT     H287153   1.861   1.557   4.077
28971WAT      O87154   0.921   0.145   2.381
28971WAT     H187155   0.952   0.190   2.297
28971WAT     H287156   0.822   0.138   2.381
28972WAT      O87157   3.863   8.486   7.434
28972WAT     H187158   3.866   8.585   7.448
28972WAT     H287159   3.904   8.463   7.346
28973WAT      O87160   7.480   9.296   7.833
28973WAT     H187161   7.549   9.330   7.897
28973WAT     H287162   7.519   9.292   7.741
28974WAT      O87163   8.864   3.815   8.128
28974WAT     H187164   8.805   3.828   8.048
28974WAT     H287165   8.932   3.888   8.133
28975WAT      O87166   3.985   7.036   0.847
28975WAT     H187167   3.898   7.082   0.862
28975WAT     H287168   3.979   6.941   0.877
28976WAT      O87169   7.208   0.761   6.537
28976WAT     H187170   7.183   0.705   6.616
28976WAT     H287171   7.128   0.772   6.477
28977WAT      O87172   5.489   5.963   3.571
28977WAT     H187173   5.579   5.921   3.579
28977WAT     H287174   5.437   5.947   3.655
28978WAT      O87175   5.356   1.930   7.949
28978WAT     H187176   5.371   1.972   8.039
28978WAT     H287177   5.429   1.865   7.930
28979WAT      O87178   5.149   4.295   9.142
28979WAT     H187179   5.189   4.367   9.199
28979WAT     H287180   5.054   4.281   9.170
28980WAT      O87181   7.555   9.356   3.001
28980WAT     H187182   7.642   9.364   2.953
28980WAT     H287183   7.513   9.447   3.009
28981WAT      O87184   3.649   6.388   9.111
28981WAT     H187185   3.642   6.289   9.112
28981WAT     H287186   3.562   6.428   9.141
28982WAT      O87187   7.379   2.436   0.548
28982WAT     H187188   7.448   2.449   0.477
28982WAT     H287189   7.414   2.471   0.635
28983WAT      O87190   6.529   0.608   4.718
28983WAT     H187191   6.588   0.653   4.785
28983WAT     H287192   6.433   0.624   4.743
28984WAT      O87193   1.051   3.419   9.780
28984WAT     H187194   0.973   3.417   9.718
28984WAT     H287195   1.057   3.508   9.825
28985WAT      O87196   0.067   5.698   3.931
28985WAT     H187197   0.089   5.614   3.882
28985WAT     H287198   0.032   5.675   4.022
28986WAT      O87199   4.016   6.675   7.226
28986WAT     H187200   4.078   6.601   7.253
28986WAT     H287201   4.069   6.752   7.191
28987WAT      O87202   4.616   9.539   9.159
28987WAT     H187203   4.556   9.523   9.238
28987WAT     H287204   4.588   9.481   9.083
28988WAT      O87205   1.230   7.618   4.625
28988WAT     H187206   1.188   7.647   4.711
28988WAT     H287207   1.296   7.545   4.644
28989WAT      O87208   9.209   7.345   0.560
28989WAT     H187209   9.203   7.254   0.520
28989WAT     H287210   9.248   7.339   0.652
28990WAT      O87211   1.194   9.041   0.657
28990WAT     H187212   1.202   9.131   0.699
28990WAT     H287213   1.252   9.037   0.576
28991WAT      O87214   2.985   4.558   4.941
28991WAT     H187215   2.964   4.529   4.848
28991WAT     H287216   3.084   4.550   4.956
28992WAT      O87217   7.223   2.073   8.282
28992WAT     H187218   7.197   2.062   8.378
28992WAT     H287219   7.149   2.040   8.224
28993WAT      O87220   8.749   7.830   5.384
28993WAT     H187221   8.789   7.907   5.434
28993WAT     H287222   8.823   7.773   5.347
28994WAT      O87223   9.277   1.875   0.874
28994WAT     H187224   9.179   1.893   0.868
28994WAT     H287225   9.328   1.958   0.851
28995WAT      O87226   2.231   4.406   1.669
28995WAT     H187227   2.166   4.367   1.734
28995WAT     H287228   2.209   4.373   1.577
28996WAT      O87229   5.241   4.182   0.102
28996WAT     H187230   5.187   4.099   0.089
28996WAT     H287231   5.285   4.179   0.192
28997WAT      O87232   9.764   0.562   1.131
28997WAT     H187233   9.824   0.613   1.192
28997WAT     H287234   9.679   0.539   1.179
28998WAT      O87235   0.626   0.520   5.537
28998WAT     H187236   0.672   0.439   5.500
28998WAT     H287237   0.620   0.590   5.466
28999WAT      O87238   4.804   0.105   9.706
28999WAT     H187239   4.793   0.181   9.641
28999WAT     H287240   4.898   0.072   9.702
29000WAT      O87241   5.356   9.092   1.860
29000WAT     H187242   5.400   9.092   1.950
29000WAT     H287243   5.258   9.104   1.871
29001WAT      O87244   4.763   6.174   1.833
29001WAT     H187245   4.749   6.270   1.808
29001WAT     H287246   4.776   6.120   1.750
29002WAT      O87247   8.275   2.630   1.798
29002WAT     H187248   8.356   2.665   1.750
29002WAT     H287249   8.242   2.548   1.751
29003WAT      O87250   1.454   7.750   5.859
29003WAT     H187251   1.521   7.727   5.788
29003WAT     H287252   1.367   7.704   5.839
29004WAT      O87253   6.548   6.074   6.714
29004WAT     H187254   6.490   6.015   6.771
29004WAT     H287255   6.642   6.040   6.716
29005WAT      O87256   7.905   1.300   2.159
29005WAT     H187257   7.850   1.358   2.098
29005WAT     H287258   7.997   1.292   2.122
29006WAT      O87259   1.840   8.606   5.460
29006WAT     H187260   1.764   8.589   5.523
29006WAT     H287261   1.873   8.699   5.471
29007WAT      O87262   5.850   6.369   8.148
29007WAT     H187263   5.897   6.307   8.211
29007WAT     H287264   5.870   6.341   8.054
29008WAT      O87265   9.761   7.428   2.257
29008WAT     H187266   9.675   7.427   2.206
29008WAT     H287267   9.741   7.432   2.355
29009WAT      O87268   1.616   1.767   4.880
29009WAT     H187269   1.558   1.692   4.849
29009WAT     H287270   1.571   1.816   4.955
29010WAT      O87271   3.036   3.093   5.152
29010WAT     H187272   3.010   3.148   5.073
29010WAT     H287273   3.044   2.997   5.124
29011WAT      O87274   8.024   4.138   1.092
29011WAT     H187275   8.047   4.075   1.166
29011WAT     H287276   7.935   4.180   1.111
29012WAT      O87277   6.106   2.875   0.638
29012WAT     H187278   6.063   2.965   0.651
29012WAT     H287279   6.205   2.887   0.627
29013WAT      O87280   4.765   6.594   8.610
29013WAT     H187281   4.689   6.657   8.622
29013WAT     H287282   4.786   6.549   8.697
29014WAT      O87283   8.474   0.906   7.377
29014WAT     H187284   8.377   0.923   7.354
29014WAT     H287285   8.505   0.824   7.330
29015WAT      O87286   0.077   8.069   8.048
29015WAT     H187287   0.102   8.163   8.073
29015WAT     H287288   0.156   8.009   8.056
29016WAT      O87289   9.787   8.003   2.502
29016WAT     H187290   9.869   7.979   2.451
29016WAT     H287291   9.780   8.102   2.511
29017WAT      O87292   0.332   9.535   1.831
29017WAT     H187293   0.365   9.442   1.848
29017WAT     H287294   0.232   9.535   1.836
29018WAT      O87295   5.901   9.509   5.602
29018WAT     H187296   5.982   9.513   5.660
29018WAT     H287297   5.865   9.601   5.588
29019WAT      O87298   0.648   1.029   2.450
29019WAT     H187299   0.711   0.951   2.461
29019WAT     H287300   0.556   1.000   2.475
29020WAT      O87301   2.183   8.695   1.286
29020WAT     H187302   2.151   8.779   1.244
29020WAT     H287303   2.107   8.648   1.331
29021WAT      O87304   0.208   3.677   1.273
29021WAT     H187305   0.139   3.609   1.250
29021WAT     H287306   0.164   3.757   1.314
29022WAT      O87307   8.382   4.282   4.497
29022WAT     H187308   8.385   4.272   4.398
29022WAT     H287309   8.314   4.218   4.535
29023WAT      O87310   7.465   4.177   1.870
29023WAT     H187311   7.417   4.126   1.942
29023WAT     H287312   7.399   4.215   1.806
29024WAT      O87313   9.079   5.107   1.299
29024WAT     H187314   8.997   5.109   1.241
29024WAT     H287315   9.052   5.085   1.393
29025WAT      O87316   9.326   4.336   0.280
29025WAT     H187317   9.235   4.364   0.310
29025WAT     H287318   9.320   4.297   0.188
29026WAT      O87319   4.710   1.814   5.384
29026WAT     H187320   4.804   1.815   5.419
29026WAT     H287321   4.701   1.885   5.313
29027WAT      O87322   9.025   6.462   0.024
29027WAT     H187323   9.061   6.370   0.043
29027WAT     H287324   8.973   6.460  -0.061
29028WAT      O87325   7.725   9.069   3.638
29028WAT     H187326   7.737   8.974   3.606
29028WAT     H287327   7.629   9.086   3.657
29029WAT      O87328   6.894   0.781   4.596
29029WAT     H187329   6.850   0.863   4.631
29029WAT     H287330   6.831   0.733   4.534
29030WAT      O87331   4.800   7.828   0.459
29030WAT     H187332   4.829   7.860   0.549
29030WAT     H287333   4.791   7.906   0.397
29031WAT      O87334   3.100   4.157   3.036
29031WAT     H187335   3.146   4.068   3.043
29031WAT     H287336   3.004   4.142   3.012
29032WAT      O87337   2.441   7.044   0.828
29032WAT     H187338   2.503   7.007   0.897
29032WAT     H287339   2.493   7.078   0.750
29033WAT      O87340   4.884   7.707   9.186
29033WAT     H187341   4.882   7.793   9.236
29033WAT     H287342   4.921   7.635   9.244
29034WAT      O87343   3.432   7.554   6.739
29034WAT     H187344   3.532   7.555   6.745
29034WAT     H287345   3.400   7.460   6.747
29035WAT      O87346   5.250   3.699   9.473
29035WAT     H187347   5.287   3.610   9.499
29035WAT     H287348   5.170   3.687   9.415
29036WAT      O87349   6.494   5.036   1.428
29036WAT     H187350   6.439   4.967   1.475
29036WAT     H287351   6.557   5.078   1.492
29037WAT      O87352   9.877   5.268   4.455
29037WAT     H187353   9.961   5.283   4.402
29037WAT     H287354   9.814   5.344   4.439
29038WAT      O87355   7.659   2.707   2.908
29038WAT     H187356   7.580   2.651   2.933
29038WAT     H287357   7.691   2.758   2.988
29039WAT      O87358   5.402   5.309   3.808
29039WAT     H187359   5.304   5.317   3.827
29039WAT     H287360   5.425   5.362   3.726
29040WAT      O87361   0.194   4.523   4.423
29040WAT     H187362   0.261   4.585   4.463
29040WAT     H287363   0.113   4.574   4.395
29041WAT      O87364   4.803   0.977   1.308
29041WAT     H187365   4.749   0.912   1.254
29041WAT     H287366   4.789   1.069   1.272
29042WAT      O87367   7.444   3.706   9.589
29042WAT     H187368   7.365   3.740   9.640
29042WAT     H287369   7.424   3.709   9.491
29043WAT      O87370   2.689   4.433   8.540
29043WAT     H187371   2.622   4.368   8.576
29043WAT     H287372   2.653   4.476   8.457
29044WAT      O87373   0.384   0.019   9.386
29044WAT     H187374   0.290   0.004   9.358
29044WAT     H287375   0.386   0.070   9.472
29045WAT      O87376   3.635   9.615   4.680
29045WAT     H187377   3.679   9.550   4.742
29045WAT     H287378   3.539   9.625   4.706
29046WAT      O87379   8.238   5.713   3.692
29046WAT     H187380   8.158   5.728   3.633
29046WAT     H287381   8.316   5.686   3.635
29047WAT      O87382   2.224   2.262   8.216
29047WAT     H187383   2.175   2.239   8.132
29047WAT     H287384   2.206   2.192   8.285
29048WAT      O87385   4.592   8.021   8.116
29048WAT     H187386   4.606   8.078   8.035
29048WAT     H287387   4.605   8.076   8.198
29049WAT      O87388   4.780   3.106   0.554
29049WAT     H187389   4.862   3.122   0.500
29049WAT     H287390   4.765   3.007   0.565
29050WAT      O87391   9.301   5.036   3.061
29050WAT     H187392   9.300   5.120   3.115
29050WAT     H287393   9.368   4.973   3.100
29051WAT      O87394   9.035   5.225   6.780
29051WAT     H187395   8.937   5.230   6.802
29051WAT     H287396   9.058   5.299   6.717
29052WAT      O87397   1.279   2.936   6.927
29052WAT     H187398   1.326   3.005   6.871
29052WAT     H287399   1.188   2.919   6.889
29053WAT      O87400   2.494   5.220   1.965
29053WAT     H187401   2.534   5.275   2.039
29053WAT     H287402   2.413   5.172   1.999
29054WAT      O87403   2.608   0.836   6.286
29054WAT     H187404   2.630   0.931   6.307
29054WAT     H287405   2.667   0.775   6.339
29055WAT      O87406   6.136   2.095   5.156
29055WAT     H187407   6.188   2.050   5.083
29055WAT     H287408   6.193   2.163   5.202
29056WAT      O87409   8.390   8.935   6.830
29056WAT     H187410   8.356   8.914   6.921
29056WAT     H287411   8.366   9.030   6.807
29057WAT      O87412   8.090   6.346   8.221
29057WAT     H187413   8.051   6.267   8.268
29057WAT     H287414   8.115   6.320   8.127
29058WAT      O87415   3.546   6.423   5.518
29058WAT     H187416   3.522   6.475   5.435
29058WAT     H287417   3.576   6.487   5.589
29059WAT      O87418   1.726   0.575   0.047
29059WAT     H187419   1.776   0.654   0.011
29059WAT     H287420   1.660   0.606   0.116
29060WAT      O87421   8.900   1.898   6.455
29060WAT     H187422   8.825   1.835   6.473
29060WAT     H287423   8.970   1.888   6.526
29061WAT      O87424   4.966   7.538   9.431
29061WAT     H187425   4.993   7.579   9.518
29061WAT     H287426   4.874   7.500   9.438
29062WAT      O87427   7.710   2.780   8.460
29062WAT     H187428   7.687   2.688   8.493
29062WAT     H287429   7.809   2.790   8.453
29063WAT      O87430   7.590   0.890   0.054
29063WAT     H187431   7.522   0.854   0.118
29063WAT     H287432   7.681   0.883   0.094
29064WAT      O87433   7.617   5.584   8.489
29064WAT     H187434   7.585   5.595   8.583
29064WAT     H287435   7.546   5.615   8.426
29065WAT      O87436   0.570   5.739   7.242
29065WAT     H187437   0.489   5.718   7.187
29065WAT     H287438   0.542   5.783   7.327
29066WAT      O87439   5.950   6.513   3.681
29066WAT     H187440   6.015   6.456   3.731
29066WAT     H287441   5.890   6.560   3.745
29067WAT      O87442   8.033   8.131   5.067
29067WAT     H187443   8.120   8.109   5.022
29067WAT     H287444   7.958   8.086   5.018
29068WAT      O87445   3.517   3.413   5.499
29068WAT     H187446   3.495   3.471   5.420
29068WAT     H287447   3.457   3.333   5.498
29069WAT      O87448   0.660   9.428   7.209
29069WAT     H187449   0.582   9.393   7.157
29069WAT     H287450   0.673   9.525   7.189
29070WAT      O87451   3.429   3.565   0.195
29070WAT     H187452   3.397   3.601   0.107
29070WAT     H287453   3.367   3.493   0.226
29071WAT      O87454   6.172   2.617   5.063
29071WAT     H187455   6.134   2.574   5.146
29071WAT     H287456   6.108   2.686   5.030
29072WAT      O87457   2.565   8.093   5.015
29072WAT     H187458   2.498   8.075   5.087
29072WAT     H287459   2.520   8.091   4.926
29073WAT      O87460   5.395   0.321   7.311
29073WAT     H187461   5.480   0.326   7.258
29073WAT     H287462   5.332   0.258   7.266
29074WAT      O87463   8.579   5.741   3.321
29074WAT     H187464   8.586   5.836   3.350
29074WAT     H287465   8.670   5.704   3.302
29075WAT      O87466   1.905   6.142   5.823
29075WAT     H187467   1.937   6.121   5.915
29075WAT     H287468   1.903   6.241   5.810
29076WAT      O87469   3.901   0.817   6.106
29076WAT     H187470   3.992   0.785   6.132
29076WAT     H287471   3.898   0.917   6.113
29077WAT      O87472   4.301   2.525   3.152
29077WAT     H187473   4.283   2.558   3.244
29077WAT     H287474   4.223   2.547   3.092
29078WAT      O87475   8.823   4.695   9.250
29078WAT     H187476   8.735   4.695   9.204
29078WAT     H287477   8.854   4.601   9.263
29079WAT      O87478   6.285   7.492   6.367
29079WAT     H187479   6.346   7.422   6.330
29079WAT     H287480   6.190   7.463   6.356
29080WAT      O87481   1.711   9.050   2.880
29080WAT     H187482   1.759   9.046   2.793
29080WAT     H287483   1.625   9.101   2.868
29081WAT      O87484   7.964   6.630   2.555
29081WAT     H187485   7.907   6.692   2.610
29081WAT     H287486   7.913   6.602   2.474
29082WAT      O87487   4.745   7.397   9.436
29082WAT     H187488   4.723   7.320   9.376
29082WAT     H287489   4.675   7.467   9.428
29083WAT      O87490   7.751   3.152   2.082
29083WAT     H187491   7.755   3.088   2.006
29083WAT     H287492   7.797   3.237   2.056
29084WAT      O87493   3.676   7.451   9.042
29084WAT     H187494   3.595   7.474   9.097
29084WAT     H287495   3.725   7.375   9.085
29085WAT      O87496   4.029   7.591   6.472
29085WAT     H187497   4.009   7.522   6.402
29085WAT     H287498   4.039   7.546   6.561
29086WAT      O87499   7.619   7.011   2.419
29086WAT     H187500   7.588   6.957   2.497
29086WAT     H287501   7.579   6.974   2.335
29087WAT      O87502   7.826   0.541   1.682
29087WAT     H187503   7.837   0.553   1.583
29087WAT     H287504   7.914   0.512   1.721
29088WAT      O87505   7.515   3.985   0.893
29088WAT     H187506   7.571   3.909   0.926
29088WAT     H287507   7.569   4.042   0.831
29089WAT      O87508   8.955   7.837   9.624
29089WAT     H187509   9.021   7.876   9.560
29089WAT     H287510   8.946   7.739   9.608
29090WAT      O87511   8.421   5.630   3.496
29090WAT     H187512   8.372   5.551   3.459
29090WAT     H287513   8.459   5.683   3.421
29091WAT      O87514   4.965   3.780   4.159
29091WAT     H187515   4.909   3.831   4.224
29091WAT     H287516   4.968   3.829   4.072
29092WAT      O87517   9.122   7.208   9.164
29092WAT     H187518   9.078   7.127   9.126
29092WAT     H287519   9.198   7.236   9.104
29093WAT      O87520   0.453   9.772   6.984
29093WAT     H187521   0.516   9.695   6.994
29093WAT     H287522   0.474   9.821   6.899
29094WAT      O87523   2.901   7.318   8.726
29094WAT     H187524   2.988   7.323   8.775
29094WAT     H287525   2.829   7.360   8.782
29095WAT      O87526   4.622   3.257   7.100
29095WAT     H187527   4.649   3.306   7.183
29095WAT     H287528   4.638   3.316   7.020
29096WAT      O87529   4.097   2.616   3.001
29096WAT     H187530   4.049   2.573   2.924
29096WAT     H287531   4.051   2.702   3.025
29097WAT      O87532   3.495   9.163   5.603
29097WAT     H187533   3.522   9.235   5.667
29097WAT     H287534   3.401   9.177   5.573
29098WAT      O87535   8.550   7.252   9.860
29098WAT     H187536   8.627   7.270   9.799
29098WAT     H287537   8.491   7.333   9.864
29099WAT      O87538   7.528   3.083   5.851
29099WAT     H187539   7.450   3.065   5.911
29099WAT     H287540   7.611   3.046   5.892
29100WAT      O87541   0.460   2.100   9.656
29100WAT     H187542   0.411   2.068   9.738
29100WAT     H287543   0.462   2.027   9.588
29101WAT      O87544   0.870   5.010   3.703
29101WAT     H187545   0.934   4.959   3.647
29101WAT     H287546   0.920   5.068   3.767
29102WAT      O87547   5.262   6.874   2.948
29102WAT     H187548   5.359   6.880   2.923
29102WAT     H287549   5.214   6.819   2.880
29103WAT      O87550   9.221   6.883   8.476
29103WAT     H187551   9.293   6.859   8.541
29103WAT     H287552   9.242   6.840   8.388
29104WAT      O87553   7.392   2.499   2.199
29104WAT     H187554   7.376   2.597   2.189
29104WAT     H287555   7.490   2.481   2.194
29105WAT      O87556   2.395   2.054   4.828
29105WAT     H187557   2.299   2.081   4.817
29105WAT     H287558   2.415   1.974   4.772
29106WAT      O87559   8.660   0.107   5.748
29106WAT     H187560   8.728   0.120   5.676
29106WAT     H287561   8.681   0.024   5.800
29107WAT      O87562   8.175   2.024   2.409
29107WAT     H187563   8.267   2.045   2.377
29107WAT     H287564   8.165   1.924   2.419
29108WAT      O87565   9.463   5.330   2.540
29108WAT     H187566   9.405   5.411   2.528
29108WAT     H287567   9.542   5.337   2.479
29109WAT      O87568   1.302   1.439   7.671
29109WAT     H187569   1.295   1.539   7.664
29109WAT     H287570   1.217   1.398   7.637
29110WAT      O87571   8.444   0.319   9.461
29110WAT     H187572   8.468   0.247   9.526
29110WAT     H287573   8.345   0.333   9.462
29111WAT      O87574   6.654   9.610   0.158
29111WAT     H187575   6.737   9.664   0.149
29111WAT     H287576   6.606   9.635   0.242
29112WAT      O87577   3.447   8.721   3.959
29112WAT     H187578   3.438   8.773   4.044
29112WAT     H287579   3.458   8.624   3.979
29113WAT      O87580   0.236   2.806   7.511
29113WAT     H187581   0.326   2.767   7.529
29113WAT     H287582   0.210   2.865   7.588
29114WAT      O87583   3.268   6.463   7.119
29114WAT     H187584   3.210   6.520   7.178
29114WAT     H287585   3.212   6.423   7.047
29115WAT      O87586   7.367   1.201   2.297
29115WAT     H187587   7.347   1.288   2.341
29115WAT     H287588   7.283   1.164   2.256
29116WAT      O87589   0.082   3.426   1.476
29116WAT     H187590   0.002   3.447   1.532
29116WAT     H287591   0.056   3.426   1.380
29117WAT      O87592   2.263   5.188   4.482
29117WAT     H187593   2.345   5.166   4.535
29117WAT     H287594   2.283   5.181   4.384
29118WAT      O87595   9.435   1.261   5.151
29118WAT     H187596   9.457   1.355   5.123
29118WAT     H287597   9.451   1.250   5.249
29119WAT      O87598   0.406   5.242   3.773
29119WAT     H187599   0.355   5.189   3.705
29119WAT     H287600   0.488   5.193   3.800
29120WAT      O87601   8.012   6.674   0.308
29120WAT     H187602   8.074   6.690   0.231
29120WAT     H287603   8.044   6.596   0.362
29121WAT      O87604   8.145   4.524   4.760
29121WAT     H187605   8.197   4.498   4.842
29121WAT     H287606   8.200   4.506   4.679
29122WAT      O87607   5.515   5.974   8.921
29122WAT     H187608   5.565   5.897   8.960
29122WAT     H287609   5.418   5.950   8.911
29123WAT      O87610   3.169   4.889   1.558
29123WAT     H187611   3.181   4.791   1.539
29123WAT     H287612   3.072   4.907   1.575
29124WAT      O87613   0.270   1.591   1.848
29124WAT     H187614   0.199   1.620   1.784
29124WAT     H287615   0.233   1.521   1.909
29125WAT      O87616   0.812   4.080   6.236
29125WAT     H187617   0.803   3.983   6.213
29125WAT     H287618   0.750   4.102   6.312
29126WAT      O87619   7.057   7.128   8.620
29126WAT     H187620   7.154   7.102   8.618
29126WAT     H287621   7.026   7.150   8.528
29127WAT      O87622   2.644   6.992   0.979
29127WAT     H187623   2.597   7.039   1.053
29127WAT     H287624   2.743   7.005   0.988
29128WAT      O87625   3.382   2.287   8.381
29128WAT     H187626   3.465   2.255   8.426
29128WAT     H287627   3.382   2.387   8.379
29129WAT      O87628   3.413   4.663   7.009
29129WAT     H187629   3.440   4.696   7.099
29129WAT     H287630   3.494   4.647   6.953
29130WAT      O87631   0.828   4.339   1.403
29130WAT     H187632   0.738   4.382   1.412
29130WAT     H287633   0.887   4.370   1.477
29131WAT      O87634   8.897   0.988   7.169
29131WAT     H187635   8.961   1.061   7.147
29131WAT     H287636   8.820   1.024   7.222
29132WAT      O87637   3.056   1.099   5.598
29132WAT     H187638   3.123   1.091   5.671
29132WAT     H287639   3.029   1.195   5.589
29133WAT      O87640   6.441   1.544   1.067
29133WAT     H187641   6.429   1.565   1.164
29133WAT     H287642   6.408   1.452   1.049
29134WAT      O87643   4.252   8.557   9.346
29134WAT     H187644   4.298   8.470   9.324
29134WAT     H287645   4.232   8.606   9.261
29135WAT      O87646   2.810   4.989   9.067
29135WAT     H187647   2.828   4.947   8.977
29135WAT     H287648   2.718   4.964   9.097
29136WAT      O87649   6.781   4.252   4.881
29136WAT     H187650   6.802   4.200   4.964
29136WAT     H287651   6.834   4.337   4.881
29137WAT      O87652   7.305   5.579   0.897
29137WAT     H187653   7.353   5.657   0.939
29137WAT     H287654   7.371   5.521   0.850
29138WAT      O87655   6.965   7.162   8.376
29138WAT     H187656   6.901   7.231   8.343
29138WAT     H287657   7.031   7.141   8.304
29139WAT      O87658   5.009   0.919   9.109
29139WAT     H187659   5.054   0.939   9.022
29139WAT     H287660   5.074   0.932   9.184
29140WAT      O87661   6.120   6.074   9.844
29140WAT     H187662   6.032   6.116   9.865
29140WAT     H287663   6.132   5.991   9.899
29141WAT      O87664   6.709   2.752   7.587
29141WAT     H187665   6.743   2.810   7.661
29141WAT     H287666   6.765   2.670   7.581
29142WAT      O87667   1.422   6.663   1.869
29142WAT     H187668   1.470   6.732   1.813
29142WAT     H287669   1.478   6.581   1.875
29143WAT      O87670   6.385   0.763   7.342
29143WAT     H187671   6.463   0.800   7.392
29143WAT     H287672   6.322   0.719   7.406
29144WAT      O87673   8.029   6.827   3.837
29144WAT     H187674   7.998   6.775   3.758
29144WAT     H287675   8.017   6.772   3.920
29145WAT      O87676   6.230   8.594   1.445
29145WAT     H187677   6.298   8.642   1.389
29145WAT     H287678   6.155   8.563   1.387
29146WAT      O87679   9.168   5.865   0.572
29146WAT     H187680   9.237   5.839   0.640
29146WAT     H287681   9.087   5.806   0.583
29147WAT      O87682   7.552   5.217   6.580
29147WAT     H187683   7.601   5.220   6.668
29147WAT     H287684   7.458   5.248   6.593
29148WAT      O87685   2.089   7.518   3.908
29148WAT     H187686   2.120   7.429   3.940
29148WAT     H287687   2.021   7.556   3.971
29149WAT      O87688   4.730   2.313   7.243
29149WAT     H187689   4.730   2.413   7.236
29149WAT     H287690   4.637   2.281   7.259
29150WAT      O87691   2.981   4.756   3.939
29150WAT     H187692   3.064   4.793   3.981
29150WAT     H287693   2.989   4.763   3.840
29151WAT      O87694   7.974   1.368   5.704
29151WAT     H187695   7.988   1.386   5.607
29151WAT     H287696   7.876   1.360   5.723
29152WAT      O87697   7.840   4.892   4.697
29152WAT     H187698   7.742   4.905   4.715
29152WAT     H287699   7.854   4.802   4.654
29153WAT      O87700   8.560   2.247   7.080
29153WAT     H187701   8.644   2.294   7.053
29153WAT     H287702   8.558   2.156   7.039
29154WAT      O87703   1.170   2.774   9.104
29154WAT     H187704   1.203   2.682   9.126
29154WAT     H287705   1.221   2.841   9.158
29155WAT      O87706   4.430   3.170   7.531
29155WAT     H187707   4.382   3.141   7.449
29155WAT     H287708   4.528   3.179   7.512
29156WAT      O87709   6.948   8.049   5.430
29156WAT     H187710   7.008   7.992   5.485
29156WAT     H287711   6.935   8.008   5.340
29157WAT      O87712   2.095   9.561   6.577
29157WAT     H187713   2.026   9.620   6.618
29157WAT     H287714   2.094   9.472   6.622
29158WAT      O87715   4.798   3.066   8.124
29158WAT     H187716   4.752   3.126   8.059
29158WAT     H287717   4.799   2.972   8.089
29159WAT      O87718   7.928   7.405   9.444
29159WAT     H187719   8.019   7.417   9.484
29159WAT     H287720   7.866   7.366   9.512
29160WAT      O87721   4.310   7.933   7.341
29160WAT     H187722   4.283   7.893   7.429
29160WAT     H287723   4.234   7.926   7.277
29161WAT      O87724   1.950   4.429   4.883
29161WAT     H187725   2.028   4.367   4.888
29161WAT     H287726   1.976   4.513   4.836
29162WAT      O87727   6.347   3.615   5.966
29162WAT     H187728   6.435   3.663   5.963
29162WAT     H287729   6.327   3.577   5.876
29163WAT      O87730   6.591   9.487   8.271
29163WAT     H187731   6.587   9.505   8.172
29163WAT     H287732   6.640   9.402   8.287
29164WAT      O87733   9.652   5.483   3.934
29164WAT     H187734   9.604   5.397   3.952
29164WAT     H287735   9.726   5.495   4.000
29165WAT      O87736   2.239   4.958   1.493
29165WAT     H187737   2.170   5.028   1.505
29165WAT     H287738   2.325   4.999   1.463
29166WAT      O87739   1.811   5.988   9.247
29166WAT     H187740   1.770   6.010   9.158
29166WAT     H287741   1.877   6.059   9.271
29167WAT      O87742   1.950   5.027   5.703
29167WAT     H187743   1.924   4.955   5.639
29167WAT     H287744   1.903   5.112   5.678
29168WAT      O87745   8.296   2.882   8.870
29168WAT     H187746   8.314   2.974   8.904
29168WAT     H287747   8.304   2.816   8.946
29169WAT      O87748   6.006   6.074   5.542
29169WAT     H187749   5.975   6.138   5.613
29169WAT     H287750   5.997   6.116   5.452
29170WAT      O87751   2.229   1.448   5.211
29170WAT     H187752   2.161   1.522   5.213
29170WAT     H287753   2.319   1.485   5.189
29171WAT      O87754   6.415   8.417   4.843
29171WAT     H187755   6.509   8.450   4.830
29171WAT     H287756   6.403   8.387   4.938
29172WAT      O87757   8.351   8.293   4.425
29172WAT     H187758   8.444   8.284   4.462
29172WAT     H287759   8.318   8.386   4.442
29173WAT      O87760   7.755   4.996   0.887
29173WAT     H187761   7.660   5.025   0.894
29173WAT     H287762   7.763   4.922   0.820
29174WAT      O87763   3.673   7.836   5.630
29174WAT     H187764   3.619   7.752   5.627
29174WAT     H287765   3.668   7.883   5.542
29175WAT      O87766   0.989   8.967   6.720
29175WAT     H187767   1.075   8.930   6.756
29175WAT     H287768   0.991   8.965   6.620
29176WAT      O87769   3.977   7.678   4.802
29176WAT     H187770   3.939   7.749   4.743
29176WAT     H287771   4.033   7.615   4.747
29177WAT      O87772   1.532   0.232   7.829
29177WAT     H187773   1.480   0.147   7.825
29177WAT     H287774   1.617   0.222   7.776
29178WAT      O87775   5.536   2.647   5.106
29178WAT     H187776   5.452   2.664   5.159
29178WAT     H287777   5.604   2.716   5.130
29179WAT      O87778   0.722   0.937   5.008
29179WAT     H187779   0.809   0.969   5.045
29179WAT     H287780   0.700   0.988   4.925
29180WAT      O87781   3.569   3.173   3.719
29180WAT     H187782   3.632   3.204   3.648
29180WAT     H287783   3.578   3.074   3.731
29181WAT      O87784   0.464   3.621   0.326
29181WAT     H187785   0.413   3.622   0.412
29181WAT     H287786   0.490   3.527   0.303
29182WAT      O87787   8.502   5.270   7.418
29182WAT     H187788   8.507   5.336   7.343
29182WAT     H287789   8.476   5.180   7.383
29183WAT      O87790   4.683   4.481   5.298
29183WAT     H187791   4.725   4.399   5.336
29183WAT     H287792   4.587   4.462   5.275
29184WAT      O87793   4.756   6.100   3.685
29184WAT     H187794   4.802   6.138   3.604
29184WAT     H287795   4.760   6.167   3.759
29185WAT      O87796   8.160   2.627   7.688
29185WAT     H187797   8.211   2.651   7.605
29185WAT     H287798   8.225   2.600   7.760
29186WAT      O87799   8.771   4.215   0.836
29186WAT     H187800   8.863   4.222   0.876
29186WAT     H287801   8.707   4.267   0.892
29187WAT      O87802   4.679   3.465   7.899
29187WAT     H187803   4.674   3.382   7.844
29187WAT     H287804   4.680   3.545   7.839
29188WAT      O87805   7.432   3.612   2.205
29188WAT     H187806   7.351   3.596   2.262
29188WAT     H287807   7.500   3.542   2.225
29189WAT      O87808   5.658   0.073   9.326
29189WAT     H187809   5.612  -0.012   9.300
29189WAT     H287810   5.602   0.122   9.393
29190WAT      O87811   1.261   4.624   7.848
29190WAT     H187812   1.190   4.576   7.900
29190WAT     H287813   1.344   4.569   7.847
29191WAT      O87814   8.048   4.584   2.561
29191WAT     H187815   8.032   4.682   2.570
29191WAT     H287816   8.135   4.560   2.604
29192WAT      O87817   7.576   3.602   6.782
29192WAT     H187818   7.616   3.535   6.845
29192WAT     H287819   7.477   3.586   6.775
29193WAT      O87820   0.620   3.171   1.030
29193WAT     H187821   0.713   3.175   0.993
29193WAT     H287822   0.601   3.255   1.082
29194WAT      O87823   0.080   1.783   4.328
29194WAT     H187824   0.096   1.748   4.235
29194WAT     H287825   0.026   1.867   4.323
29195WAT      O87826   5.801   6.981   1.682
29195WAT     H187827   5.772   7.077   1.691
29195WAT     H287828   5.733   6.931   1.628
29196WAT      O87829   0.137   9.159   4.684
29196WAT     H187830   0.115   9.236   4.624
29196WAT     H287831   0.232   9.167   4.715
29197WAT      O87832   3.291   4.645   9.576
29197WAT     H187833   3.316   4.625   9.481
29197WAT     H287834   3.374   4.655   9.630
29198WAT      O87835   9.170   0.516   1.593
29198WAT     H187836   9.165   0.430   1.643
29198WAT     H287837   9.078   0.551   1.577
29199WAT      O87838   3.429   0.772   3.512
29199WAT     H187839   3.445   0.843   3.444
29199WAT     H287840   3.508   0.765   3.573
29200WAT      O87841   5.536   4.935   2.719
29200WAT     H187842   5.499   5.011   2.774
29200WAT     H287843   5.502   4.848   2.755
29201WAT      O87844   2.220   5.796   8.812
29201WAT     H187845   2.307   5.841   8.833
29201WAT     H287846   2.156   5.811   8.888
29202WAT      O87847   9.840   6.077   1.997
29202WAT     H187848   9.766   6.041   2.055
29202WAT     H287849   9.926   6.072   2.047
29203WAT      O87850   4.072   5.063   7.855
29203WAT     H187851   4.111   5.098   7.770
29203WAT     H287852   4.132   4.993   7.893
29204WAT      O87853   6.403   4.409   8.432
29204WAT     H187854   6.401   4.419   8.532
29204WAT     H287855   6.327   4.460   8.392
29205WAT      O87856   6.045   6.085   2.259
29205WAT     H187857   6.140   6.080   2.291
29205WAT     H287858   5.993   6.147   2.318
29206WAT      O87859   2.235   5.048   0.432
29206WAT     H187860   2.295   4.990   0.487
29206WAT     H287861   2.206   5.127   0.487
29207WAT      O87862   8.982   7.698   5.273
29207WAT     H187863   9.031   7.691   5.359
29207WAT     H287864   9.024   7.768   5.215
29208WAT      O87865   6.414   6.067   1.903
29208WAT     H187866   6.479   6.062   1.978
29208WAT     H287867   6.321   6.073   1.939
29209WAT      O87868   5.130   5.704   0.319
29209WAT     H187869   5.052   5.693   0.258
29209WAT     H287870   5.204   5.751   0.271
29210WAT      O87871   9.251   4.196   5.258
29210WAT     H187872   9.313   4.232   5.328
29210WAT     H287873   9.178   4.263   5.240
29211WAT      O87874   6.313   6.974   5.279
29211WAT     H187875   6.284   7.069   5.290
29211WAT     H287876   6.296   6.944   5.186
29212WAT      O87877   0.141   0.393   9.104
29212WAT     H187878   0.121   0.295   9.095
29212WAT     H287879   0.121   0.439   9.018
29213WAT      O87880   0.256   7.814   1.215
29213WAT     H187881   0.228   7.726   1.177
29213WAT     H287882   0.355   7.823   1.209
29214WAT      O87883   6.640   8.552   2.581
29214WAT     H187884   6.718   8.614   2.570
29214WAT     H287885   6.583   8.585   2.656
29215WAT      O87886   2.456   6.104   6.021
29215WAT     H187887   2.495   6.092   6.112
29215WAT     H287888   2.442   6.014   5.979
29216WAT      O87889   1.305   9.518   1.367
29216WAT     H187890   1.285   9.442   1.305
29216WAT     H287891   1.390   9.501   1.415
29217WAT      O87892   9.410   1.444   9.637
29217WAT     H187893   9.356   1.471   9.717
29217WAT     H287894   9.470   1.367   9.660
29218WAT      O87895   8.377   0.598   1.008
29218WAT     H187896   8.314   0.569   0.936
29218WAT     H287897   8.426   0.519   1.044
29219WAT      O87898   8.678   1.565   8.889
29219WAT     H187899   8.676   1.640   8.955
29219WAT     H287900   8.641   1.597   8.802
29220WAT      O87901   8.975   4.054   1.586
29220WAT     H187902   9.073   4.045   1.602
29220WAT     H287903   8.938   3.967   1.555
29221WAT      O87904   4.584   5.599   8.956
29221WAT     H187905   4.621   5.667   8.892
29221WAT     H287906   4.497   5.631   8.993
29222WAT      O87907   7.331   9.155   7.467
29222WAT     H187908   7.372   9.243   7.491
29222WAT     H287909   7.248   9.141   7.521
29223WAT      O87910   1.448   4.997   4.658
29223WAT     H187911   1.416   4.906   4.683
29223WAT     H287912   1.392   5.066   4.702
29224WAT      O87913   9.240   7.455   5.289
29224WAT     H187914   9.209   7.378   5.234
29224WAT     H287915   9.207   7.443   5.383
29225WAT      O87916   6.308   7.646   6.921
29225WAT     H187917   6.306   7.547   6.928
29225WAT     H287918   6.343   7.685   7.007
29226WAT      O87919   3.228   3.207   3.790
29226WAT     H187920   3.161   3.209   3.716
29226WAT     H287921   3.318   3.231   3.754
29227WAT      O87922   7.898   8.324   9.674
29227WAT     H187923   7.968   8.338   9.605
29227WAT     H287924   7.858   8.412   9.700
29228WAT      O87925   6.705   4.112   6.442
29228WAT     H187926   6.733   4.113   6.346
29228WAT     H287927   6.638   4.185   6.458
29229WAT      O87928   8.336   1.027   6.884
29229WAT     H187929   8.431   1.050   6.906
29229WAT     H287930   8.320   1.042   6.786
29230WAT      O87931   3.710   5.192   3.571
29230WAT     H187932   3.717   5.246   3.487
29230WAT     H287933   3.802   5.178   3.609
29231WAT      O87934   2.559   9.236   9.060
29231WAT     H187935   2.520   9.225   9.152
29231WAT     H287936   2.490   9.215   8.991
29232WAT      O87937   0.188   4.467   6.985
29232WAT     H187938   0.132   4.467   7.068
29232WAT     H287939   0.254   4.542   6.989
29233WAT      O87940   6.027   5.443   3.541
29233WAT     H187941   5.928   5.440   3.530
29233WAT     H287942   6.050   5.438   3.638
29234WAT      O87943   3.334   8.617   7.211
29234WAT     H187944   3.331   8.533   7.266
29234WAT     H287945   3.311   8.596   7.116
29235WAT      O87946   9.773   8.419   1.180
29235WAT     H187947   9.751   8.378   1.269
29235WAT     H287948   9.688   8.443   1.134
29236WAT      O87949   6.228   7.676   4.010
29236WAT     H187950   6.211   7.578   4.007
29236WAT     H287951   6.238   7.711   3.916
29237WAT      O87952   1.724   7.363   4.225
29237WAT     H187953   1.688   7.431   4.289
29237WAT     H287954   1.650   7.328   4.168
29238WAT      O87955   6.433   2.770   5.226
29238WAT     H187956   6.501   2.825   5.177
29238WAT     H287957   6.343   2.811   5.215
29239WAT      O87958   8.654   1.893   1.903
29239WAT     H187959   8.690   1.948   1.827
29239WAT     H287960   8.661   1.944   1.988
29240WAT      O87961   9.847   3.419   6.848
29240WAT     H187962   9.780   3.491   6.830
29240WAT     H287963   9.924   3.429   6.785
29241WAT      O87964   9.887   2.013   1.851
29241WAT     H187965   9.889   2.113   1.845
29241WAT     H287966   9.879   1.985   1.946
29242WAT      O87967   8.373   8.360   3.415
29242WAT     H187968   8.371   8.299   3.494
29242WAT     H287969   8.307   8.433   3.428
29243WAT      O87970   9.509   9.554   0.972
29243WAT     H187971   9.419   9.560   0.928
29243WAT     H287972   9.568   9.496   0.917
29244WAT      O87973   0.001   6.935   4.851
29244WAT     H187974   0.019   6.881   4.768
29244WAT     H287975   0.067   7.010   4.857
29245WAT      O87976   7.865   8.580   0.704
29245WAT     H187977   7.816   8.575   0.616
29245WAT     H287978   7.952   8.531   0.696
29246WAT      O87979   3.661   6.071   4.106
29246WAT     H187980   3.739   6.111   4.154
29246WAT     H287981   3.682   5.976   4.080
29247WAT      O87982   1.823   8.495   4.779
29247WAT     H187983   1.862   8.577   4.737
29247WAT     H287984   1.897   8.438   4.814
29248WAT      O87985   9.274   2.345   5.630
29248WAT     H187986   9.281   2.387   5.721
29248WAT     H287987   9.216   2.264   5.635
29249WAT      O87988   7.109   3.177   0.044
29249WAT     H187989   7.114   3.209   0.138
29249WAT     H287990   7.177   3.224  -0.012
29250WAT      O87991   2.760   6.137   0.817
29250WAT     H187992   2.844   6.098   0.853
29250WAT     H287993   2.760   6.236   0.832
29251WAT      O87994   9.890   4.137   0.445
29251WAT     H187995   9.803   4.102   0.481
29251WAT     H287996   9.877   4.229   0.409
29252WAT      O87997   1.923   8.748   7.558
29252WAT     H187998   1.990   8.811   7.516
29252WAT     H287999   1.885   8.790   7.640
29253WAT      O88000   9.074   3.796   7.360
29253WAT     H188001   9.003   3.855   7.321
29253WAT     H288002   9.065   3.704   7.322
29254WAT      O88003   4.353   0.400   9.136
29254WAT     H188004   4.389   0.491   9.155
29254WAT     H288005   4.259   0.406   9.105
29255WAT      O88006   2.140   5.756   0.381
29255WAT     H188007   2.059   5.811   0.361
29255WAT     H288008   2.186   5.793   0.462
29256WAT      O88009   4.229   0.334   7.145
29256WAT     H188010   4.261   0.239   7.136
29256WAT     H288011   4.298   0.388   7.192
29257WAT      O88012   2.343   0.218   3.934
29257WAT     H188013   2.264   0.215   3.873
29257WAT     H288014   2.358   0.312   3.964
29258WAT      O88015   4.323   5.961   9.599
29258WAT     H188016   4.280   6.013   9.673
29258WAT     H288017   4.318   6.012   9.514
29259WAT      O88018   8.839   8.375   8.662
29259WAT     H188019   8.749   8.377   8.704
29259WAT     H288020   8.883   8.287   8.681
29260WAT      O88021   5.406   2.264   5.683
29260WAT     H188022   5.385   2.180   5.733
29260WAT     H288023   5.342   2.336   5.711
29261WAT      O88024   2.996   9.420   0.829
29261WAT     H188025   3.000   9.508   0.876
29261WAT     H288026   3.058   9.356   0.875
29262WAT      O88027   9.701   6.665   8.766
29262WAT     H188028   9.661   6.738   8.710
29262WAT     H288029   9.796   6.651   8.738
29263WAT      O88030   0.896   8.370   7.134
29263WAT     H188031   0.905   8.359   7.035
29263WAT     H288032   0.986   8.384   7.175
29264WAT      O88033   9.759   0.030   4.500
29264WAT     H188034   9.751   0.066   4.593
29264WAT     H288035   9.761   0.106   4.435
29265WAT      O88036   7.240   2.856   7.883
29265WAT     H188037   7.337   2.860   7.906
29265WAT     H288038   7.218   2.766   7.846
29266WAT      O88039   0.257   4.125   9.523
29266WAT     H188040   0.204   4.086   9.447
29266WAT     H288041   0.350   4.144   9.493
29267WAT      O88042   7.088   1.001   8.616
29267WAT     H188043   7.137   0.922   8.652
29267WAT     H288044   7.060   1.060   8.692
29268WAT      O88045   8.300   3.516   7.589
29268WAT     H188046   8.258   3.593   7.540
29268WAT     H288047   8.395   3.537   7.609
29269WAT      O88048   1.388   2.456   5.204
29269WAT     H188049   1.406   2.379   5.266
29269WAT     H288050   1.469   2.514   5.200
29270WAT      O88051   1.859   6.778   7.256
29270WAT     H188052   1.920   6.828   7.194
29270WAT     H288053   1.913   6.720   7.316
29271WAT      O88054   8.598   8.110   7.934
29271WAT     H188055   8.562   8.017   7.933
29271WAT     H288056   8.690   8.111   7.972
29272WAT      O88057   9.753   4.451   2.045
29272WAT     H188058   9.686   4.380   2.025
29272WAT     H288059   9.735   4.490   2.135
29273WAT      O88060   1.305   8.134   3.129
29273WAT     H188061   1.268   8.072   3.197
29273WAT     H288062   1.287   8.098   3.037
29274WAT      O88063   7.143   9.336   1.862
29274WAT     H188064   7.081   9.374   1.930
29274WAT     H288065   7.117   9.368   1.771
29275WAT      O88066   4.628   6.752   1.080
29275WAT     H188067   4.604   6.844   1.113
29275WAT     H288068   4.727   6.739   1.086
29276WAT      O88069   8.850   5.537   9.108
29276WAT     H188070   8.949   5.524   9.118
29276WAT     H288071   8.810   5.454   9.069
29277WAT      O88072   3.750   3.240   3.514
29277WAT     H188073   3.749   3.199   3.422
29277WAT     H288074   3.814   3.316   3.516
29278WAT      O88075   1.107   0.042   0.226
29278WAT     H188076   1.206   0.025   0.222
29278WAT     H288077   1.077   0.038   0.322
29279WAT      O88078   4.595   3.167   1.915
29279WAT     H188079   4.504   3.162   1.955
29279WAT     H288080   4.649   3.236   1.964
29280WAT      O88081   8.483   0.675   4.174
29280WAT     H188082   8.538   0.730   4.237
29280WAT     H288083   8.543   0.615   4.121
29281WAT      O88084   1.088   3.633   3.890
29281WAT     H188085   1.133   3.596   3.809
29281WAT     H288086   1.117   3.728   3.904
29282WAT      O88087   8.938   3.764   2.722
29282WAT     H188088   9.020   3.818   2.737
29282WAT     H288089   8.946   3.677   2.770
29283WAT      O88090   5.230   7.253   5.847
29283WAT     H188091   5.295   7.211   5.910
29283WAT     H288092   5.206   7.187   5.775
29284WAT      O88093   8.128   0.528   8.107
29284WAT     H188094   8.156   0.505   8.200
29284WAT     H288095   8.028   0.532   8.102
29285WAT      O88096   0.879   8.999   6.401
29285WAT     H188097   0.871   8.910   6.355
29285WAT     H288098   0.791   9.047   6.394
29286WAT      O88099   8.774   6.759   0.242
29286WAT     H188100   8.725   6.724   0.162
29286WAT     H288101   8.710   6.768   0.319
29287WAT      O88102   6.576   3.650   2.666
29287WAT     H188103   6.636   3.589   2.613
29287WAT     H288104   6.619   3.740   2.674
29288WAT      O88105   6.744   4.847   0.252
29288WAT     H188106   6.759   4.919   0.319
29288WAT     H288107   6.667   4.871   0.193
29289WAT      O88108   2.489   6.372   2.260
29289WAT     H188109   2.398   6.402   2.292
29289WAT     H288110   2.504   6.406   2.167
29290WAT      O88111   8.928   4.560   7.355
29290WAT     H188112   8.893   4.583   7.445
29290WAT     H288113   8.927   4.460   7.343
29291WAT      O88114   9.507   4.659   4.171
29291WAT     H188115   9.450   4.731   4.132
29291WAT     H288116   9.601   4.692   4.180
29292WAT      O88117   5.556   9.556   9.573
29292WAT     H188118   5.637   9.577   9.628
29292WAT     H288119   5.506   9.641   9.554
29293WAT      O88120   4.374   5.196   6.667
29293WAT     H188121   4.296   5.257   6.661
29293WAT     H288122   4.359   5.116   6.609
29294WAT      O88123   4.140   6.267   2.379
29294WAT     H188124   4.103   6.235   2.292
29294WAT     H288125   4.064   6.292   2.440
29295WAT      O88126   1.178   4.917   0.615
29295WAT     H188127   1.253   4.852   0.608
29295WAT     H288128   1.212   5.010   0.601
29296WAT      O88129   7.221   5.351   8.065
29296WAT     H188130   7.306   5.336   8.015
29296WAT     H288131   7.221   5.294   8.147
29297WAT      O88132   7.015   4.380   5.131
29297WAT     H188133   7.069   4.311   5.179
29297WAT     H288134   6.927   4.393   5.177
29298WAT      O88135   0.267   4.805   7.264
29298WAT     H188136   0.170   4.804   7.238
29298WAT     H288137   0.281   4.743   7.341
29299WAT      O88138   9.388   3.772   3.384
29299WAT     H188139   9.342   3.686   3.406
29299WAT     H288140   9.411   3.820   3.468
29300WAT      O88141   6.342   6.936   7.620
29300WAT     H188142   6.379   6.923   7.528
29300WAT     H288143   6.312   6.848   7.657
29301WAT      O88144   6.405   7.237   1.938
29301WAT     H188145   6.318   7.237   1.988
29301WAT     H288146   6.463   7.311   1.971
29302WAT      O88147   6.769   5.483   7.942
29302WAT     H188148   6.843   5.539   7.980
29302WAT     H288149   6.681   5.530   7.956
29303WAT      O88150   5.014   3.466   7.179
29303WAT     H188151   5.077   3.416   7.119
29303WAT     H288152   5.067   3.519   7.245
29304WAT      O88153   8.248   8.936   5.634
29304WAT     H188154   8.218   8.978   5.719
29304WAT     H288155   8.264   8.839   5.649
29305WAT      O88156   9.454   1.639   5.654
29305WAT     H188157   9.376   1.682   5.609
29305WAT     H288158   9.426   1.604   5.743
29306WAT      O88159   4.863   0.775   9.701
29306WAT     H188160   4.906   0.745   9.786
29306WAT     H288161   4.810   0.700   9.662
29307WAT      O88162   6.941   7.149   5.022
29307WAT     H188163   7.005   7.181   5.092
29307WAT     H288164   6.927   7.051   5.032
29308WAT      O88165   1.740   8.919   0.645
29308WAT     H188166   1.778   8.845   0.702
29308WAT     H288167   1.815   8.975   0.610
29309WAT      O88168   3.258   9.225   5.528
29309WAT     H188169   3.180   9.165   5.511
29309WAT     H288170   3.285   9.268   5.442
29310WAT      O88171   6.450   8.007   6.070
29310WAT     H188172   6.473   8.101   6.093
29310WAT     H288173   6.357   8.004   6.032
29311WAT      O88174   5.161   9.747   4.502
29311WAT     H188175   5.198   9.814   4.566
29311WAT     H288176   5.207   9.659   4.515
29312WAT      O88177   8.946   7.645   3.307
29312WAT     H188178   8.873   7.591   3.265
29312WAT     H288179   9.032   7.625   3.261
29313WAT      O88180   7.769   9.342   8.647
29313WAT     H188181   7.808   9.430   8.671
29313WAT     H288182   7.722   9.349   8.558
29314WAT      O88183   3.139   1.177   2.319
29314WAT     H188184   3.042   1.169   2.340
29314WAT     H288185   3.187   1.214   2.399
29315WAT      O88186   3.257   6.714   2.019
29315WAT     H188187   3.303   6.786   2.071
29315WAT     H288188   3.304   6.700   1.932
29316WAT      O88189   1.095   9.270   4.694
29316WAT     H188190   1.000   9.288   4.668
29316WAT     H288191   1.143   9.226   4.618
29317WAT      O88192   0.145   7.747   9.191
29317WAT     H188193   0.068   7.803   9.223
29317WAT     H288194   0.141   7.738   9.092
29318WAT      O88195   9.134   5.997   8.464
29318WAT     H188196   9.043   5.988   8.505
29318WAT     H288197   9.135   5.949   8.376
29319WAT      O88198   7.768   6.320   6.233
29319WAT     H188199   7.819   6.384   6.291
29319WAT     H288200   7.763   6.231   6.279
29320WAT      O88201   6.050   9.013   2.738
29320WAT     H188202   5.972   8.952   2.752
29320WAT     H288203   6.061   9.031   2.640
29321WAT      O88204   7.570   7.300   4.929
29321WAT     H188205   7.590   7.202   4.923
29321WAT     H288206   7.627   7.341   5.001
29322WAT      O88207   7.560   5.557   8.758
29322WAT     H188208   7.483   5.493   8.764
29322WAT     H288209   7.608   5.559   8.845
29323WAT      O88210   6.088   5.183   6.627
29323WAT     H188211   6.095   5.102   6.569
29323WAT     H288212   6.013   5.241   6.594
29324WAT      O88213   7.574   0.552   0.438
29324WAT     H188214   7.559   0.459   0.406
29324WAT     H288215   7.568   0.555   0.538
29325WAT      O88216   9.854   9.625   1.503
29325WAT     H188217   9.849   9.526   1.493
29325WAT     H288218   9.938   9.650   1.551
29326WAT      O88219   8.635   9.001   7.487
29326WAT     H188220   8.667   8.950   7.567
29326WAT     H288221   8.631   8.941   7.408
29327WAT      O88222   0.264   4.446   6.125
29327WAT     H188223   0.287   4.371   6.187
29327WAT     H288224   0.251   4.411   6.032
29328WAT      O88225   7.768   4.163   6.699
29328WAT     H188226   7.810   4.092   6.642
29328WAT     H288227   7.701   4.121   6.760
29329WAT      O88228   3.826   3.768   5.085
29329WAT     H188229   3.785   3.842   5.032
29329WAT     H288230   3.859   3.697   5.022
29330WAT      O88231   8.728   9.379   8.549
29330WAT     H188232   8.692   9.371   8.456
29330WAT     H288233   8.828   9.376   8.547
29331WAT      O88234   4.502   4.434   3.388
29331WAT     H188235   4.501   4.532   3.408
29331WAT     H288236   4.513   4.382   3.473
29332WAT      O88237   8.688   6.007   5.671
29332WAT     H188238   8.672   6.106   5.674
29332WAT     H288239   8.786   5.989   5.683
29333WAT      O88240   5.846   2.692   2.290
29333WAT     H188241   5.779   2.618   2.299
29333WAT     H288242   5.811   2.761   2.228
29334WAT      O88243   2.695   9.026   4.911
29334WAT     H188244   2.769   8.996   4.850
29334WAT     H288245   2.625   8.955   4.916
29335WAT      O88246   4.448   4.834   0.151
29335WAT     H188247   4.485   4.743   0.131
29335WAT     H288248   4.512   4.904   0.120
29336WAT      O88249   4.048   4.630   4.426
29336WAT     H188250   4.074   4.562   4.494
29336WAT     H288251   4.059   4.722   4.464
29337WAT      O88252   1.208   2.686   0.107
29337WAT     H188253   1.142   2.610   0.102
29337WAT     H288254   1.206   2.737   0.021
29338WAT      O88255   4.676   9.127   7.614
29338WAT     H188256   4.694   9.196   7.544
29338WAT     H288257   4.761   9.078   7.635
29339WAT      O88258   6.478   6.979   2.174
29339WAT     H188259   6.508   6.940   2.261
29339WAT     H288260   6.556   7.024   2.130
29340WAT      O88261   6.532   9.591   9.608
29340WAT     H188262   6.559   9.539   9.527
29340WAT     H288263   6.474   9.667   9.582
29341WAT      O88264   6.577   6.220   9.072
29341WAT     H188265   6.637   6.188   9.145
29341WAT     H288266   6.491   6.169   9.074
29342WAT      O88267   2.874   8.536   3.268
29342WAT     H188268   2.783   8.507   3.296
29342WAT     H288269   2.943   8.485   3.320
29343WAT      O88270   7.592   3.144   0.642
29343WAT     H188271   7.604   3.181   0.550
29343WAT     H288272   7.665   3.079   0.662
29344WAT      O88273   2.400   0.161   5.086
29344WAT     H188274   2.415   0.087   5.153
29344WAT     H288275   2.302   0.166   5.064
29345WAT      O88276   7.284   7.233   0.730
29345WAT     H188277   7.238   7.165   0.672
29345WAT     H288278   7.290   7.320   0.682
29346WAT      O88279   2.570   2.461   4.586
29346WAT     H188280   2.518   2.544   4.566
29346WAT     H288281   2.551   2.393   4.515
29347WAT      O88282   3.412   9.316   0.452
29347WAT     H188283   3.418   9.221   0.420
29347WAT     H288284   3.359   9.320   0.537
29348WAT      O88285   9.203   7.175   7.875
29348WAT     H188286   9.214   7.154   7.778
29348WAT     H288287   9.236   7.099   7.930
29349WAT      O88288   4.161   7.014   1.314
29349WAT     H188289   4.130   6.931   1.268
29349WAT     H288290   4.210   6.990   1.397
29350WAT      O88291   7.587   3.501   1.787
29350WAT     H188292   7.669   3.518   1.733
29350WAT     H288293   7.519   3.572   1.768
29351WAT      O88294   5.813   5.364   0.127
29351WAT     H188295   5.844   5.342   0.220
29351WAT     H288296   5.869   5.438   0.090
29352WAT      O88297   4.944   8.217   7.047
29352WAT     H188298   4.871   8.176   6.991
29352WAT     H288299   4.910   8.232   7.140
29353WAT      O88300   5.535   1.606   4.908
29353WAT     H188301   5.610   1.659   4.870
29353WAT     H288302   5.542   1.511   4.876
29354WAT      O88303   2.641   0.115   6.921
29354WAT     H188304   2.604   0.104   7.013
29354WAT     H288305   2.681   0.028   6.891
29355WAT      O88306   5.312   7.259   1.371
29355WAT     H188307   5.293   7.198   1.448
29355WAT     H288308   5.408   7.249   1.344
29356WAT      O88309   7.552   7.872   0.980
29356WAT     H188310   7.459   7.841   0.958
29356WAT     H288311   7.563   7.875   1.079
29357WAT      O88312   3.792   9.552   0.020
29357WAT     H188313   3.719   9.619   0.034
29357WAT     H288314   3.842   9.539   0.105
29358WAT      O88315   4.072   1.268   4.468
29358WAT     H188316   4.165   1.298   4.492
29358WAT     H288317   4.076   1.174   4.433
29359WAT      O88318   8.848   5.924   1.763
29359WAT     H188319   8.768   5.885   1.718
29359WAT     H288320   8.826   6.016   1.796
29360WAT      O88321   5.943   5.755   4.211
29360WAT     H188322   5.928   5.849   4.183
29360WAT     H288323   6.039   5.743   4.238
29361WAT      O88324   7.165   4.903   3.561
29361WAT     H188325   7.216   4.817   3.555
29361WAT     H288326   7.169   4.951   3.473
29362WAT      O88327   1.409   2.978   0.877
29362WAT     H188328   1.319   3.021   0.871
29362WAT     H288329   1.467   3.012   0.802
29363WAT      O88330   0.208   1.036   8.914
29363WAT     H188331   0.243   0.942   8.911
29363WAT     H288332   0.123   1.038   8.966
29364WAT      O88333   6.541   6.713   6.625
29364WAT     H188334   6.599   6.711   6.706
29364WAT     H288335   6.529   6.807   6.594
29365WAT      O88336   5.217   3.446   6.404
29365WAT     H188337   5.254   3.453   6.311
29365WAT     H288338   5.223   3.535   6.449
29366WAT      O88339   1.150   8.380   7.205
29366WAT     H188340   1.181   8.438   7.281
29366WAT     H288341   1.229   8.335   7.163
29367WAT      O88342   3.254   8.680   5.470
29367WAT     H188343   3.210   8.733   5.543
29367WAT     H288344   3.329   8.733   5.431
29368WAT      O88345   2.550   0.965   6.686
29368WAT     H188346   2.539   1.003   6.594
29368WAT     H288347   2.606   1.026   6.741
29369WAT      O88348   4.429   7.245   5.659
29369WAT     H188349   4.343   7.295   5.650
29369WAT     H288350   4.479   7.248   5.572
29370WAT      O88351   8.723   3.106   8.862
29370WAT     H188352   8.810   3.151   8.841
29370WAT     H288353   8.649   3.173   8.862
29371WAT      O88354   3.568   5.181   6.539
29371WAT     H188355   3.639   5.111   6.524
29371WAT     H288356   3.558   5.236   6.456
29372WAT      O88357   2.887   5.785   8.949
29372WAT     H188358   2.880   5.777   8.850
29372WAT     H288359   2.797   5.770   8.990
29373WAT      O88360   2.366   0.556   5.893
29373WAT     H188361   2.272   0.531   5.920
29373WAT     H288362   2.364   0.641   5.842
29374WAT      O88363   7.240   5.812   8.048
29374WAT     H188364   7.195   5.899   8.065
29374WAT     H288365   7.177   5.737   8.070
29375WAT      O88366   7.784   7.759   0.022
29375WAT     H188367   7.808   7.731  -0.071
29375WAT     H288368   7.867   7.778   0.074
29376WAT      O88369   4.472   5.591   6.858
29376WAT     H188370   4.486   5.666   6.922
29376WAT     H288371   4.422   5.625   6.778
29377WAT      O88372   7.654   4.706   7.874
29377WAT     H188373   7.747   4.677   7.847
29377WAT     H288374   7.587   4.659   7.817
29378WAT      O88375   4.133   7.076   6.022
29378WAT     H188376   4.183   6.991   6.040
29378WAT     H288377   4.056   7.057   5.960
29379WAT      O88378   7.719   3.701   7.182
29379WAT     H188379   7.763   3.640   7.248
29379WAT     H288380   7.631   3.662   7.155
29380WAT      O88381   3.864   0.842   8.825
29380WAT     H188382   3.934   0.894   8.873
29380WAT     H288383   3.774   0.876   8.851
29381WAT      O88384   4.278   7.904   4.759
29381WAT     H188385   4.226   7.893   4.674
29381WAT     H288386   4.321   7.817   4.782
29382WAT      O88387   4.577   1.031   9.458
29382WAT     H188388   4.613   1.097   9.525
29382WAT     H288389   4.653   0.995   9.404
29383WAT      O88390   6.515   9.254   8.566
29383WAT     H188391   6.476   9.343   8.589
29383WAT     H288392   6.612   9.253   8.589
29384WAT      O88393   7.483   3.177   7.284
29384WAT     H188394   7.449   3.084   7.271
29384WAT     H288395   7.556   3.177   7.352
29385WAT      O88396   4.730   8.860   5.999
29385WAT     H188397   4.637   8.858   5.963
29385WAT     H288398   4.791   8.900   5.932
29386WAT      O88399   9.136   6.800   9.581
29386WAT     H188400   9.118   6.815   9.679
29386WAT     H288401   9.225   6.755   9.570
29387WAT      O88402   8.758   0.651   3.304
29387WAT     H188403   8.736   0.742   3.338
29387WAT     H288404   8.822   0.659   3.227
29388WAT      O88405   6.960   6.330   1.135
29388WAT     H188406   6.870   6.367   1.112
29388WAT     H288407   6.950   6.259   1.204
29389WAT      O88408   0.299   1.963   5.417
29389WAT     H188409   0.244   1.879   5.420
29389WAT     H288410   0.346   1.975   5.504
29390WAT      O88411   8.855   5.758   8.866
29390WAT     H188412   8.782   5.817   8.829
29390WAT     H288413   8.814   5.687   8.923
29391WAT      O88414   1.487   6.075   6.130
29391WAT     H188415   1.557   6.097   6.198
29391WAT     H288416   1.529   6.071   6.039
29392WAT      O88417   2.603   2.332   8.906
29392WAT     H188418   2.560   2.406   8.854
29392WAT     H288419   2.702   2.340   8.899
29393WAT      O88420   2.334   8.717   2.040
29393WAT     H188421   2.267   8.762   2.099
29393WAT     H288422   2.297   8.708   1.948
29394WAT      O88423   5.212   8.186   9.599
29394WAT     H188424   5.282   8.220   9.536
29394WAT     H288425   5.240   8.096   9.633
29395WAT      O88426   0.703   9.281   8.239
29395WAT     H188427   0.738   9.335   8.316
29395WAT     H288428   0.778   9.230   8.197
29396WAT      O88429   0.168   8.467   9.170
29396WAT     H188430   0.071   8.480   9.192
29396WAT     H288431   0.181   8.376   9.131
29397WAT      O88432   6.856   8.348   2.326
29397WAT     H188433   6.771   8.318   2.368
29397WAT     H288434   6.861   8.448   2.329
29398WAT      O88435   8.171   3.787   8.599
29398WAT     H188436   8.129   3.843   8.528
29398WAT     H288437   8.179   3.693   8.567
29399WAT      O88438   8.209   4.546   2.309
29399WAT     H188439   8.284   4.599   2.349
29399WAT     H288440   8.130   4.549   2.370
29400WAT      O88441   6.629   3.060   7.821
29400WAT     H188442   6.630   3.129   7.894
29400WAT     H288443   6.534   3.032   7.804
29401WAT      O88444   1.708   6.293   1.997
29401WAT     H188445   1.626   6.240   1.979
29401WAT     H288446   1.789   6.236   1.981
29402WAT      O88447   4.582   5.345   8.850
29402WAT     H188448   4.584   5.426   8.909
29402WAT     H288449   4.629   5.366   8.764
29403WAT      O88450   1.054   6.489   4.145
29403WAT     H188451   0.988   6.434   4.197
29403WAT     H288452   1.032   6.484   4.048
29404WAT      O88453   5.652   1.297   6.344
29404WAT     H188454   5.711   1.247   6.408
29404WAT     H288455   5.708   1.332   6.269
29405WAT      O88456   2.187   4.547   3.436
29405WAT     H188457   2.195   4.646   3.420
29405WAT     H288458   2.216   4.527   3.530
29406WAT      O88459   8.874   2.517   4.651
29406WAT     H188460   8.924   2.562   4.724
29406WAT     H288461   8.778   2.546   4.652
29407WAT      O88462   1.564   4.621   3.916
29407WAT     H188463   1.629   4.567   3.862
29407WAT     H288464   1.527   4.695   3.858
29408WAT      O88465   2.390   1.310   9.335
29408WAT     H188466   2.416   1.227   9.285
29408WAT     H288467   2.440   1.388   9.298
29409WAT      O88468   7.549   3.444   8.976
29409WAT     H188469   7.571   3.443   9.073
29409WAT     H288470   7.539   3.539   8.945
29410WAT      O88471   9.069   7.694   9.113
29410WAT     H188472   9.130   7.772   9.125
29410WAT     H288473   9.123   7.613   9.090
29411WAT      O88474   8.590   9.692   5.861
29411WAT     H188475   8.534   9.618   5.897
29411WAT     H288476   8.650   9.657   5.789
29412WAT      O88477   7.740   8.800   3.564
29412WAT     H188478   7.666   8.812   3.498
29412WAT     H288479   7.708   8.744   3.641
29413WAT      O88480   7.836   7.028   9.477
29413WAT     H188481   7.827   7.081   9.393
29413WAT     H288482   7.760   6.963   9.483
29414WAT      O88483   6.844   8.551   6.894
29414WAT     H188484   6.823   8.459   6.862
29414WAT     H288485   6.817   8.561   6.990
29415WAT      O88486   8.893   5.029   5.165
29415WAT     H188487   8.842   5.083   5.231
29415WAT     H288488   8.906   4.936   5.201
29416WAT      O88489   4.032   1.799   7.028
29416WAT     H188490   4.057   1.839   7.116
29416WAT     H288491   3.989   1.868   6.970
29417WAT      O88492   6.572   8.542   6.123
29417WAT     H188493   6.525   8.535   6.035
29417WAT     H288494   6.517   8.595   6.187
29418WAT      O88495   6.351   9.795   9.551
29418WAT     H188496   6.260   9.755   9.558
29418WAT     H288497   6.354   9.859   9.474
29419WAT      O88498   2.633   7.857   3.361
29419WAT     H188499   2.683   7.770   3.369
29419WAT     H288500   2.698   7.933   3.368
29420WAT      O88501   1.218   8.314   3.327
29420WAT     H188502   1.246   8.267   3.243
29420WAT     H288503   1.290   8.378   3.355
29421WAT      O88504   8.625   6.757   6.918
29421WAT     H188505   8.686   6.800   6.852
29421WAT     H288506   8.641   6.796   7.009
29422WAT      O88507   3.893   8.089   4.667
29422WAT     H188508   3.953   8.122   4.595
29422WAT     H288509   3.871   8.163   4.730
29423WAT      O88510   3.104   3.360   0.496
29423WAT     H188511   3.085   3.356   0.594
29423WAT     H288512   3.039   3.302   0.447
29424WAT      O88513   5.249   9.828   7.993
29424WAT     H188514   5.200   9.755   7.946
29424WAT     H288515   5.234   9.915   7.945
29425WAT      O88516   1.919   5.890   7.445
29425WAT     H188517   1.928   5.936   7.533
29425WAT     H288518   1.822   5.883   7.421
29426WAT      O88519   4.229   4.356   9.751
29426WAT     H188520   4.167   4.429   9.723
29426WAT     H288521   4.176   4.284   9.796
29427WAT      O88522   0.185   3.652   4.324
29427WAT     H188523   0.116   3.698   4.268
29427WAT     H288524   0.159   3.556   4.337
29428WAT      O88525   3.701   2.435   8.957
29428WAT     H188526   3.615   2.391   8.931
29428WAT     H288527   3.754   2.374   9.016
29429WAT      O88528   0.844   7.939   3.939
29429WAT     H188529   0.815   7.846   3.961
29429WAT     H288530   0.767   8.002   3.948
29430WAT      O88531   4.641   2.782   8.365
29430WAT     H188532   4.547   2.800   8.395
29430WAT     H288533   4.698   2.862   8.384
29431WAT      O88534   7.767   9.785   3.964
29431WAT     H188535   7.847   9.805   4.019
29431WAT     H288536   7.685   9.822   4.008
29432WAT      O88537   3.957   0.173   1.344
29432WAT     H188538   3.970   0.234   1.265
29432WAT     H288539   4.025   0.194   1.413
29433WAT      O88540   8.050   0.527   5.912
29433WAT     H188541   8.019   0.622   5.908
29433WAT     H288542   8.150   0.524   5.910
29434WAT      O88543   6.464   8.129   1.808
29434WAT     H188544   6.385   8.074   1.782
29434WAT     H288545   6.469   8.210   1.751
29435WAT      O88546   7.187   3.792   9.665
29435WAT     H188547   7.149   3.702   9.685
29435WAT     H288548   7.172   3.854   9.742
29436WAT      O88549   1.083   5.382   3.786
29436WAT     H188550   1.027   5.446   3.732
29436WAT     H288551   1.116   5.309   3.727
29437WAT      O88552   0.110   3.721   8.668
29437WAT     H188553   0.162   3.805   8.685
29437WAT     H288554   0.138   3.682   8.581
29438WAT      O88555   6.936   3.526   4.472
29438WAT     H188556   6.840   3.519   4.501
29438WAT     H288557   6.992   3.464   4.526
29439WAT      O88558   1.631   2.709   1.471
29439WAT     H188559   1.725   2.674   1.465
29439WAT     H288560   1.597   2.728   1.379
29440WAT      O88561   6.240   9.079   2.130
29440WAT     H188562   6.340   9.074   2.132
29440WAT     H288563   6.212   9.174   2.121
29441WAT      O88564   3.959   8.198   9.494
29441WAT     H188565   3.996   8.236   9.409
29441WAT     H288566   3.955   8.269   9.563
29442WAT      O88567   2.754   6.969   8.217
29442WAT     H188568   2.729   6.963   8.314
29442WAT     H288569   2.694   6.910   8.164
29443WAT      O88570   8.756   0.722   5.326
29443WAT     H188571   8.743   0.714   5.425
29443WAT     H288572   8.673   0.761   5.285
29444WAT      O88573   7.002   7.480   7.222
29444WAT     H188574   7.086   7.431   7.198
29444WAT     H288575   6.968   7.448   7.310
29445WAT      O88576   3.384   8.735   7.500
29445WAT     H188577   3.336   8.781   7.426
29445WAT     H288578   3.393   8.797   7.578
29446WAT      O88579   5.153   1.842   1.795
29446WAT     H188580   5.179   1.891   1.712
29446WAT     H288581   5.062   1.802   1.784
29447WAT      O88582   7.099   3.284   1.549
29447WAT     H188583   7.076   3.375   1.514
29447WAT     H288584   7.149   3.233   1.480
29448WAT      O88585   0.932   5.770   9.616
29448WAT     H188586   1.005   5.714   9.577
29448WAT     H288587   0.861   5.784   9.546
29449WAT      O88588   6.555   9.235   8.011
29449WAT     H188589   6.491   9.183   7.955
29449WAT     H288590   6.594   9.176   8.082
29450WAT      O88591   9.474   0.312   6.145
29450WAT     H188592   9.523   0.362   6.074
29450WAT     H288593   9.376   0.335   6.141
29451WAT      O88594   2.121   5.988   4.001
29451WAT     H188595   2.045   6.011   4.062
29451WAT     H288596   2.202   5.967   4.056
29452WAT      O88597   0.309   2.393   3.620
29452WAT     H188598   0.242   2.426   3.553
29452WAT     H288599   0.374   2.332   3.574
29453WAT      O88600   5.948   6.705   7.048
29453WAT     H188601   5.871   6.768   7.053
29453WAT     H288602   5.948   6.645   7.128
29454WAT      O88603   1.516   9.212   6.925
29454WAT     H188604   1.498   9.286   6.991
29454WAT     H288605   1.604   9.170   6.946
29455WAT      O88606   9.082   5.233   6.078
29455WAT     H188607   9.107   5.202   5.986
29455WAT     H288608   9.159   5.219   6.140
29456WAT      O88609   5.315   5.357   7.164
29456WAT     H188610   5.397   5.360   7.221
29456WAT     H288611   5.343   5.357   7.067
29457WAT      O88612   7.985   2.059   2.206
29457WAT     H188613   7.969   1.960   2.209
29457WAT     H288614   8.045   2.085   2.282
29458WAT      O88615   1.889   8.738   4.076
29458WAT     H188616   1.825   8.795   4.128
29458WAT     H288617   1.979   8.741   4.120
29459WAT      O88618   1.341   3.769   5.023
29459WAT     H188619   1.313   3.744   4.931
29459WAT     H288620   1.429   3.727   5.044
29460WAT      O88621   0.482   2.267   2.638
29460WAT     H188622   0.568   2.218   2.651
29460WAT     H288623   0.423   2.216   2.576
29461WAT      O88624   3.643   5.163   1.055
29461WAT     H188625   3.728   5.205   1.088
29461WAT     H288626   3.579   5.235   1.028
29462WAT      O88627   2.919   8.045   7.732
29462WAT     H188628   2.877   8.039   7.641
29462WAT     H288629   2.987   7.972   7.741
29463WAT      O88630   0.976   3.540   5.793
29463WAT     H188631   0.955   3.566   5.699
29463WAT     H288632   0.893   3.544   5.848
29464WAT      O88633   5.107   6.656   0.448
29464WAT     H188634   5.073   6.700   0.532
29464WAT     H288635   5.195   6.697   0.422
29465WAT      O88636   6.820   2.372   6.560
29465WAT     H188637   6.762   2.308   6.510
29465WAT     H288638   6.763   2.447   6.595
29466WAT      O88639   6.446   2.511   5.194
29466WAT     H188640   6.437   2.609   5.207
29466WAT     H288641   6.418   2.486   5.101
29467WAT      O88642   6.172   1.547   5.244
29467WAT     H188643   6.131   1.638   5.250
29467WAT     H288644   6.222   1.539   5.158
29468WAT      O88645   1.394   4.771   4.930
29468WAT     H188646   1.427   4.861   4.961
29468WAT     H288647   1.325   4.784   4.858
29469WAT      O88648   4.251   4.787   1.755
29469WAT     H188649   4.274   4.786   1.852
29469WAT     H288650   4.164   4.739   1.741
29470WAT      O88651   9.667   1.906   2.780
29470WAT     H188652   9.666   1.899   2.879
29470WAT     H288653   9.748   1.861   2.744
29471WAT      O88654   0.865   4.664   0.770
29471WAT     H188655   0.828   4.750   0.736
29471WAT     H288656   0.830   4.646   0.862
29472WAT      O88657   5.829   6.955   7.746
29472WAT     H188658   5.861   6.983   7.655
29472WAT     H288659   5.731   6.975   7.754
29473WAT      O88660   9.837   0.236   0.740
29473WAT     H188661   9.934   0.241   0.713
29473WAT     H288662   9.815   0.142   0.765
29474WAT      O88663   0.228   1.186   9.392
29474WAT     H188664   0.201   1.159   9.484
29474WAT     H288665   0.325   1.168   9.379
29475WAT      O88666   7.229   7.218   3.434
29475WAT     H188667   7.138   7.193   3.467
29475WAT     H288668   7.286   7.247   3.511
29476WAT      O88669   6.742   8.889   8.583
29476WAT     H188670   6.643   8.900   8.582
29476WAT     H288671   6.770   8.850   8.671
29477WAT      O88672   1.926   3.075   5.663
29477WAT     H188673   1.948   3.172   5.654
29477WAT     H288674   1.831   3.065   5.693
29478WAT      O88675   2.667   0.326   4.350
29478WAT     H188676   2.752   0.357   4.391
29478WAT     H288677   2.666   0.350   4.253
29479WAT      O88678   1.194   7.687   0.232
29479WAT     H188679   1.215   7.706   0.136
29479WAT     H288680   1.153   7.768   0.273
29480WAT      O88681   2.904   0.537   4.862
29480WAT     H188682   2.810   0.504   4.874
29480WAT     H288683   2.904   0.636   4.853
29481WAT      O88684   8.849   3.773   6.596
29481WAT     H188685   8.795   3.842   6.548
29481WAT     H288686   8.944   3.777   6.564
29482WAT      O88687   2.946   9.201   6.519
29482WAT     H188688   2.887   9.208   6.599
29482WAT     H288689   3.015   9.273   6.522
29483WAT      O88690   4.046   0.695   6.970
29483WAT     H188691   3.999   0.608   6.955
29483WAT     H288692   3.984   0.759   7.014
29484WAT      O88693   0.711   8.502   6.403
29484WAT     H188694   0.737   8.509   6.500
29484WAT     H288695   0.784   8.455   6.352
29485WAT      O88696   9.036   6.363   1.648
29485WAT     H188697   9.070   6.276   1.612
29485WAT     H288698   9.085   6.439   1.605
29486WAT      O88699   7.151   8.317   4.054
29486WAT     H188700   7.162   8.231   4.004
29486WAT     H288701   7.186   8.392   3.998
29487WAT      O88702   9.082   7.119   0.973
29487WAT     H188703   9.077   7.139   1.071
29487WAT     H288704   9.148   7.045   0.957
29488WAT      O88705   4.028   4.513   9.653
29488WAT     H188706   4.002   4.452   9.579
29488WAT     H288707   4.018   4.608   9.624
29489WAT      O88708   8.417   0.727   3.811
29489WAT     H188709   8.493   0.661   3.815
29489WAT     H288710   8.335   0.685   3.849
29490WAT      O88711   9.826   6.266   5.949
29490WAT     H188712   9.837   6.187   6.009
29490WAT     H288713   9.740   6.258   5.898
29491WAT      O88714   6.660   3.460   7.482
29491WAT     H188715   6.654   3.387   7.550
29491WAT     H288716   6.613   3.541   7.516
29492WAT      O88717   8.149   9.234   8.037
29492WAT     H188718   8.245   9.256   8.021
29492WAT     H288719   8.103   9.221   7.950
29493WAT      O88720   6.231   4.378   5.566
29493WAT     H188721   6.243   4.383   5.467
29493WAT     H288722   6.266   4.461   5.609
29494WAT      O88723   4.778   1.246   4.916
29494WAT     H188724   4.867   1.209   4.889
29494WAT     H288725   4.711   1.171   4.917
29495WAT      O88726   5.147   2.967   5.662
29495WAT     H188727   5.076   2.944   5.729
29495WAT     H288728   5.212   3.031   5.703
29496WAT      O88729   0.378   6.351   3.213
29496WAT     H188730   0.462   6.330   3.162
29496WAT     H288731   0.308   6.282   3.191
29497WAT      O88732   3.316   9.263   4.977
29497WAT     H188733   3.376   9.183   4.969
29497WAT     H288734   3.221   9.233   4.986
29498WAT      O88735   9.641   1.467   9.215
29498WAT     H188736   9.716   1.527   9.185
29498WAT     H288737   9.605   1.417   9.136
29499WAT      O88738   5.129   4.505   2.702
29499WAT     H188739   5.158   4.452   2.781
29499WAT     H288740   5.108   4.599   2.731
29500WAT      O88741   4.236   1.402   1.596
29500WAT     H188742   4.280   1.384   1.684
29500WAT     H288743   4.147   1.355   1.593
29501WAT      O88744   3.180   0.354   0.457
29501WAT     H188745   3.224   0.437   0.422
29501WAT     H288746   3.250   0.291   0.492
29502WAT      O88747   3.981   7.191   2.846
29502WAT     H188748   4.066   7.226   2.807
29502WAT     H288749   4.000   7.143   2.931
29503WAT      O88750   9.006   5.024   1.543
29503WAT     H188751   8.933   4.993   1.605
29503WAT     H288752   9.064   5.091   1.590
29504WAT      O88753   2.733   9.371   1.880
29504WAT     H188754   2.684   9.386   1.794
29504WAT     H288755   2.683   9.306   1.937
29505WAT      O88756   1.790   3.728   6.820
29505WAT     H188757   1.714   3.671   6.851
29505WAT     H288758   1.864   3.670   6.785
29506WAT      O88759   5.511   3.333   2.653
29506WAT     H188760   5.560   3.298   2.733
29506WAT     H288761   5.454   3.261   2.614
29507WAT      O88762   9.432   5.955   2.886
29507WAT     H188763   9.335   5.932   2.881
29507WAT     H288764   9.458   6.008   2.806
29508WAT      O88765   6.315   9.320   4.822
29508WAT     H188766   6.321   9.324   4.722
29508WAT     H288767   6.386   9.378   4.862
29509WAT      O88768   0.421   5.766   6.813
29509WAT     H188769   0.374   5.833   6.756
29509WAT     H288770   0.402   5.785   6.910
29510WAT      O88771   6.496   6.013   7.121
29510WAT     H188772   6.474   5.963   7.038
29510WAT     H288773   6.586   5.985   7.155
29511WAT      O88774   7.155   6.262   6.857
29511WAT     H188775   7.083   6.193   6.862
29511WAT     H288776   7.155   6.304   6.767
29512WAT      O88777   0.583   1.222   1.275
29512WAT     H188778   0.681   1.218   1.258
29512WAT     H288779   0.543   1.131   1.261
29513WAT      O88780   3.063   9.834   5.238
29513WAT     H188781   3.096   9.755   5.187
29513WAT     H288782   3.034   9.805   5.330
29514WAT      O88783   5.814   1.928   4.993
29514WAT     H188784   5.785   1.908   5.087
29514WAT     H288785   5.739   1.905   4.931
29515WAT      O88786   0.533   2.362   1.889
29515WAT     H188787   0.459   2.312   1.845
29515WAT     H288788   0.577   2.304   1.958
29516WAT      O88789   4.772   9.725   1.138
29516WAT     H188790   4.695   9.706   1.199
29516WAT     H288791   4.848   9.664   1.160
29517WAT      O88792   4.277   1.014   4.152
29517WAT     H188793   4.300   1.008   4.249
29517WAT     H288794   4.299   0.927   4.107
29518WAT      O88795   9.053   4.381   3.182
29518WAT     H188796   9.095   4.432   3.107
29518WAT     H288797   9.098   4.293   3.191
29519WAT      O88798   4.582   2.533   6.387
29519WAT     H188799   4.544   2.625   6.382
29519WAT     H288800   4.606   2.502   6.296
29520WAT      O88801   2.892   8.682   3.840
29520WAT     H188802   2.887   8.777   3.811
29520WAT     H288803   2.975   8.640   3.804
29521WAT      O88804   4.968   0.748   1.330
29521WAT     H188805   4.933   0.836   1.300
29521WAT     H288806   4.892   0.688   1.355
29522WAT      O88807   9.439   8.315   1.446
29522WAT     H188808   9.362   8.356   1.493
29522WAT     H288809   9.518   8.375   1.452
29523WAT      O88810   7.094   9.484   2.635
29523WAT     H188811   7.184   9.516   2.608
29523WAT     H288812   7.024   9.533   2.583
29524WAT      O88813   9.089   8.776   8.269
29524WAT     H188814   9.035   8.797   8.351
29524WAT     H288815   9.175   8.732   8.297
29525WAT      O88816   2.387   9.186   6.456
29525WAT     H188817   2.476   9.140   6.454
29525WAT     H288818   2.398   9.280   6.425
29526WAT      O88819   1.448   0.861   1.259
29526WAT     H188820   1.397   0.792   1.208
29526WAT     H288821   1.483   0.930   1.196
29527WAT      O88822   1.508   8.217   1.209
29527WAT     H188823   1.486   8.122   1.186
29527WAT     H288824   1.454   8.278   1.152
29528WAT      O88825   8.586   2.737   4.989
29528WAT     H188826   8.537   2.730   5.075
29528WAT     H288827   8.674   2.690   4.996
29529WAT      O88828   3.779   7.121   2.258
29529WAT     H188829   3.712   7.191   2.231
29529WAT     H288830   3.861   7.131   2.202
29530WAT      O88831   2.599   6.739   0.877
29530WAT     H188832   2.536   6.754   0.801
29530WAT     H288833   2.631   6.827   0.911
29531WAT      O88834   1.294   7.067   1.625
29531WAT     H188835   1.311   7.077   1.527
29531WAT     H288836   1.239   7.144   1.657
29532WAT      O88837   0.577   4.831   2.865
29532WAT     H188838   0.501   4.788   2.914
29532WAT     H288839   0.571   4.930   2.876
29533WAT      O88840   5.974   4.184   9.573
29533WAT     H188841   5.940   4.264   9.622
29533WAT     H288842   5.898   4.123   9.552
29534WAT      O88843   0.618   7.767   3.236
29534WAT     H188844   0.560   7.802   3.162
29534WAT     H288845   0.668   7.686   3.203
29535WAT      O88846   8.915   9.401   6.054
29535WAT     H188847   8.968   9.322   6.084
29535WAT     H288848   8.843   9.420   6.121
29536WAT      O88849   2.822   4.067   5.480
29536WAT     H188850   2.843   4.076   5.383
29536WAT     H288851   2.886   4.003   5.522
29537WAT      O88852   6.177   8.777   6.273
29537WAT     H188853   6.113   8.846   6.308
29537WAT     H288854   6.192   8.708   6.344
29538WAT      O88855   1.883   9.349   4.673
29538WAT     H188856   1.980   9.326   4.684
29538WAT     H288857   1.870   9.397   4.587
29539WAT      O88858   0.357   1.546   6.414
29539WAT     H188859   0.273   1.515   6.369
29539WAT     H288860   0.380   1.638   6.382
29540WAT      O88861   9.865   6.712   7.631
29540WAT     H188862   9.849   6.670   7.542
29540WAT     H288863   9.777   6.729   7.676
29541WAT      O88864   7.132   7.609   2.751
29541WAT     H188865   7.181   7.596   2.665
29541WAT     H288866   7.066   7.536   2.764
29542WAT      O88867   1.042   5.874   8.786
29542WAT     H188868   1.082   5.786   8.810
29542WAT     H288869   0.947   5.877   8.818
29543WAT      O88870   8.281   6.743   6.335
29543WAT     H188871   8.212   6.815   6.326
29543WAT     H288872   8.250   6.661   6.285
29544WAT      O88873   4.564   1.262   4.721
29544WAT     H188874   4.562   1.243   4.819
29544WAT     H288875   4.638   1.326   4.700
29545WAT      O88876   6.801   4.200   1.802
29545WAT     H188877   6.808   4.276   1.737
29545WAT     H288878   6.737   4.224   1.875
29546WAT      O88879   1.556   2.254   9.301
29546WAT     H188880   1.471   2.205   9.321
29546WAT     H288881   1.632   2.190   9.297
29547WAT      O88882   5.840   9.312   0.196
29547WAT     H188883   5.874   9.385   0.136
29547WAT     H288884   5.764   9.346   0.250
29548WAT      O88885   7.259   2.349   9.655
29548WAT     H188886   7.236   2.426   9.595
29548WAT     H288887   7.248   2.376   9.750
29549WAT      O88888   9.854   8.547   6.343
29549WAT     H188889   9.820   8.493   6.419
29549WAT     H288890   9.887   8.635   6.377
29550WAT      O88891   0.416   1.648   0.712
29550WAT     H188892   0.396   1.566   0.659
29550WAT     H288893   0.414   1.626   0.810
29551WAT      O88894   2.532   9.419   8.616
29551WAT     H188895   2.570   9.412   8.709
29551WAT     H288896   2.476   9.502   8.610
29552WAT      O88897   2.148   7.882   7.915
29552WAT     H188898   2.162   7.830   7.999
29552WAT     H288899   2.159   7.822   7.836
29553WAT      O88900   4.497   7.237   0.672
29553WAT     H188901   4.401   7.225   0.644
29553WAT     H288902   4.546   7.151   0.664
29554WAT      O88903   3.780   5.006   5.012
29554WAT     H188904   3.865   4.958   4.991
29554WAT     H288905   3.798   5.103   5.024
29555WAT      O88906   7.431   3.880   4.356
29555WAT     H188907   7.509   3.897   4.417
29555WAT     H288908   7.371   3.960   4.356
29556WAT      O88909   1.173   7.679   1.683
29556WAT     H188910   1.164   7.722   1.773
29556WAT     H288911   1.102   7.609   1.673
29557WAT      O88912   0.801   3.820   1.527
29557WAT     H188913   0.855   3.903   1.542
29557WAT     H288914   0.801   3.797   1.430
29558WAT      O88915   8.881   3.694   5.199
29558WAT     H188916   8.803   3.723   5.144
29558WAT     H288917   8.962   3.689   5.141
29559WAT      O88918   7.009   4.764   4.299
29559WAT     H188919   7.096   4.811   4.310
29559WAT     H288920   6.936   4.831   4.286
29560WAT      O88921   5.569   8.751   1.906
29560WAT     H188922   5.545   8.814   1.981
29560WAT     H288923   5.485   8.709   1.870
29561WAT      O88924   5.656   3.602   2.071
29561WAT     H188925   5.560   3.579   2.052
29561WAT     H288926   5.681   3.684   2.019
29562WAT      O88927   8.168   3.294   5.856
29562WAT     H188928   8.228   3.235   5.802
29562WAT     H288929   8.113   3.238   5.918
29563WAT      O88930   6.963   0.722   4.932
29563WAT     H188931   7.033   0.726   5.003
29563WAT     H288932   6.964   0.806   4.878
29564WAT      O88933   0.764   7.054   7.075
29564WAT     H188934   0.779   6.994   6.996
29564WAT     H288935   0.743   7.146   7.043
29565WAT      O88936   6.007   0.817   7.706
29565WAT     H188937   6.036   0.903   7.750
29565WAT     H288938   6.080   0.784   7.647
29566WAT      O88939   0.139   1.989   5.171
29566WAT     H188940   0.196   1.916   5.135
29566WAT     H288941   0.181   2.078   5.153
29567WAT      O88942   7.125   6.059   8.772
29567WAT     H188943   7.198   5.995   8.796
29567WAT     H288944   7.054   6.057   8.842
29568WAT      O88945   9.738   9.117   1.426
29568WAT     H188946   9.675   9.041   1.415
29568WAT     H288947   9.747   9.167   1.340
29569WAT      O88948   2.531   9.312   4.918
29569WAT     H188949   2.502   9.408   4.913
29569WAT     H288950   2.618   9.301   4.869
29570WAT      O88951   7.900   1.358   9.512
29570WAT     H188952   7.927   1.298   9.438
29570WAT     H288953   7.956   1.441   9.511
29571WAT      O88954   2.104   0.511   4.377
29571WAT     H188955   2.029   0.460   4.418
29571WAT     H288956   2.129   0.470   4.289
29572WAT      O88957   7.687   0.496   2.604
29572WAT     H188958   7.770   0.441   2.609
29572WAT     H288959   7.620   0.451   2.545
29573WAT      O88960   4.631   5.971   2.835
29573WAT     H188961   4.731   5.966   2.832
29573WAT     H288962   4.595   5.887   2.877
29574WAT      O88963   1.598   4.862   6.795
29574WAT     H188964   1.536   4.787   6.772
29574WAT     H288965   1.586   4.888   6.891
29575WAT      O88966   1.152   1.017   1.818
29575WAT     H188967   1.068   1.060   1.786
29575WAT     H288968   1.130   0.948   1.887
29576WAT      O88969   6.678   0.710   3.133
29576WAT     H188970   6.708   0.771   3.059
29576WAT     H288971   6.709   0.747   3.220
29577WAT      O88972   7.847   0.067   2.547
29577WAT     H188973   7.784  -0.010   2.560
29577WAT     H288974   7.926   0.037   2.494
29578WAT      O88975   3.427   9.288   3.304
29578WAT     H188976   3.384   9.375   3.330
29578WAT     H288977   3.515   9.279   3.351
29579WAT      O88978   7.444   5.644   7.898
29579WAT     H188979   7.497   5.698   7.832
29579WAT     H288980   7.375   5.703   7.941
29580WAT      O88981   2.369   0.793   6.447
29580WAT     H188982   2.457   0.827   6.412
29580WAT     H288983   2.340   0.715   6.392
29581WAT      O88984   5.712   7.381   8.286
29581WAT     H188985   5.715   7.307   8.219
29581WAT     H288986   5.659   7.351   8.366
29582WAT      O88987   2.236   1.644   5.504
29582WAT     H188988   2.234   1.554   5.549
29582WAT     H288989   2.143   1.677   5.492
29583WAT      O88990   5.385   4.348   5.186
29583WAT     H188991   5.391   4.328   5.088
29583WAT     H288992   5.407   4.444   5.202
29584WAT      O88993   4.071   0.585   4.225
29584WAT     H188994   4.020   0.662   4.188
29584WAT     H288995   4.046   0.502   4.175
29585WAT      O88996   9.191   7.124   2.399
29585WAT     H188997   9.287   7.153   2.389
29585WAT     H288998   9.152   7.167   2.481
29586WAT      O88999   2.617   0.070   8.031
29586WAT     H189000   2.644   0.133   7.959
29586WAT     H289001   2.520   0.080   8.050
29587WAT      O89002   6.706   6.383   7.248
29587WAT     H189003   6.735   6.317   7.179
29587WAT     H289004   6.709   6.339   7.338
29588WAT      O89005   1.426   2.970   2.101
29588WAT     H189006   1.410   2.949   2.197
29588WAT     H289007   1.512   3.021   2.092
29589WAT      O89008   9.268   4.549   7.507
29589WAT     H189009   9.255   4.589   7.598
29589WAT     H289010   9.180   4.519   7.471
29590WAT      O89011   0.404   8.029   9.729
29590WAT     H189012   0.310   8.034   9.694
29590WAT     H289013   0.444   8.121   9.729
29591WAT      O89014   5.590   9.084   2.576
29591WAT     H189015   5.498   9.111   2.546
29591WAT     H289016   5.588   8.991   2.612
29592WAT      O89017   1.162   4.268   1.150
29592WAT     H189018   1.235   4.237   1.089
29592WAT     H289019   1.085   4.301   1.096
29593WAT      O89020   8.654   3.454   5.055
29593WAT     H189021   8.581   3.485   5.116
29593WAT     H289022   8.705   3.380   5.098
29594WAT      O89023   5.608   7.894   0.272
29594WAT     H189024   5.681   7.962   0.280
29594WAT     H289025   5.519   7.939   0.283
29595WAT      O89026   8.022   7.126   7.149
29595WAT     H189027   8.074   7.148   7.231
29595WAT     H289028   7.972   7.041   7.162
29596WAT      O89029   5.123   0.587   5.433
29596WAT     H189030   5.211   0.539   5.431
29596WAT     H289031   5.064   0.551   5.361
29597WAT      O89032   9.091   6.976   3.458
29597WAT     H189033   9.100   7.065   3.413
29597WAT     H289034   9.080   6.904   3.390
29598WAT      O89035   4.708   5.468   9.235
29598WAT     H189036   4.794   5.448   9.189
29598WAT     H289037   4.722   5.474   9.334
29599WAT      O89038   4.283   0.420   8.625
29599WAT     H189039   4.282   0.510   8.669
29599WAT     H289040   4.341   0.357   8.677
29600WAT      O89041   5.162   7.215   3.859
29600WAT     H189042   5.198   7.129   3.894
29600WAT     H289043   5.075   7.198   3.812
29601WAT      O89044   1.705   7.746   0.269
29601WAT     H189045   1.701   7.659   0.221
29601WAT     H289046   1.626   7.802   0.242
29602WAT      O89047   0.415   0.892   7.821
29602WAT     H189048   0.391   0.988   7.836
29602WAT     H289049   0.383   0.864   7.730
29603WAT      O89050   1.279   2.417   4.611
29603WAT     H189051   1.268   2.411   4.710
29603WAT     H289052   1.257   2.510   4.581
29604WAT      O89053   1.389   9.838   7.822
29604WAT     H189054   1.356   9.853   7.915
29604WAT     H289055   1.319   9.789   7.769
29605WAT      O89056   8.241   3.841   5.402
29605WAT     H189057   8.186   3.759   5.418
29605WAT     H289058   8.196   3.897   5.332
29606WAT      O89059   5.068   6.529   0.216
29606WAT     H189060   5.042   6.587   0.139
29606WAT     H289061   5.111   6.584   0.287
29607WAT      O89062   1.951   9.412   9.469
29607WAT     H189063   1.943   9.335   9.405
29607WAT     H289064   1.933   9.380   9.562
29608WAT      O89065   0.848   7.539   8.954
29608WAT     H189066   0.915   7.581   8.893
29608WAT     H289067   0.819   7.451   8.917
29609WAT      O89068   2.053   0.432   0.573
29609WAT     H189069   2.082   0.457   0.665
29609WAT     H289070   2.127   0.383   0.527
29610WAT      O89071   4.584   0.638   2.587
29610WAT     H189072   4.632   0.720   2.556
29610WAT     H289073   4.486   0.650   2.576
29611WAT      O89074   4.180   3.633   1.545
29611WAT     H189075   4.244   3.693   1.593
29611WAT     H289076   4.226   3.546   1.524
29612WAT      O89077   6.314   2.616   1.449
29612WAT     H189078   6.232   2.631   1.504
29612WAT     H289079   6.290   2.618   1.352
29613WAT      O89080   2.997   1.218   1.909
29613WAT     H189081   2.963   1.311   1.899
29613WAT     H289082   3.084   1.219   1.958
29614WAT      O89083   5.001   1.125   1.884
29614WAT     H189084   4.982   1.223   1.886
29614WAT     H289085   5.035   1.096   1.974
29615WAT      O89086   2.318   2.652   5.938
29615WAT     H189087   2.370   2.668   6.021
29615WAT     H289088   2.361   2.578   5.885
29616WAT      O89089   3.359   6.929   9.794
29616WAT     H189090   3.342   7.024   9.766
29616WAT     H289091   3.308   6.909   9.878
29617WAT      O89092   6.969   1.926   0.490
29617WAT     H189093   6.901   1.977   0.437
29617WAT     H289094   6.925   1.887   0.571
29618WAT      O89095   0.190   4.774   1.929
29618WAT     H189096   0.181   4.720   1.845
29618WAT     H289097   0.101   4.815   1.952
29619WAT      O89098   7.155   0.946   2.245
29619WAT     H189099   7.121   0.886   2.172
29619WAT     H289100   7.133   1.041   2.222
29620WAT      O89101   3.618   8.887   3.288
29620WAT     H189102   3.624   8.922   3.381
29620WAT     H289103   3.706   8.848   3.261
29621WAT      O89104   6.886   6.717   6.663
29621WAT     H189105   6.851   6.642   6.607
29621WAT     H289106   6.840   6.717   6.752
29622WAT      O89107   7.529   2.100   9.353
29622WAT     H189108   7.429   2.105   9.354
29622WAT     H289109   7.561   2.075   9.445
29623WAT      O89110   7.638   0.847   6.745
29623WAT     H189111   7.549   0.886   6.720
29623WAT     H289112   7.646   0.843   6.844
29624WAT      O89113   1.950   0.737   5.541
29624WAT     H189114   2.001   0.814   5.501
29624WAT     H289115   1.890   0.771   5.613
29625WAT      O89116   0.383   0.499   0.431
29625WAT     H189117   0.471   0.463   0.462
29625WAT     H289118   0.397   0.589   0.389
29626WAT      O89119   7.399   4.482   2.781
29626WAT     H189120   7.477   4.419   2.782
29626WAT     H289121   7.376   4.506   2.687
29627WAT      O89122   6.075   3.262   4.559
29627WAT     H189123   6.011   3.186   4.558
29627WAT     H289124   6.106   3.278   4.653
29628WAT      O89125   0.615   8.608   7.022
29628WAT     H189126   0.641   8.574   7.112
29628WAT     H289127   0.696   8.613   6.964
29629WAT      O89128   4.113   1.239   4.124
29629WAT     H189129   4.182   1.167   4.128
29629WAT     H289130   4.040   1.212   4.061
29630WAT      O89131   7.765   5.044   2.739
29630WAT     H189132   7.753   5.132   2.785
29630WAT     H289133   7.676   5.010   2.708
29631WAT      O89134   3.597   8.785   1.633
29631WAT     H189135   3.665   8.829   1.574
29631WAT     H289136   3.630   8.786   1.728
29632WAT      O89137   5.038   1.341   8.320
29632WAT     H189138   5.083   1.355   8.409
29632WAT     H289139   4.977   1.263   8.326
29633WAT      O89140   7.567   8.496   6.891
29633WAT     H189141   7.555   8.396   6.890
29633WAT     H289142   7.640   8.521   6.955
29634WAT      O89143   1.263   9.733   9.475
29634WAT     H189144   1.198   9.725   9.399
29634WAT     H289145   1.356   9.743   9.438
29635WAT      O89146   8.184   3.526   8.426
29635WAT     H189147   8.211   3.491   8.336
29635WAT     H289148   8.093   3.492   8.449
29636WAT      O89149   0.041   1.585   7.518
29636WAT     H189150   0.140   1.577   7.509
29636WAT     H289151   0.001   1.494   7.526
29637WAT      O89152   3.050   7.260   3.592
29637WAT     H189153   2.961   7.305   3.581
29637WAT     H289154   3.121   7.317   3.550
29638WAT      O89155   9.683   2.481   8.838
29638WAT     H189156   9.659   2.577   8.856
29638WAT     H289157   9.636   2.450   8.755
29639WAT      O89158   4.313   7.924   1.319
29639WAT     H189159   4.249   7.856   1.353
29639WAT     H289160   4.317   7.920   1.219
29640WAT      O89161   5.299   9.057   6.436
29640WAT     H189162   5.249   9.111   6.369
29640WAT     H289163   5.235   8.998   6.486
29641WAT      O89164   5.530  -0.005   7.286
29641WAT     H189165   5.439   0.036   7.277
29641WAT     H289166   5.589   0.055   7.340
29642WAT      O89167   8.008   1.285   0.957
29642WAT     H189168   8.046   1.258   1.045
29642WAT     H289169   7.918   1.243   0.944
29643WAT      O89170   4.696   1.007   2.186
29643WAT     H189171   4.632   1.011   2.263
29643WAT     H289172   4.785   1.041   2.216
29644WAT      O89173   8.920   0.659   7.891
29644WAT     H189174   8.988   0.706   7.947
29644WAT     H289175   8.964   0.589   7.836
29645WAT      O89176   3.329   7.193   2.084
29645WAT     H189177   3.233   7.168   2.091
29645WAT     H289178   3.340   7.265   2.016
29646WAT      O89179   8.336   0.950   0.239
29646WAT     H189180   8.386   0.897   0.307
29646WAT     H289181   8.320   0.893   0.158
29647WAT      O89182   0.837   1.046   7.011
29647WAT     H189183   0.858   0.984   7.086
29647WAT     H289184   0.919   1.060   6.955
29648WAT      O89185   7.400   5.984   3.618
29648WAT     H189186   7.362   6.018   3.705
29648WAT     H289187   7.353   6.029   3.542
29649WAT      O89188   5.961   2.528   7.875
29649WAT     H189189   5.998   2.483   7.957
29649WAT     H289190   6.022   2.511   7.798
29650WAT      O89191   4.276   9.481   5.299
29650WAT     H189192   4.246   9.535   5.220
29650WAT     H289193   4.268   9.384   5.277
29651WAT      O89194   9.686   1.703   5.193
29651WAT     H189195   9.632   1.768   5.247
29651WAT     H289196   9.746   1.751   5.130
29652WAT      O89197   6.657   4.819   7.597
29652WAT     H189198   6.704   4.731   7.611
29652WAT     H289199   6.613   4.819   7.507
29653WAT      O89200   8.016   0.806   1.631
29653WAT     H189201   8.043   0.719   1.591
29653WAT     H289202   8.065   0.880   1.585
29654WAT      O89203   6.970   3.577   7.225
29654WAT     H189204   7.049   3.542   7.275
29654WAT     H289205   6.902   3.504   7.215
29655WAT      O89206   5.393   5.237   1.767
29655WAT     H189207   5.352   5.149   1.790
29655WAT     H289208   5.321   5.302   1.743
29656WAT      O89209   1.255   2.526   7.317
29656WAT     H189210   1.331   2.515   7.254
29656WAT     H289211   1.253   2.619   7.352
29657WAT      O89212   2.731   0.484   2.057
29657WAT     H189213   2.677   0.532   1.988
29657WAT     H289214   2.718   0.385   2.047
29658WAT      O89215   8.309   7.593   6.392
29658WAT     H189216   8.255   7.561   6.470
29658WAT     H289217   8.303   7.527   6.318
29659WAT      O89218   6.793   1.722   9.845
29659WAT     H189219   6.802   1.652   9.774
29659WAT     H289220   6.860   1.795   9.830
29660WAT      O89221   9.559   1.489   5.080
29660WAT     H189222   9.596   1.571   5.122
29660WAT     H289223   9.562   1.497   4.980
29661WAT      O89224   7.919   9.829   9.552
29661WAT     H189225   7.927   9.749   9.491
29661WAT     H289226   7.845   9.887   9.521
29662WAT      O89227   5.475   1.518   4.337
29662WAT     H189228   5.516   1.430   4.362
29662WAT     H289229   5.375   1.510   4.341
29663WAT      O89230   6.420   1.482   7.078
29663WAT     H189231   6.383   1.445   6.993
29663WAT     H289232   6.349   1.536   7.125
29664WAT      O89233   8.258   5.549   6.568
29664WAT     H189234   8.231   5.539   6.664
29664WAT     H289235   8.286   5.644   6.552
29665WAT      O89236   6.847   5.737   8.038
29665WAT     H189237   6.849   5.780   7.948
29665WAT     H289238   6.924   5.674   8.048
29666WAT      O89239   1.416   3.809   4.069
29666WAT     H189240   1.507   3.836   4.039
29666WAT     H289241   1.378   3.879   4.129
29667WAT      O89242   7.964   8.299   1.376
29667WAT     H189243   8.061   8.301   1.402
29667WAT     H289244   7.951   8.242   1.296
29668WAT      O89245   2.583   2.561   0.227
29668WAT     H189246   2.575   2.463   0.244
29668WAT     H289247   2.591   2.578   0.129
29669WAT      O89248   8.286   8.068   4.293
29669WAT     H189249   8.262   7.998   4.361
29669WAT     H289250   8.318   8.150   4.341
29670WAT      O89251   5.631   5.417   4.445
29670WAT     H189252   5.593   5.325   4.458
29670WAT     H289253   5.598   5.477   4.518
29671WAT      O89254   6.657   2.829   4.821
29671WAT     H189255   6.560   2.828   4.798
29671WAT     H289256   6.710   2.790   4.746
29672WAT      O89257   6.781   7.621   9.017
29672WAT     H189258   6.875   7.588   9.011
29672WAT     H289259   6.779   7.708   9.067
29673WAT      O89260   2.986   3.731   2.255
29673WAT     H189261   3.004   3.673   2.334
29673WAT     H289262   3.055   3.804   2.250
29674WAT      O89263   8.215   9.156   7.101
29674WAT     H189264   8.160   9.113   7.029
29674WAT     H289265   8.213   9.255   7.091
29675WAT      O89266   4.020   3.498   4.400
29675WAT     H189267   3.981   3.407   4.394
29675WAT     H289268   4.120   3.492   4.394
29676WAT      O89269   9.238   3.476   8.951
29676WAT     H189270   9.263   3.524   9.036
29676WAT     H289271   9.146   3.439   8.960
29677WAT      O89272   0.895   6.187   3.722
29677WAT     H189273   0.805   6.229   3.709
29677WAT     H289274   0.926   6.148   3.635
29678WAT      O89275   6.147   6.830   0.714
29678WAT     H189276   6.104   6.798   0.799
29678WAT     H289277   6.193   6.753   0.670
29679WAT      O89278   5.643   5.202   7.290
29679WAT     H189279   5.649   5.279   7.353
29679WAT     H289280   5.683   5.228   7.202
29680WAT      O89281   1.763   4.580   1.678
29680WAT     H189282   1.721   4.664   1.644
29680WAT     H289283   1.816   4.600   1.760
29681WAT      O89284   3.530   0.550   8.100
29681WAT     H189285   3.507   0.486   8.172
29681WAT     H289286   3.494   0.517   8.013
29682WAT      O89287   4.454   6.241   4.378
29682WAT     H189288   4.502   6.300   4.312
29682WAT     H289289   4.471   6.145   4.354
29683WAT      O89290   6.854   6.426   3.255
29683WAT     H189291   6.795   6.386   3.185
29683WAT     H289292   6.892   6.512   3.220
29684WAT      O89293   1.299   2.660   1.439
29684WAT     H189294   1.383   2.666   1.385
29684WAT     H289295   1.302   2.578   1.497
29685WAT      O89296   5.339   6.123   9.558
29685WAT     H189297   5.353   6.147   9.462
29685WAT     H289298   5.418   6.151   9.612
29686WAT      O89299   5.897   7.360   1.565
29686WAT     H189300   5.941   7.438   1.519
29686WAT     H289301   5.860   7.390   1.653
29687WAT      O89302   4.778   8.893   1.286
29687WAT     H189303   4.852   8.960   1.283
29687WAT     H289304   4.813   8.802   1.261
29688WAT      O89305   4.221   5.870   8.600
29688WAT     H189306   4.250   5.913   8.515
29688WAT     H289307   4.253   5.775   8.602
29689WAT      O89308   3.277   5.810   8.238
29689WAT     H189309   3.363   5.797   8.189
29689WAT     H289310   3.204   5.761   8.191
29690WAT      O89311   5.483   7.725   2.681
29690WAT     H189312   5.566   7.762   2.640
29690WAT     H289313   5.427   7.682   2.610
29691WAT      O89314   5.997   5.200   8.923
29691WAT     H189315   6.007   5.187   9.022
29691WAT     H289316   5.919   5.146   8.891
29692WAT      O89317   8.228   5.344   2.567
29692WAT     H189318   8.321   5.380   2.568
29692WAT     H289319   8.201   5.319   2.660
29693WAT      O89320   7.317   7.081   7.946
29693WAT     H189321   7.303   6.998   7.891
29693WAT     H289322   7.407   7.077   7.989
29694WAT      O89323   3.897   0.497   7.954
29694WAT     H189324   3.991   0.464   7.953
29694WAT     H289325   3.873   0.527   8.046
29695WAT      O89326   6.505   0.463   4.470
29695WAT     H189327   6.563   0.381   4.474
29695WAT     H289328   6.497   0.503   4.561
29696WAT      O89329   3.140   6.446   4.107
29696WAT     H189330   3.187   6.410   4.026
29696WAT     H289331   3.144   6.379   4.180
29697WAT      O89332   9.191   6.338   8.748
29697WAT     H189333   9.159   6.416   8.695
29697WAT     H289334   9.291   6.337   8.751
29698WAT      O89335   0.776   6.583   7.010
29698WAT     H189336   0.800   6.558   7.104
29698WAT     H289337   0.710   6.517   6.973
29699WAT      O89338   4.555   0.124   8.730
29699WAT     H189339   4.514   0.195   8.787
29699WAT     H289340   4.646   0.154   8.700
29700WAT      O89341   7.296   8.239   0.032
29700WAT     H189342   7.394   8.242   0.014
29700WAT     H289343   7.279   8.187   0.116
29701WAT      O89344   5.133   2.873   4.779
29701WAT     H189345   5.169   2.934   4.850
29701WAT     H289346   5.037   2.896   4.763
29702WAT      O89347   1.341   8.368   6.630
29702WAT     H189348   1.400   8.445   6.604
29702WAT     H289349   1.250   8.381   6.591
29703WAT      O89350   2.545   1.944   5.065
29703WAT     H189351   2.504   1.949   4.974
29703WAT     H289352   2.473   1.943   5.134
29704WAT      O89353   8.416   5.842   3.849
29704WAT     H189354   8.367   5.930   3.851
29704WAT     H289355   8.371   5.780   3.785
29705WAT      O89356   9.738   1.098   2.304
29705WAT     H189357   9.725   1.018   2.362
29705WAT     H289358   9.654   1.116   2.253
29706WAT      O89359   4.574   4.013   1.051
29706WAT     H189360   4.604   4.107   1.035
29706WAT     H289361   4.553   4.002   1.149
29707WAT      O89362   7.806   4.661   6.701
29707WAT     H189363   7.840   4.568   6.687
29707WAT     H289364   7.880   4.726   6.683
29708WAT      O89365   4.571   4.576   0.207
29708WAT     H189366   4.616   4.499   0.252
29708WAT     H289367   4.634   4.618   0.143
29709WAT      O89368   7.486   9.106   8.579
29709WAT     H189369   7.436   9.146   8.503
29709WAT     H289370   7.429   9.107   8.661
29710WAT      O89371   7.696   8.571   0.474
29710WAT     H189372   7.646   8.655   0.454
29710WAT     H289373   7.778   8.566   0.418
29711WAT      O89374   6.013   1.327   2.379
29711WAT     H189375   6.035   1.424   2.384
29711WAT     H289376   5.930   1.314   2.324
29712WAT      O89377   0.038   4.467   1.831
29712WAT     H189378  -0.032   4.500   1.894
29712WAT     H289379   0.021   4.371   1.808
29713WAT      O89380   8.302   1.733   8.685
29713WAT     H189381   8.305   1.771   8.777
29713WAT     H289382   8.279   1.636   8.690
29714WAT      O89383   4.545   2.468   8.105
29714WAT     H189384   4.458   2.510   8.079
29714WAT     H289385   4.531   2.410   8.186
29715WAT      O89386   4.636   8.868   4.576
29715WAT     H189387   4.658   8.794   4.640
29715WAT     H289388   4.719   8.896   4.528
29716WAT      O89389   2.967   9.230   5.963
29716WAT     H189390   3.066   9.245   5.969
29716WAT     H289391   2.933   9.200   6.052
29717WAT      O89392   8.242   1.451   0.157
29717WAT     H189393   8.158   1.434   0.105
29717WAT     H289394   8.233   1.536   0.208
29718WAT      O89395   0.424   9.026   1.574
29718WAT     H189396   0.445   8.930   1.595
29718WAT     H289397   0.507   9.073   1.545
29719WAT      O89398   0.721   9.204   1.894
29719WAT     H189399   0.731   9.124   1.953
29719WAT     H289400   0.774   9.191   1.810
29720WAT      O89401   5.309   4.650   0.953
29720WAT     H189402   5.253   4.679   0.876
29720WAT     H289403   5.336   4.730   1.006
29721WAT      O89404   1.782   6.000   6.731
29721WAT     H189405   1.869   6.046   6.712
29721WAT     H289406   1.735   6.047   6.806
29722WAT      O89407   2.357   8.520   3.228
29722WAT     H189408   2.344   8.618   3.237
29722WAT     H289409   2.398   8.484   3.312
29723WAT      O89410   7.924   5.125   0.744
29723WAT     H189411   7.982   5.043   0.746
29723WAT     H289412   7.849   5.113   0.809
29724WAT      O89413   1.810   2.577   9.596
29724WAT     H189414   1.844   2.634   9.522
29724WAT     H289415   1.855   2.604   9.682
29725WAT      O89416   8.358   0.104   0.553
29725WAT     H189417   8.397   0.021   0.516
29725WAT     H289418   8.362   0.177   0.485
29726WAT      O89419   9.436   0.414   6.387
29726WAT     H189420   9.451   0.356   6.307
29726WAT     H289421   9.523   0.458   6.413
29727WAT      O89422   7.053   1.357   0.234
29727WAT     H189423   7.126   1.296   0.202
29727WAT     H289424   6.965   1.311   0.227
29728WAT      O89425   5.921   1.523   0.242
29728WAT     H189426   5.858   1.447   0.227
29728WAT     H289427   5.889   1.604   0.193
29729WAT      O89428   3.591   9.031   7.698
29729WAT     H189429   3.669   9.074   7.654
29729WAT     H289430   3.604   8.932   7.700
29730WAT      O89431   5.062   7.095   1.807
29730WAT     H189432   4.974   7.049   1.797
29730WAT     H289433   5.113   7.090   1.721
29731WAT      O89434   0.118   9.527   0.257
29731WAT     H189435   0.043   9.503   0.195
29731WAT     H289436   0.186   9.453   0.255
29732WAT      O89437   2.557   7.879   5.986
29732WAT     H189438   2.539   7.911   6.079
29732WAT     H289439   2.630   7.811   5.988
29733WAT      O89440   6.298   4.131   6.900
29733WAT     H189441   6.345   4.082   6.973
29733WAT     H289442   6.364   4.154   6.828
29734WAT      O89443   4.647   0.092   9.121
29734WAT     H189444   4.730   0.050   9.083
29734WAT     H289445   4.663   0.189   9.137
29735WAT      O89446   4.215   3.358   0.823
29735WAT     H189447   4.279   3.302   0.877
29735WAT     H289448   4.267   3.422   0.767
29736WAT      O89449   9.433   0.341   3.685
29736WAT     H189450   9.391   0.336   3.594
29736WAT     H289451   9.525   0.302   3.681
29737WAT      O89452   7.889   3.477   9.349
29737WAT     H189453   7.882   3.384   9.314
29737WAT     H289454   7.942   3.478   9.434
29738WAT      O89455   4.567   2.849   7.454
29738WAT     H189456   4.602   2.843   7.547
29738WAT     H289457   4.502   2.775   7.437
29739WAT      O89458   2.560   4.314   1.510
29739WAT     H189459   2.508   4.340   1.429
29739WAT     H289460   2.524   4.364   1.590
29740WAT      O89461   0.925   2.727   4.056
29740WAT     H189462   0.908   2.756   4.151
29740WAT     H289463   1.019   2.748   4.031
29741WAT      O89464   1.494   6.291   5.721
29741WAT     H189465   1.419   6.355   5.738
29741WAT     H289466   1.534   6.309   5.631
29742WAT      O89467   3.130   0.421   1.770
29742WAT     H189468   3.078   0.496   1.729
29742WAT     H289469   3.194   0.458   1.837
29743WAT      O89470   1.340   7.852   7.288
29743WAT     H189471   1.254   7.817   7.251
29743WAT     H289472   1.406   7.863   7.215
29744WAT      O89473   7.950   0.720   3.409
29744WAT     H189474   7.868   0.663   3.401
29744WAT     H289475   8.031   0.666   3.384
29745WAT      O89476   2.444   8.611   8.577
29745WAT     H189477   2.477   8.697   8.617
29745WAT     H289478   2.348   8.598   8.600
29746WAT      O89479   5.395   0.943   7.389
29746WAT     H189480   5.355   0.862   7.431
29746WAT     H289481   5.482   0.919   7.346
29747WAT      O89482   3.750   3.770   8.974
29747WAT     H189483   3.685   3.725   8.914
29747WAT     H289484   3.708   3.852   9.013
29748WAT      O89485   0.605   5.931   7.864
29748WAT     H189486   0.623   5.877   7.782
29748WAT     H289487   0.560   6.017   7.839
29749WAT      O89488   6.565   1.254   6.486
29749WAT     H189489   6.589   1.256   6.389
29749WAT     H289490   6.589   1.342   6.527
29750WAT      O89491   3.870   2.251   3.478
29750WAT     H189492   3.917   2.258   3.390
29750WAT     H289493   3.791   2.190   3.470
29751WAT      O89494   9.532   2.573   0.571
29751WAT     H189495   9.572   2.482   0.582
29751WAT     H289496   9.466   2.589   0.645
29752WAT      O89497   8.339   4.138   2.877
29752WAT     H189498   8.317   4.040   2.877
29752WAT     H289499   8.296   4.182   2.798
29753WAT      O89500   3.975   2.779   3.329
29753WAT     H189501   3.936   2.772   3.237
29753WAT     H289502   4.065   2.823   3.324
29754WAT      O89503   0.044   1.270   6.107
29754WAT     H189504  -0.049   1.276   6.072
29754WAT     H289505   0.101   1.223   6.039
29755WAT      O89506   4.406   2.873   5.649
29755WAT     H189507   4.426   2.776   5.661
29755WAT     H289508   4.414   2.898   5.553
29756WAT      O89509   7.904   7.999   0.607
29756WAT     H189510   7.984   7.946   0.578
29756WAT     H289511   7.847   7.942   0.667
29757WAT      O89512   9.344   6.688   8.998
29757WAT     H189513   9.422   6.625   8.998
29757WAT     H289514   9.375   6.780   8.975
29758WAT      O89515   4.436   0.155   4.867
29758WAT     H189516   4.341   0.126   4.852
29758WAT     H289517   4.473   0.192   4.782
29759WAT      O89518   2.241   9.287   5.798
29759WAT     H189519   2.226   9.284   5.897
29759WAT     H289520   2.223   9.197   5.759
29760WAT      O89521   6.657   4.947   1.780
29760WAT     H189522   6.724   4.904   1.840
29760WAT     H289523   6.648   5.044   1.805
29761WAT      O89524   2.648   5.403   9.146
29761WAT     H189525   2.589   5.483   9.132
29761WAT     H289526   2.600   5.320   9.119
29762WAT      O89527   5.256   1.024   2.815
29762WAT     H189528   5.157   1.013   2.806
29762WAT     H289529   5.285   1.106   2.765
29763WAT      O89530   7.983   7.986   2.231
29763WAT     H189531   7.916   7.981   2.305
29763WAT     H289532   7.943   7.949   2.147
29764WAT      O89533   2.404   4.615   5.456
29764WAT     H189534   2.366   4.580   5.542
29764WAT     H289535   2.331   4.659   5.403
29765WAT      O89536   7.537   9.629   4.233
29765WAT     H189537   7.577   9.620   4.324
29765WAT     H289538   7.479   9.550   4.214
29766WAT      O89539   3.027   9.806   2.718
29766WAT     H189540   2.936   9.784   2.682
29766WAT     H289541   3.041   9.758   2.804
29767WAT      O89542   1.079   2.322   0.930
29767WAT     H189543   0.983   2.350   0.940
29767WAT     H289544   1.100   2.311   0.833
29768WAT      O89545   0.112   2.486   3.811
29768WAT     H189546   0.172   2.478   3.731
29768WAT     H289547   0.167   2.491   3.894
29769WAT      O89548   0.149   1.544   8.309
29769WAT     H189549   0.058   1.580   8.288
29769WAT     H289550   0.141   1.451   8.346
29770WAT      O89551   3.260   0.258   3.872
29770WAT     H189552   3.263   0.185   3.939
29770WAT     H289553   3.197   0.234   3.798
29771WAT      O89554   3.724   0.221   1.484
29771WAT     H189555   3.801   0.198   1.425
29771WAT     H289556   3.700   0.318   1.471
29772WAT      O89557   6.179   5.004   2.002
29772WAT     H189558   6.236   5.041   1.929
29772WAT     H289559   6.136   5.079   2.052
29773WAT      O89560   5.777   4.334   1.233
29773WAT     H189561   5.687   4.311   1.194
29773WAT     H289562   5.843   4.264   1.208
29774WAT      O89563   4.095   7.429   6.692
29774WAT     H189564   4.094   7.341   6.644
29774WAT     H289565   4.032   7.425   6.770
29775WAT      O89566   8.722   5.197   4.856
29775WAT     H189567   8.705   5.099   4.849
29775WAT     H289568   8.693   5.230   4.945
29776WAT      O89569   2.797   1.736   4.810
29776WAT     H189570   2.827   1.647   4.775
29776WAT     H289571   2.752   1.724   4.898
29777WAT      O89572   8.590   6.480   1.759
29777WAT     H189573   8.491   6.467   1.747
29777WAT     H289574   8.607   6.571   1.796
29778WAT      O89575   7.103   0.809   8.241
29778WAT     H189576   7.203   0.813   8.242
29778WAT     H289577   7.073   0.757   8.161
29779WAT      O89578   0.343   1.457   8.730
29779WAT     H189579   0.247   1.476   8.708
29779WAT     H289580   0.402   1.508   8.668
29780WAT      O89581   9.208   3.301   8.356
29780WAT     H189582   9.180   3.397   8.354
29780WAT     H289583   9.207   3.268   8.450
29781WAT      O89584   6.359   9.441   8.906
29781WAT     H189585   6.421   9.393   8.967
29781WAT     H289586   6.399   9.443   8.814
29782WAT      O89587   1.137   0.262   0.451
29782WAT     H189588   1.107   0.284   0.544
29782WAT     H289589   1.075   0.304   0.385
29783WAT      O89590   8.167   4.442   2.057
29783WAT     H189591   8.099   4.495   2.006
29783WAT     H289592   8.185   4.486   2.145
29784WAT      O89593   5.636   5.412   1.913
29784WAT     H189594   5.713   5.467   1.945
29784WAT     H289595   5.646   5.318   1.946
29785WAT      O89596   0.900   2.871   3.456
29785WAT     H189597   0.872   2.780   3.425
29785WAT     H289598   0.832   2.908   3.519
29786WAT      O89599   1.034   3.177   3.200
29786WAT     H189600   0.936   3.193   3.207
29786WAT     H289601   1.075   3.245   3.139
29787WAT      O89602   8.264   0.502   8.362
29787WAT     H189603   8.360   0.478   8.352
29787WAT     H289604   8.252   0.557   8.445
29788WAT      O89605   8.403   2.034   7.746
29788WAT     H189606   8.437   2.126   7.726
29788WAT     H289607   8.342   2.005   7.672
29789WAT      O89608   3.212   3.738   0.533
29789WAT     H189609   3.167   3.710   0.448
29789WAT     H289610   3.250   3.658   0.579
29790WAT      O89611   6.214   0.410   2.934
29790WAT     H189612   6.243   0.366   2.849
29790WAT     H289613   6.273   0.379   3.009
29791WAT      O89614   9.734   6.844   4.010
29791WAT     H189615   9.669   6.901   3.959
29791WAT     H289616   9.739   6.876   4.105
29792WAT      O89617   6.498   6.664   5.874
29792WAT     H189618   6.583   6.692   5.830
29792WAT     H289619   6.492   6.707   5.964
29793WAT      O89620   3.664   2.065   4.094
29793WAT     H189621   3.649   2.005   4.015
29793WAT     H289622   3.588   2.129   4.102
29794WAT      O89623   4.226   0.050   4.518
29794WAT     H189624   4.281  -0.011   4.462
29794WAT     H289625   4.250   0.145   4.497
29795WAT      O89626   6.191   6.321   5.358
29795WAT     H189627   6.112   6.272   5.320
29795WAT     H289628   6.202   6.296   5.454
29796WAT      O89629   1.680   0.611   8.045
29796WAT     H189630   1.656   0.568   7.958
29796WAT     H289631   1.700   0.540   8.112
29797WAT      O89632   7.209   1.523   2.161
29797WAT     H189633   7.231   1.464   2.083
29797WAT     H289634   7.150   1.598   2.130
29798WAT      O89635   4.149   8.834   5.348
29798WAT     H189636   4.065   8.881   5.323
29798WAT     H289637   4.137   8.736   5.336
29799WAT      O89638   1.538   5.237   0.644
29799WAT     H189639   1.539   5.205   0.550
29799WAT     H289640   1.456   5.291   0.660
29800WAT      O89641   6.483   4.845   6.615
29800WAT     H189642   6.420   4.845   6.538
29800WAT     H289643   6.431   4.859   6.700
29801WAT      O89644   3.740   7.813   5.071
29801WAT     H189645   3.724   7.739   5.006
29801WAT     H289646   3.684   7.798   5.152
29802WAT      O89647   5.709   2.447   8.994
29802WAT     H189648   5.698   2.513   8.919
29802WAT     H289649   5.620   2.406   9.016
29803WAT      O89650   1.050   5.301   6.517
29803WAT     H189651   0.961   5.300   6.471
29803WAT     H289652   1.069   5.211   6.555
29804WAT      O89653   8.992   1.285   3.150
29804WAT     H189654   8.952   1.346   3.217
29804WAT     H289655   9.082   1.321   3.122
29805WAT      O89656   6.122   0.893   3.626
29805WAT     H189657   6.105   0.865   3.531
29805WAT     H289658   6.211   0.859   3.655
29806WAT      O89659   3.984   2.435   5.741
29806WAT     H189660   4.004   2.431   5.643
29806WAT     H289661   3.951   2.345   5.772
29807WAT      O89662   2.024   1.347   1.644
29807WAT     H189663   2.077   1.352   1.559
29807WAT     H289664   2.087   1.338   1.721
29808WAT      O89665   8.511   1.908   4.976
29808WAT     H189666   8.579   1.944   5.039
29808WAT     H289667   8.548   1.826   4.931
29809WAT      O89668   9.049   2.156   8.337
29809WAT     H189669   9.001   2.176   8.251
29809WAT     H289670   9.074   2.242   8.382
29810WAT      O89671   5.422   5.403   4.157
29810WAT     H189672   5.359   5.466   4.112
29810WAT     H289673   5.515   5.440   4.151
29811WAT      O89674   0.238   5.596   2.162
29811WAT     H189675   0.198   5.556   2.244
29811WAT     H289676   0.239   5.696   2.171
29812WAT      O89677   6.937   4.409   6.520
29812WAT     H189678   6.848   4.398   6.477
29812WAT     H289679   6.938   4.360   6.607
29813WAT      O89680   8.613   7.238   2.367
29813WAT     H189681   8.556   7.286   2.434
29813WAT     H289682   8.682   7.300   2.331
29814WAT      O89683   1.156   1.655   5.369
29814WAT     H189684   1.172   1.739   5.318
29814WAT     H289685   1.153   1.578   5.305
29815WAT      O89686   4.003   7.732   2.628
29815WAT     H189687   4.021   7.685   2.714
29815WAT     H289688   3.981   7.828   2.647
29816WAT      O89689   2.213   0.597   1.167
29816WAT     H189690   2.186   0.555   1.080
29816WAT     H289691   2.170   0.687   1.174
29817WAT      O89692   9.695   6.675   2.126
29817WAT     H189693   9.694   6.576   2.136
29817WAT     H289694   9.648   6.717   2.204
29818WAT      O89695   8.559   3.455   6.039
29818WAT     H189696   8.459   3.452   6.036
29818WAT     H289697   8.588   3.546   6.069
29819WAT      O89698   3.939   5.103   3.630
29819WAT     H189699   3.984   5.061   3.709
29819WAT     H289700   3.892   5.032   3.577
29820WAT      O89701   9.279   7.502   0.230
29820WAT     H189702   9.206   7.465   0.172
29820WAT     H289703   9.247   7.506   0.325
29821WAT      O89704   7.999   2.671   9.160
29821WAT     H189705   7.962   2.699   9.071
29821WAT     H289706   8.038   2.750   9.207
29822WAT      O89707   8.100   0.193   6.144
29822WAT     H189708   8.060   0.218   6.056
29822WAT     H289709   8.197   0.174   6.133
29823WAT      O89710   1.975   1.377   4.504
29823WAT     H189711   1.996   1.447   4.436
29823WAT     H289712   1.878   1.353   4.499
29824WAT      O89713   9.077   1.120   2.478
29824WAT     H189714   8.991   1.122   2.428
29824WAT     H289715   9.153   1.129   2.415
29825WAT      O89716   2.075   2.033   8.725
29825WAT     H189717   2.022   2.013   8.808
29825WAT     H289718   2.141   1.959   8.709
29826WAT      O89719   0.846   4.618   6.271
29826WAT     H189720   0.793   4.534   6.278
29826WAT     H289721   0.791   4.690   6.228
29827WAT      O89722   2.247   0.124   5.837
29827WAT     H189723   2.210   0.101   5.927
29827WAT     H289724   2.328   0.181   5.848
29828WAT      O89725   1.261   4.711   6.886
29828WAT     H189726   1.350   4.675   6.858
29828WAT     H289727   1.258   4.719   6.985
29829WAT      O89728   9.470   6.177   9.660
29829WAT     H189729   9.416   6.129   9.591
29829WAT     H289730   9.555   6.126   9.676
29830WAT      O89731   0.327   6.779   0.614
29830WAT     H189732   0.273   6.859   0.587
29830WAT     H289733   0.350   6.725   0.533
29831WAT      O89734   8.321   3.054   3.979
29831WAT     H189735   8.337   3.015   3.888
29831WAT     H289736   8.310   2.981   4.045
29832WAT      O89737   3.912   8.223   3.467
29832WAT     H189738   3.834   8.223   3.405
29832WAT     H289739   3.992   8.185   3.421
29833WAT      O89740   5.916   4.571   2.283
29833WAT     H189741   5.939   4.479   2.249
29833WAT     H289742   5.999   4.617   2.314
29834WAT      O89743   9.043   0.728   3.433
29834WAT     H189744   9.068   0.792   3.361
29834WAT     H289745   8.952   0.749   3.467
29835WAT      O89746   7.017   2.976   9.233
29835WAT     H189747   7.012   3.050   9.167
29835WAT     H289748   6.970   3.003   9.317
29836WAT      O89749   3.740   5.826   4.029
29836WAT     H189750   3.804   5.810   3.954
29836WAT     H289751   3.652   5.783   4.009
29837WAT      O89752   1.454   1.685   9.863
29837WAT     H189753   1.439   1.774   9.819
29837WAT     H289754   1.400   1.681   9.947
29838WAT      O89755   1.913   0.620   7.575
29838WAT     H189756   1.872   0.536   7.540
29838WAT     H289757   1.958   0.601   7.662
29839WAT      O89758   1.036   7.802   7.661
29839WAT     H189759   0.958   7.853   7.696
29839WAT     H289760   1.004   7.721   7.612
29840WAT      O89761   3.160   9.604   1.889
29840WAT     H189762   3.183   9.668   1.962
29840WAT     H289763   3.061   9.597   1.881
29841WAT      O89764   1.594   4.977   8.034
29841WAT     H189765   1.654   4.927   8.096
29841WAT     H289766   1.632   4.975   7.942
29842WAT      O89767   1.066   8.474   1.038
29842WAT     H189768   0.984   8.417   1.032
29842WAT     H289769   1.112   8.477   0.949
29843WAT      O89770   7.253   0.045   9.355
29843WAT     H189771   7.183   0.116   9.364
29843WAT     H289772   7.329   0.081   9.301
29844WAT      O89773   4.151   7.499   1.986
29844WAT     H189774   4.151   7.410   2.031
29844WAT     H289775   4.138   7.571   2.055
29845WAT      O89776   6.136   1.175   1.392
29845WAT     H189777   6.156   1.256   1.336
29845WAT     H289778   6.117   1.097   1.332
29846WAT      O89779   3.570   3.416   5.089
29846WAT     H189780   3.489   3.367   5.120
29846WAT     H289781   3.554   3.514   5.093
29847WAT      O89782   4.675   9.644   4.659
29847WAT     H189783   4.617   9.655   4.739
29847WAT     H289784   4.769   9.668   4.681
29848WAT      O89785   4.026   0.616   8.397
29848WAT     H189786   4.004   0.614   8.494
29848WAT     H289787   4.106   0.557   8.380
29849WAT      O89788   7.174   8.535   2.233
29849WAT     H189789   7.216   8.467   2.293
29849WAT     H289790   7.081   8.555   2.263
29850WAT      O89791   1.090   2.360   6.237
29850WAT     H189792   1.119   2.366   6.333
29850WAT     H289793   1.065   2.452   6.205
29851WAT      O89794   4.383   7.774   5.120
29851WAT     H189795   4.443   7.709   5.166
29851WAT     H289796   4.310   7.802   5.182
29852WAT      O89797   1.697   7.224   0.308
29852WAT     H189798   1.707   7.248   0.405
29852WAT     H289799   1.777   7.171   0.279
29853WAT      O89800   3.191   7.280   7.607
29853WAT     H189801   3.269   7.280   7.544
29853WAT     H289802   3.177   7.188   7.643
29854WAT      O89803   8.179   2.671   5.568
29854WAT     H189804   8.181   2.747   5.502
29854WAT     H289805   8.264   2.619   5.561
29855WAT      O89806   1.468   8.429   0.630
29855WAT     H189807   1.389   8.424   0.569
29855WAT     H289808   1.537   8.489   0.589
29856WAT      O89809   8.277   6.157   5.842
29856WAT     H189810   8.256   6.061   5.825
29856WAT     H289811   8.195   6.204   5.873
29857WAT      O89812   7.433   5.121   5.442
29857WAT     H189813   7.346   5.117   5.394
29857WAT     H289814   7.493   5.048   5.409
29858WAT      O89815   2.867   8.827   3.244
29858WAT     H189816   2.962   8.849   3.223
29858WAT     H289817   2.858   8.728   3.255
29859WAT      O89818   0.910   8.209   8.050
29859WAT     H189819   0.824   8.158   8.049
29859WAT     H289820   0.975   8.165   8.112
29860WAT      O89821   9.681   4.106   5.561
29860WAT     H189822   9.663   4.108   5.462
29860WAT     H289823   9.620   4.170   5.607
29861WAT      O89824   2.866   6.879   0.522
29861WAT     H189825   2.811   6.796   0.519
29861WAT     H289826   2.843   6.932   0.603
29862WAT      O89827   9.161   5.527   0.826
29862WAT     H189828   9.254   5.550   0.794
29862WAT     H289829   9.146   5.569   0.916
29863WAT      O89830   5.984   9.557   3.854
29863WAT     H189831   5.979   9.461   3.883
29863WAT     H289832   6.078   9.590   3.864
29864WAT      O89833   1.434   1.649   5.867
29864WAT     H189834   1.482   1.697   5.794
29864WAT     H289835   1.356   1.599   5.829
29865WAT      O89836   7.824   5.822   5.657
29865WAT     H189837   7.753   5.810   5.588
29865WAT     H289838   7.847   5.733   5.697
29866WAT      O89839   2.747   7.732   5.730
29866WAT     H189840   2.658   7.688   5.741
29866WAT     H289841   2.819   7.670   5.762
29867WAT      O89842   6.149   2.608   2.490
29867WAT     H189843   6.203   2.604   2.406
29867WAT     H289844   6.052   2.600   2.468
29868WAT      O89845   8.756   0.999   3.664
29868WAT     H189846   8.850   0.964   3.660
29868WAT     H289847   8.757   1.096   3.640
29869WAT      O89848   4.243   2.551   3.424
29869WAT     H189849   4.328   2.602   3.433
29869WAT     H289850   4.171   2.597   3.477
29870WAT      O89851   4.555   5.737   1.624
29870WAT     H189852   4.592   5.681   1.698
29870WAT     H289853   4.511   5.818   1.662
29871WAT      O89854   9.842   3.215   4.768
29871WAT     H189855   9.819   3.161   4.687
29871WAT     H289856   9.875   3.305   4.740
29872WAT      O89857   7.184   2.205   2.524
29872WAT     H189858   7.145   2.198   2.616
29872WAT     H289859   7.264   2.265   2.527
29873WAT      O89860   6.944   5.203   2.586
29873WAT     H189861   6.932   5.276   2.653
29873WAT     H289862   7.032   5.214   2.540
29874WAT      O89863   0.478   5.878   9.725
29874WAT     H189864   0.543   5.850   9.796
29874WAT     H289865   0.422   5.954   9.759
29875WAT      O89866   9.470   9.463   1.471
29875WAT     H189867   9.518   9.477   1.384
29875WAT     H289868   9.375   9.440   1.453
29876WAT      O89869   2.079   1.592   8.583
29876WAT     H189870   2.061   1.667   8.647
29876WAT     H289871   1.992   1.557   8.549
29877WAT      O89872   1.813   8.392   3.184
29877WAT     H189873   1.737   8.402   3.248
29877WAT     H289874   1.808   8.465   3.115
29878WAT      O89875   6.642   5.991   2.705
29878WAT     H189876   6.544   6.011   2.692
29878WAT     H289877   6.677   5.942   2.626
29879WAT      O89878   6.387   9.726   0.645
29879WAT     H189879   6.454   9.739   0.718
29879WAT     H289880   6.303   9.689   0.683
29880WAT      O89881   2.304   8.246   4.617
29880WAT     H189882   2.227   8.217   4.673
29880WAT     H289883   2.287   8.222   4.521
29881WAT      O89884   7.417   3.280   2.491
29881WAT     H189885   7.494   3.217   2.485
29881WAT     H289886   7.340   3.245   2.437
29882WAT      O89887   4.353   6.923   2.926
29882WAT     H189888   4.364   6.979   2.843
29882WAT     H289889   4.402   6.837   2.915
29883WAT      O89890   2.501   4.571   9.176
29883WAT     H189891   2.554   4.557   9.259
29883WAT     H289892   2.407   4.595   9.200
29884WAT      O89893   9.604   1.024   6.307
29884WAT     H189894   9.633   0.980   6.222
29884WAT     H289895   9.545   1.102   6.286
29885WAT      O89896   9.602   3.678   4.166
29885WAT     H189897   9.617   3.741   4.243
29885WAT     H289898   9.522   3.621   4.186
29886WAT      O89899   7.349   4.581   8.820
29886WAT     H189900   7.404   4.616   8.896
29886WAT     H289901   7.409   4.555   8.745
29887WAT      O89902   0.241   5.090   7.607
29887WAT     H189903   0.178   5.142   7.666
29887WAT     H289904   0.200   5.079   7.517
29888WAT      O89905   0.039   4.674   5.915
29888WAT     H189906   0.044   4.647   6.011
29888WAT     H289907   0.004   4.597   5.861
29889WAT      O89908   1.246   2.040   7.359
29889WAT     H189909   1.189   2.072   7.434
29889WAT     H289910   1.194   1.974   7.304
29890WAT      O89911   0.113   8.151   2.267
29890WAT     H189912   0.139   8.089   2.340
29890WAT     H289913   0.169   8.234   2.272
29891WAT      O89914   0.355   7.108   0.003
29891WAT     H189915   0.352   7.204   0.032
29891WAT     H289916   0.449   7.084  -0.022
29892WAT      O89917   8.826   5.218   0.391
29892WAT     H189918   8.769   5.198   0.470
29892WAT     H289919   8.773   5.268   0.323
29893WAT      O89920   8.061   1.496   1.997
29893WAT     H189921   7.966   1.498   1.965
29893WAT     H289922   8.064   1.518   2.094
29894WAT      O89923   8.120   4.867   0.721
29894WAT     H189924   8.167   4.801   0.662
29894WAT     H289925   8.179   4.892   0.797
29895WAT      O89926   5.885   7.511   2.814
29895WAT     H189927   5.983   7.519   2.796
29895WAT     H289928   5.860   7.415   2.822
29896WAT      O89929   8.384   4.777   9.250
29896WAT     H189930   8.412   4.850   9.312
29896WAT     H289931   8.305   4.729   9.289
29897WAT      O89932   4.561   6.244   7.168
29897WAT     H189933   4.579   6.342   7.165
29897WAT     H289934   4.492   6.225   7.238
29898WAT      O89935   1.091   5.535   1.143
29898WAT     H189936   1.004   5.539   1.192
29898WAT     H289937   1.135   5.625   1.146
29899WAT      O89938   9.837   4.635   5.318
29899WAT     H189939   9.865   4.728   5.297
29899WAT     H289940   9.819   4.586   5.233
29900WAT      O89941   8.844   8.881   4.272
29900WAT     H189942   8.846   8.962   4.330
29900WAT     H289943   8.827   8.909   4.177
29901WAT      O89944   0.271   2.935   7.915
29901WAT     H189945   0.269   2.836   7.901
29901WAT     H289946   0.209   2.980   7.850
29902WAT      O89947   6.646   3.711   8.055
29902WAT     H189948   6.718   3.644   8.036
29902WAT     H289949   6.620   3.706   8.151
29903WAT      O89950   0.377   2.590   2.364
29903WAT     H189951   0.428   2.513   2.325
29903WAT     H289952   0.434   2.636   2.432
29904WAT      O89953   0.445   0.491   1.386
29904WAT     H189954   0.544   0.495   1.400
29904WAT     H289955   0.416   0.395   1.380
29905WAT      O89956   7.949   4.287   4.021
29905WAT     H189957   8.003   4.333   3.952
29905WAT     H289958   7.956   4.188   4.008
29906WAT      O89959   6.916   7.342   2.872
29906WAT     H189960   6.987   7.290   2.824
29906WAT     H289961   6.912   7.312   2.967
29907WAT      O89962   1.799   4.406   4.103
29907WAT     H189963   1.727   4.463   4.063
29907WAT     H289964   1.805   4.424   4.201
29908WAT      O89965   6.703   7.321   1.187
29908WAT     H189966   6.713   7.390   1.116
29908WAT     H289967   6.613   7.277   1.178
29909WAT      O89968   2.400   4.809   2.015
29909WAT     H189969   2.323   4.823   2.077
29909WAT     H289970   2.480   4.858   2.050
29910WAT      O89971   2.319   8.282   0.057
29910WAT     H189972   2.293   8.207  -0.004
29910WAT     H289973   2.354   8.244   0.143
29911WAT      O89974   3.932   5.882   2.757
29911WAT     H189975   3.847   5.924   2.789
29911WAT     H289976   3.912   5.800   2.704
29912WAT      O89977   4.359   4.480   0.077
29912WAT     H189978   4.441   4.525   0.040
29912WAT     H289979   4.342   4.396   0.025
29913WAT      O89980   7.220   3.925   0.382
29913WAT     H189981   7.315   3.897   0.376
29913WAT     H289982   7.190   3.958   0.292
29914WAT      O89983   7.071   9.392   9.288
29914WAT     H189984   7.085   9.405   9.190
29914WAT     H289985   7.156   9.359   9.330
29915WAT      O89986   1.523   7.997   6.253
29915WAT     H189987   1.580   7.985   6.172
29915WAT     H289988   1.483   8.089   6.252
29916WAT      O89989   6.972   8.023   1.035
29916WAT     H189990   7.003   7.935   1.071
29916WAT     H289991   7.047   8.067   0.985
29917WAT      O89992   2.571   4.312   9.348
29917WAT     H189993   2.535   4.247   9.415
29917WAT     H289994   2.618   4.263   9.275
29918WAT      O89995   7.783   4.844   1.115
29918WAT     H189996   7.846   4.767   1.130
29918WAT     H289997   7.788   4.873   1.020
29919WAT      O89998   2.212   8.932   0.697
29919WAT     H189999   2.294   8.964   0.746
29919WAT     H290000   2.215   8.964   0.602
29920WAT      O90001   1.459   0.961   4.280
29920WAT     H190002   1.515   0.880   4.294
29920WAT     H290003   1.403   0.950   4.198
29921WAT      O90004   7.551   9.841   1.923
29921WAT     H190005   7.543   9.875   1.829
29921WAT     H290006   7.468   9.792   1.948
29922WAT      O90007   9.657   1.262   6.036
29922WAT     H190008   9.581   1.258   6.101
29922WAT     H290009   9.638   1.202   5.958
29923WAT      O90010   0.073   2.962   3.617
29923WAT     H190011  -0.009   2.943   3.563
29923WAT     H290012   0.135   3.019   3.564
29924WAT      O90013   2.961   2.963   4.363
29924WAT     H190014   2.917   3.046   4.398
29924WAT     H290015   2.901   2.920   4.295
29925WAT      O90016   0.588   5.244   4.807
29925WAT     H190017   0.530   5.179   4.758
29925WAT     H290018   0.633   5.305   4.741
29926WAT      O90019   6.522   6.220   7.682
29926WAT     H190020   6.462   6.275   7.739
29926WAT     H290021   6.573   6.155   7.739
29927WAT      O90022   2.063   2.583   9.308
29927WAT     H190023   2.007   2.657   9.345
29927WAT     H290024   2.136   2.622   9.252
29928WAT      O90025   3.501   9.831   7.498
29928WAT     H190026   3.407   9.798   7.492
29928WAT     H290027   3.535   9.819   7.592
29929WAT      O90028   8.716   6.262   5.591
29929WAT     H190029   8.619   6.265   5.616
29929WAT     H290030   8.749   6.355   5.573
29930WAT      O90031   5.888   6.931   2.100
29930WAT     H190032   5.956   6.858   2.110
29930WAT     H290033   5.915   6.991   2.025
29931WAT      O90034   8.937   9.310   3.233
29931WAT     H190035   8.990   9.299   3.149
29931WAT     H290036   8.961   9.397   3.276
29932WAT      O90037   5.898   1.398   1.445
29932WAT     H190038   5.927   1.305   1.464
29932WAT     H290039   5.824   1.397   1.378
29933WAT      O90040   9.371   6.435   9.732
29933WAT     H190041   9.413   6.472   9.815
29933WAT     H290042   9.409   6.345   9.713
29934WAT      O90043   4.417   0.398   3.943
29934WAT     H190044   4.508   0.437   3.932
29934WAT     H290045   4.417   0.304   3.910
29935WAT      O90046   0.713   0.463   1.401
29935WAT     H190047   0.811   0.483   1.395
29935WAT     H290048   0.699   0.373   1.442
29936WAT      O90049   4.909   6.225   6.917
29936WAT     H190050   4.821   6.216   6.872
29936WAT     H290051   4.978   6.171   6.869
29937WAT      O90052   1.310   2.181   1.365
29937WAT     H190053   1.395   2.151   1.409
29937WAT     H290054   1.319   2.276   1.334
29938WAT      O90055   5.710   8.304   4.312
29938WAT     H190056   5.677   8.246   4.237
29938WAT     H290057   5.746   8.245   4.385
29939WAT      O90058   4.826   7.463   8.618
29939WAT     H190059   4.783   7.444   8.530
29939WAT     H290060   4.874   7.381   8.650
29940WAT      O90061   4.316   5.705   0.518
29940WAT     H190062   4.302   5.779   0.583
29940WAT     H290063   4.292   5.618   0.562
29941WAT      O90064   7.748   4.834   8.345
29941WAT     H190065   7.696   4.915   8.372
29941WAT     H290066   7.711   4.798   8.260
29942WAT      O90067   5.740   3.210   7.332
29942WAT     H190068   5.698   3.280   7.390
29942WAT     H290069   5.808   3.253   7.272
29943WAT      O90070   9.827   7.831   5.440
29943WAT     H190071   9.878   7.900   5.388
29943WAT     H290072   9.879   7.746   5.444
29944WAT      O90073   2.111   0.098   3.790
29944WAT     H190074   2.022   0.107   3.833
29944WAT     H290075   2.152   0.010   3.814
29945WAT      O90076   7.921   0.236   9.320
29945WAT     H190077   7.862   0.193   9.388
29945WAT     H290078   7.869   0.257   9.238
29946WAT      O90079   9.086   8.787   5.827
29946WAT     H190080   9.176   8.817   5.859
29946WAT     H290081   9.015   8.844   5.869
29947WAT      O90082   9.549   6.305   8.047
29947WAT     H190083   9.521   6.209   8.051
29947WAT     H290084   9.641   6.312   8.008
29948WAT      O90085   8.433   3.644   6.675
29948WAT     H190086   8.476   3.734   6.669
29948WAT     H290087   8.468   3.596   6.755
29949WAT      O90088   9.506   0.359   0.009
29949WAT     H190089   9.552   0.364   0.097
29949WAT     H290090   9.574   0.365  -0.064
29950WAT      O90091   8.544   2.529   0.800
29950WAT     H190092   8.549   2.514   0.701
29950WAT     H290093   8.453   2.562   0.825
29951WAT      O90094   8.681   5.893   8.746
29951WAT     H190095   8.593   5.923   8.785
29951WAT     H290096   8.664   5.839   8.663
29952WAT      O90097   1.789   5.852   5.650
29952WAT     H190098   1.874   5.903   5.664
29952WAT     H290099   1.767   5.800   5.733
29953WAT      O90100   4.036   7.160   2.191
29953WAT     H190101   4.067   7.147   2.097
29953WAT     H290102   4.101   7.119   2.254
29954WAT      O90103   1.759   0.173   5.036
29954WAT     H190104   1.735   0.090   5.088
29954WAT     H290105   1.819   0.230   5.092
29955WAT      O90106   7.947   5.141   6.712
29955WAT     H190107   7.928   5.187   6.625
29955WAT     H290108   8.045   5.149   6.732
29956WAT      O90109   3.861   7.635   9.090
29956WAT     H190110   3.811   7.719   9.113
29956WAT     H290111   3.798   7.570   9.048
29957WAT      O90112   5.280   9.049   3.417
29957WAT     H190113   5.358   9.008   3.466
29957WAT     H290114   5.198   9.040   3.473
29958WAT      O90115   7.532   2.460   3.981
29958WAT     H190116   7.467   2.410   3.923
29958WAT     H290117   7.624   2.423   3.966
29959WAT      O90118   4.885   1.445   9.161
29959WAT     H190119   4.824   1.517   9.195
29959WAT     H290120   4.842   1.399   9.083
29960WAT      O90121   6.166   3.283   6.336
29960WAT     H190122   6.255   3.261   6.298
29960WAT     H290123   6.173   3.294   6.435
29961WAT      O90124   2.608   6.803   8.080
29961WAT     H190125   2.522   6.813   8.030
29961WAT     H290126   2.674   6.753   8.024
29962WAT      O90127   6.959   4.690   5.194
29962WAT     H190128   7.043   4.670   5.143
29962WAT     H290129   6.882   4.642   5.151
29963WAT      O90130   7.838   2.099   8.379
29963WAT     H190131   7.930   2.070   8.404
29963WAT     H290132   7.794   2.026   8.326
29964WAT      O90133   4.187   6.631   5.693
29964WAT     H190134   4.227   6.555   5.642
29964WAT     H290135   4.212   6.717   5.650
29965WAT      O90136   0.894   3.977   8.909
29965WAT     H190137   0.953   3.917   8.855
29965WAT     H290138   0.922   4.073   8.896
29966WAT      O90139   9.226   1.957   2.981
29966WAT     H190140   9.292   2.012   3.031
29966WAT     H290141   9.148   1.935   3.040
29967WAT      O90142   9.423   6.756   5.395
29967WAT     H190143   9.374   6.841   5.411
29967WAT     H290144   9.459   6.755   5.302
29968WAT      O90145   4.509   1.957   9.094
29968WAT     H190146   4.538   2.015   9.170
29968WAT     H290147   4.590   1.914   9.052
29969WAT      O90148   0.809   3.038   1.373
29969WAT     H190149   0.840   2.970   1.306
29969WAT     H290150   0.780   2.992   1.456
29970WAT      O90151   5.140   2.726   1.505
29970WAT     H190152   5.204   2.720   1.428
29970WAT     H290153   5.187   2.767   1.583
29971WAT      O90154   6.703   3.866   5.104
29971WAT     H190155   6.742   3.774   5.100
29971WAT     H290156   6.638   3.872   5.180
29972WAT      O90157   6.386   7.670   7.605
29972WAT     H190158   6.318   7.615   7.557
29972WAT     H290159   6.476   7.655   7.564
29973WAT      O90160   0.340   3.875   3.670
29973WAT     H190161   0.248   3.899   3.701
29973WAT     H290162   0.334   3.806   3.598
29974WAT      O90163   5.448   4.640   7.036
29974WAT     H190164   5.448   4.664   6.939
29974WAT     H290165   5.394   4.706   7.087
29975WAT      O90166   4.201   3.516   8.117
29975WAT     H190167   4.107   3.486   8.133
29975WAT     H290168   4.265   3.443   8.141
29976WAT      O90169   2.541   5.455   7.030
29976WAT     H190170   2.624   5.428   6.980
29976WAT     H290171   2.477   5.499   6.967
29977WAT      O90172   9.876   8.655   3.464
29977WAT     H190173   9.789   8.651   3.416
29977WAT     H290174   9.950   8.630   3.401
29978WAT      O90175   7.021   1.141   9.066
29978WAT     H190176   6.998   1.114   8.972
29978WAT     H290177   7.100   1.088   9.097
29979WAT      O90178   6.694   0.261   6.209
29979WAT     H190179   6.605   0.298   6.237
29979WAT     H290180   6.692   0.161   6.214
29980WAT      O90181   2.821   9.245   0.737
29980WAT     H190182   2.895   9.286   0.790
29980WAT     H290183   2.854   9.224   0.645
29981WAT      O90184   1.899   8.305   2.502
29981WAT     H190185   1.834   8.270   2.570
29981WAT     H290186   1.991   8.275   2.526
29982WAT      O90187   2.526   8.192   2.380
29982WAT     H190188   2.491   8.099   2.389
29982WAT     H290189   2.624   8.190   2.364
29983WAT      O90190   4.074   4.954   8.863
29983WAT     H190191   3.986   4.979   8.822
29983WAT     H290192   4.125   5.038   8.885
29984WAT      O90193   6.170   8.438   8.913
29984WAT     H190194   6.096   8.372   8.897
29984WAT     H290195   6.139   8.529   8.887
29985WAT      O90196   0.440   2.051   1.979
29985WAT     H190197   0.532   2.079   2.006
29985WAT     H290198   0.428   1.954   2.000
29986WAT      O90199   6.094   1.960   1.322
29986WAT     H190200   6.041   2.010   1.254
29986WAT     H290201   6.042   1.957   1.408
29987WAT      O90202   7.795   4.812   6.312
29987WAT     H190203   7.863   4.886   6.309
29987WAT     H290204   7.840   4.725   6.332
29988WAT      O90205   8.318   0.932   3.417
29988WAT     H190206   8.223   0.918   3.445
29988WAT     H290207   8.371   0.968   3.494
29989WAT      O90208   6.945   7.960   9.309
29989WAT     H190209   6.906   8.046   9.275
29989WAT     H290210   6.998   7.978   9.391
29990WAT      O90211   1.916   8.609   9.465
29990WAT     H190212   2.006   8.614   9.422
29990WAT     H290213   1.922   8.640   9.560
29991WAT      O90214   5.321   9.372   2.164
29991WAT     H190215   5.222   9.355   2.156
29991WAT     H290216   5.362   9.370   2.072
29992WAT      O90217   4.863   9.534   4.945
29992WAT     H190218   4.903   9.515   4.856
29992WAT     H290219   4.814   9.622   4.942
29993WAT      O90220   2.287   8.383   8.337
29993WAT     H190221   2.309   8.333   8.420
29993WAT     H290222   2.371   8.398   8.284
29994WAT      O90223   8.666   3.709   6.333
29994WAT     H190224   8.729   3.678   6.261
29994WAT     H290225   8.598   3.638   6.351
29995WAT      O90226   5.626   4.370   4.990
29995WAT     H190227   5.567   4.450   4.983
29995WAT     H290228   5.702   4.378   4.925
29996WAT      O90229   0.423   6.231   0.950
29996WAT     H190230   0.465   6.271   0.868
29996WAT     H290231   0.389   6.304   1.008
29997WAT      O90232   1.190   3.825   9.088
29997WAT     H190233   1.264   3.770   9.126
29997WAT     H290234   1.202   3.921   9.114
29998WAT      O90235   9.711   4.105   4.732
29998WAT     H190236   9.616   4.125   4.710
29998WAT     H290237   9.718   4.076   4.827
29999WAT      O90238   0.711   0.720   7.808
29999WAT     H190239   0.810   0.710   7.814
29999WAT     H290240   0.674   0.747   7.897
30000WAT      O90241   5.687   9.266   2.772
30000WAT     H190242   5.780   9.244   2.801
30000WAT     H290243   5.655   9.199   2.706
30001WAT      O90244   1.609   2.074   3.143
30001WAT     H190245   1.694   2.051   3.188
30001WAT     H290246   1.562   2.147   3.194
30002WAT      O90247   9.728   9.109   3.630
30002WAT     H190248   9.646   9.127   3.575
30002WAT     H290249   9.796   9.180   3.614
30003WAT      O90250   2.864   9.730   1.117
30003WAT     H190251   2.838   9.816   1.074
30003WAT     H290252   2.944   9.693   1.069
30004WAT      O90253   8.969   9.573   3.345
30004WAT     H190254   8.901   9.642   3.320
30004WAT     H290255   9.053   9.590   3.293
30005WAT      O90256   3.986   4.739   8.371
30005WAT     H190257   4.051   4.678   8.325
30005WAT     H290258   3.920   4.684   8.422
30006WAT      O90259   2.204   7.171   0.834
30006WAT     H190260   2.283   7.113   0.853
30006WAT     H290261   2.199   7.244   0.902
30007WAT      O90262   6.700   6.452   7.910
30007WAT     H190263   6.605   6.436   7.886
30007WAT     H290264   6.743   6.508   7.840
30008WAT      O90265   4.028   1.124   0.921
30008WAT     H190266   3.991   1.033   0.899
30008WAT     H290267   3.960   1.193   0.899
30009WAT      O90268   7.315   4.020   6.634
30009WAT     H190269   7.258   3.967   6.570
30009WAT     H290270   7.393   3.964   6.663
30010WAT      O90271   8.373   6.692   6.812
30010WAT     H190272   8.461   6.733   6.836
30010WAT     H290273   8.301   6.762   6.816
30011WAT      O90274   7.390   6.669   3.941
30011WAT     H190275   7.307   6.613   3.934
30011WAT     H290276   7.435   6.653   4.028
30012WAT      O90277   4.962   9.472   2.615
30012WAT     H190278   4.944   9.377   2.641
30012WAT     H290279   4.878   9.514   2.581
30013WAT      O90280   5.190   1.347   3.323
30013WAT     H190281   5.200   1.438   3.362
30013WAT     H290282   5.280   1.305   3.312
30014WAT      O90283   9.855   7.756   5.833
30014WAT     H190284   9.784   7.741   5.764
30014WAT     H290285   9.819   7.813   5.906
30015WAT      O90286   8.294   6.137   4.130
30015WAT     H190287   8.210   6.097   4.093
30015WAT     H290288   8.306   6.106   4.225
30016WAT      O90289   8.500   3.136   1.840
30016WAT     H190290   8.462   3.085   1.763
30016WAT     H290291   8.434   3.137   1.915
30017WAT      O90292   4.021   7.263   0.326
30017WAT     H190293   4.119   7.241   0.320
30017WAT     H290294   3.983   7.222   0.408
30018WAT      O90295   7.603   6.399   2.648
30018WAT     H190296   7.640   6.427   2.736
30018WAT     H290297   7.660   6.328   2.608
30019WAT      O90298   6.852   5.323   7.720
30019WAT     H190299   6.835   5.224   7.729
30019WAT     H290300   6.807   5.371   7.795
30020WAT      O90301   6.568   6.464   4.636
30020WAT     H190302   6.629   6.542   4.624
30020WAT     H290303   6.620   6.379   4.626
30021WAT      O90304   3.666   7.880   9.460
30021WAT     H190305   3.734   7.945   9.425
30021WAT     H290306   3.604   7.926   9.523
30022WAT      O90307   3.456   1.651   8.774
30022WAT     H190308   3.438   1.608   8.862
30022WAT     H290309   3.369   1.677   8.731
30023WAT      O90310   6.094   4.410   9.442
30023WAT     H190311   6.077   4.325   9.492
30023WAT     H290312   6.144   4.390   9.357
30024WAT      O90313   5.011   0.250   3.013
30024WAT     H190314   5.066   0.272   2.933
30024WAT     H290315   4.919   0.224   2.985
30025WAT      O90316   1.072   8.046   8.186
30025WAT     H190317   1.076   8.058   8.286
30025WAT     H290318   1.039   7.954   8.165
30026WAT      O90319   8.964   6.609   5.370
30026WAT     H190320   8.992   6.705   5.369
30026WAT     H290321   8.986   6.567   5.283
30027WAT      O90322   8.865   2.313   4.423
30027WAT     H190323   8.834   2.389   4.478
30027WAT     H290324   8.965   2.308   4.426
30028WAT      O90325   6.912   2.658   0.573
30028WAT     H190326   6.895   2.596   0.496
30028WAT     H290327   7.010   2.658   0.594
30029WAT      O90328   5.290   0.773   7.573
30029WAT     H190329   5.351   0.787   7.651
30029WAT     H290330   5.198   0.806   7.597
30030WAT      O90331   0.777   8.403   0.478
30030WAT     H190332   0.708   8.391   0.407
30030WAT     H290333   0.848   8.465   0.445
30031WAT      O90334   5.338   9.103   2.467
30031WAT     H190335   5.350   9.051   2.382
30031WAT     H290336   5.247   9.084   2.505
30032WAT      O90337   3.658   6.319   7.350
30032WAT     H190338   3.721   6.358   7.283
30032WAT     H290339   3.564   6.337   7.321
30033WAT      O90340   9.710   9.745   2.568
30033WAT     H190341   9.707   9.714   2.474
30033WAT     H290342   9.739   9.841   2.570
30034WAT      O90343   5.207   9.166   1.111
30034WAT     H190344   5.210   9.183   1.210
30034WAT     H290345   5.296   9.132   1.081
30035WAT      O90346   0.968   7.003   3.135
30035WAT     H190347   1.041   7.073   3.137
30035WAT     H290348   1.000   6.920   3.180
30036WAT      O90349   4.827   3.683   9.588
30036WAT     H190350   4.827   3.646   9.681
30036WAT     H290351   4.871   3.773   9.588
30037WAT      O90352   2.130   2.114   4.801
30037WAT     H190353   2.077   2.198   4.787
30037WAT     H290354   2.087   2.060   4.873
30038WAT      O90355   2.005   0.977   5.918
30038WAT     H190356   2.088   0.921   5.912
30038WAT     H290357   2.029   1.070   5.946
30039WAT      O90358   8.935   9.401   1.805
30039WAT     H190359   8.942   9.331   1.876
30039WAT     H290360   8.869   9.471   1.833
30040WAT      O90361   4.434   0.648   9.159
30040WAT     H190362   4.358   0.709   9.136
30040WAT     H290363   4.476   0.678   9.245
30041WAT      O90364   2.848   4.039   8.007
30041WAT     H190365   2.894   3.982   7.938
30041WAT     H290366   2.805   3.980   8.075
30042WAT      O90367   1.140   2.467   6.879
30042WAT     H190368   1.145   2.409   6.960
30042WAT     H290369   1.107   2.413   6.801
30043WAT      O90370   0.923   4.867   2.187
30043WAT     H190371   1.021   4.860   2.205
30043WAT     H290372   0.894   4.787   2.134
30044WAT      O90373   7.703   1.471   0.412
30044WAT     H190374   7.653   1.554   0.436
30044WAT     H290375   7.710   1.463   0.313
30045WAT      O90376   6.056   2.971   7.454
30045WAT     H190377   6.134   3.001   7.399
30045WAT     H290378   6.038   3.038   7.526
30046WAT      O90379   0.399   2.195   3.123
30046WAT     H190380   0.486   2.229   3.159
30046WAT     H290381   0.386   2.229   3.030
30047WAT      O90382   1.642   9.023   7.313
30047WAT     H190383   1.729   9.005   7.267
30047WAT     H290384   1.637   8.970   7.398
30048WAT      O90385   0.104   3.390   4.316
30048WAT     H190386   0.016   3.397   4.270
30048WAT     H290387   0.175   3.367   4.250
30049WAT      O90388   9.812   0.435   5.817
30049WAT     H190389   9.787   0.481   5.732
30049WAT     H290390   9.779   0.340   5.815
30050WAT      O90391   1.762   5.370   9.808
30050WAT     H190392   1.821   5.429   9.752
30050WAT     H290393   1.748   5.412   9.897
30051WAT      O90394   0.579   8.445   3.365
30051WAT     H190395   0.547   8.420   3.274
30051WAT     H290396   0.676   8.470   3.361
30052WAT      O90397   1.472   8.281   9.784
30052WAT     H190398   1.522   8.271   9.698
30052WAT     H290399   1.384   8.234   9.778
30053WAT      O90400   6.360   0.340   3.144
30053WAT     H190401   6.366   0.411   3.215
30053WAT     H290402   6.452   0.313   3.117
30054WAT      O90403   0.002   1.828   9.639
30054WAT     H190404   0.041   1.787   9.722
30054WAT     H290405   0.065   1.899   9.605
30055WAT      O90406   9.074   6.401   3.947
30055WAT     H190407   9.138   6.349   3.890
30055WAT     H290408   9.002   6.340   3.980
30056WAT      O90409   6.764   1.912   3.229
30056WAT     H190410   6.818   1.872   3.155
30056WAT     H290411   6.701   1.980   3.191
30057WAT      O90412   3.717   6.561   1.217
30057WAT     H190413   3.801   6.566   1.163
30057WAT     H290414   3.661   6.484   1.185
30058WAT      O90415   5.391   6.816   7.160
30058WAT     H190416   5.428   6.812   7.067
30058WAT     H290417   5.466   6.805   7.225
30059WAT      O90418   3.507   9.449   3.728
30059WAT     H190419   3.601   9.473   3.755
30059WAT     H290420   3.443   9.500   3.786
30060WAT      O90421   1.011   2.441   7.276
30060WAT     H190422   1.015   2.366   7.211
30060WAT     H290423   1.104   2.470   7.299
30061WAT      O90424   4.152   1.372   3.891
30061WAT     H190425   4.152   1.341   3.986
30061WAT     H290426   4.202   1.459   3.884
30062WAT      O90427   1.430   7.767   1.677
30062WAT     H190428   1.342   7.721   1.667
30062WAT     H290429   1.441   7.834   1.603
30063WAT      O90430   1.026   2.244   7.034
30063WAT     H190431   1.118   2.216   7.063
30063WAT     H290432   0.979   2.166   6.994
30064WAT      O90433   4.251   5.756   3.453
30064WAT     H190434   4.198   5.841   3.454
30064WAT     H290435   4.348   5.777   3.465
30065WAT      O90436   3.952   0.959   2.693
30065WAT     H190437   3.888   1.000   2.628
30065WAT     H290438   3.921   0.867   2.717
30066WAT      O90439   7.293   1.154   5.964
30066WAT     H190440   7.275   1.165   6.062
30066WAT     H290441   7.271   1.240   5.918
30067WAT      O90442   4.238   5.453   0.622
30067WAT     H190443   4.309   5.395   0.582
30067WAT     H290444   4.163   5.395   0.656
30068WAT      O90445   3.107   7.035   7.716
30068WAT     H190446   3.146   7.036   7.808
30068WAT     H290447   3.175   7.003   7.651
30069WAT      O90448   4.940   5.461   8.229
30069WAT     H190449   4.990   5.386   8.187
30069WAT     H290450   4.952   5.544   8.174
30070WAT      O90451   2.981   5.239   6.000
30070WAT     H190452   2.996   5.188   5.915
30070WAT     H290453   2.914   5.312   5.984
30071WAT      O90454   2.577   0.918   9.796
30071WAT     H190455   2.486   0.879   9.815
30071WAT     H290456   2.624   0.861   9.730
30072WAT      O90457   7.718   1.771   5.237
30072WAT     H190458   7.683   1.684   5.203
30072WAT     H290459   7.663   1.846   5.201
30073WAT      O90460   4.361   0.785   6.088
30073WAT     H190461   4.354   0.686   6.093
30073WAT     H290462   4.286   0.827   6.139
30074WAT      O90463   6.717   1.108   9.250
30074WAT     H190464   6.708   1.093   9.349
30074WAT     H290465   6.810   1.139   9.230
30075WAT      O90466   9.290   2.656   1.484
30075WAT     H190467   9.197   2.668   1.518
30075WAT     H290468   9.342   2.599   1.548
30076WAT      O90469   7.023   5.921   5.100
30076WAT     H190470   7.044   5.954   5.007
30076WAT     H290471   7.108   5.912   5.152
30077WAT      O90472   5.010   8.134   9.413
30077WAT     H190473   5.074   8.151   9.488
30077WAT     H290474   5.029   8.198   9.339
30078WAT      O90475   6.213   5.075   8.027
30078WAT     H190476   6.169   5.040   7.944
30078WAT     H290477   6.295   5.021   8.046
30079WAT      O90478   1.734   6.422   9.747
30079WAT     H190479   1.744   6.344   9.810
30079WAT     H290480   1.685   6.392   9.665
30080WAT      O90481   6.262   1.502   6.608
30080WAT     H190482   6.339   1.565   6.607
30080WAT     H290483   6.239   1.476   6.514
30081WAT      O90484   1.049   9.080   3.114
30081WAT     H190485   1.040   8.982   3.097
30081WAT     H290486   0.996   9.130   3.046
30082WAT      O90487   6.626   4.585   5.732
30082WAT     H190488   6.581   4.669   5.701
30082WAT     H290489   6.568   4.506   5.709
30083WAT      O90490   1.884   7.767   7.660
30083WAT     H190491   1.943   7.846   7.646
30083WAT     H290492   1.791   7.790   7.632
30084WAT      O90493   0.713   2.648   7.662
30084WAT     H190494   0.730   2.570   7.602
30084WAT     H290495   0.739   2.624   7.756
30085WAT      O90496   3.251   5.337   1.374
30085WAT     H190497   3.184   5.346   1.300
30085WAT     H290498   3.240   5.412   1.439
30086WAT      O90499   1.802   8.381   0.721
30086WAT     H190500   1.713   8.387   0.766
30086WAT     H290501   1.792   8.334   0.633
30087WAT      O90502   9.759   8.560   2.872
30087WAT     H190503   9.686   8.527   2.932
30087WAT     H290504   9.723   8.570   2.779
30088WAT      O90505   8.011   3.287   5.525
30088WAT     H190506   8.073   3.217   5.561
30088WAT     H290507   7.937   3.303   5.590
30089WAT      O90508   8.194   7.242   3.602
30089WAT     H190509   8.106   7.276   3.635
30089WAT     H290510   8.240   7.191   3.675
30090WAT      O90511   5.272   1.307   5.974
30090WAT     H190512   5.208   1.375   5.940
30090WAT     H290513   5.232   1.259   6.052
30091WAT      O90514   1.124   1.583   4.351
30091WAT     H190515   1.173   1.518   4.292
30091WAT     H290516   1.191   1.641   4.398
30092WAT      O90517   3.890   5.483   2.338
30092WAT     H190518   3.956   5.504   2.266
30092WAT     H290519   3.926   5.409   2.395
30093WAT      O90520   7.203   4.321   2.620
30093WAT     H190521   7.240   4.363   2.537
30093WAT     H290522   7.270   4.257   2.657
30094WAT      O90523   2.316   0.960   7.200
30094WAT     H190524   2.300   0.974   7.102
30094WAT     H290525   2.245   0.899   7.236
30095WAT      O90526   2.443   0.660   9.876
30095WAT     H190527   2.498   0.608   9.941
30095WAT     H290528   2.360   0.692   9.920
30096WAT      O90529   8.663   5.199   2.295
30096WAT     H190530   8.714   5.115   2.313
30096WAT     H290531   8.701   5.274   2.349
30097WAT      O90532   6.814   9.383   3.159
30097WAT     H190533   6.755   9.447   3.110
30097WAT     H290534   6.779   9.290   3.148
30098WAT      O90535   3.315   2.913   9.199
30098WAT     H190536   3.339   3.010   9.202
30098WAT     H290537   3.270   2.892   9.112
30099WAT      O90538   6.190   6.169   2.562
30099WAT     H190539   6.110   6.109   2.565
30099WAT     H290540   6.168   6.257   2.604
30100WAT      O90541   1.398   4.741   0.730
30100WAT     H190542   1.366   4.694   0.812
30100WAT     H290543   1.462   4.814   0.756
30101WAT      O90544   3.165   3.943   7.577
30101WAT     H190545   3.233   3.953   7.650
30101WAT     H290546   3.191   3.868   7.517
30102WAT      O90547   6.518   6.570   7.619
30102WAT     H190548   6.540   6.631   7.543
30102WAT     H290549   6.479   6.623   7.694
30103WAT      O90550   5.326   6.451   0.031
30103WAT     H190551   5.346   6.548   0.048
30103WAT     H290552   5.230   6.433   0.049
30104WAT      O90553   5.465   4.672   5.596
30104WAT     H190554   5.560   4.645   5.579
30104WAT     H290555   5.425   4.710   5.513
30105WAT      O90556   0.054   1.025   0.538
30105WAT     H190557   0.138   1.079   0.550
30105WAT     H290558   0.078   0.928   0.534
30106WAT      O90559   6.547   0.696   6.436
30106WAT     H190560   6.636   0.655   6.454
30106WAT     H290561   6.551   0.794   6.454
30107WAT      O90562   0.882   6.612   7.749
30107WAT     H190563   0.934   6.696   7.765
30107WAT     H290564   0.944   6.534   7.748
30108WAT      O90565   6.785   7.343   2.089
30108WAT     H190566   6.790   7.257   2.039
30108WAT     H290567   6.779   7.325   2.187
30109WAT      O90568   3.674   9.133   6.850
30109WAT     H190569   3.705   9.086   6.933
30109WAT     H290570   3.685   9.073   6.771
30110WAT      O90571   9.012   1.131   4.841
30110WAT     H190572   9.015   1.045   4.790
30110WAT     H290573   9.031   1.113   4.937
30111WAT      O90574   2.601   5.894   2.809
30111WAT     H190575   2.598   5.979   2.756
30111WAT     H290576   2.573   5.913   2.903
30112WAT      O90577   6.104   3.096   9.489
30112WAT     H190578   6.028   3.057   9.437
30112WAT     H290579   6.191   3.071   9.445
30113WAT      O90580   8.686   7.773   0.712
30113WAT     H190581   8.780   7.788   0.681
30113WAT     H290582   8.645   7.698   0.661
30114WAT      O90583   6.547   2.975   1.029
30114WAT     H190584   6.566   3.073   1.032
30114WAT     H290585   6.450   2.960   1.014
30115WAT      O90586   9.186   3.562   1.417
30115WAT     H190587   9.197   3.610   1.504
30115WAT     H290588   9.275   3.527   1.387
30116WAT      O90589   3.032   7.841   5.219
30116WAT     H190590   3.118   7.883   5.190
30116WAT     H290591   3.029   7.836   5.319
30117WAT      O90592   0.425   8.640   2.303
30117WAT     H190593   0.357   8.708   2.331
30117WAT     H290594   0.461   8.664   2.213
30118WAT      O90595   2.669   9.660   6.859
30118WAT     H190596   2.587   9.682   6.912
30118WAT     H290597   2.654   9.684   6.763
30119WAT      O90598   1.737   4.875   0.415
30119WAT     H190599   1.736   4.902   0.511
30119WAT     H290600   1.831   4.864   0.384
30120WAT      O90601   9.188   4.102   3.247
30120WAT     H190602   9.267   4.095   3.308
30120WAT     H290603   9.190   4.029   3.180
30121WAT      O90604   3.881   8.840   0.689
30121WAT     H190605   3.923   8.810   0.603
30121WAT     H290606   3.805   8.902   0.669
30122WAT      O90607   6.672   8.723   8.034
30122WAT     H190608   6.705   8.772   8.115
30122WAT     H290609   6.717   8.634   8.028
30123WAT      O90610   8.497   8.382   8.608
30123WAT     H190611   8.488   8.315   8.682
30123WAT     H290612   8.476   8.339   8.521
30124WAT      O90613   5.851   4.760   0.664
30124WAT     H190614   5.802   4.673   0.671
30124WAT     H290615   5.786   4.835   0.677
30125WAT      O90616   5.019   9.751   6.445
30125WAT     H190617   5.103   9.791   6.409
30125WAT     H290618   5.031   9.728   6.541
30126WAT      O90619   3.561   0.805   0.482
30126WAT     H190620   3.586   0.749   0.402
30126WAT     H290621   3.466   0.835   0.472
30127WAT      O90622   3.282   4.847   7.834
30127WAT     H190623   3.190   4.880   7.856
30127WAT     H290624   3.319   4.797   7.912
30128WAT      O90625   7.013   3.495   3.618
30128WAT     H190626   7.045   3.589   3.608
30128WAT     H290627   6.918   3.489   3.587
30129WAT      O90628   3.164   4.022   8.469
30129WAT     H190629   3.215   4.088   8.525
30129WAT     H290630   3.224   3.981   8.402
30130WAT      O90631   9.352   8.548   6.110
30130WAT     H190632   9.306   8.580   6.193
30130WAT     H290633   9.437   8.502   6.135
30131WAT      O90634   9.537   5.114   7.426
30131WAT     H190635   9.629   5.152   7.433
30131WAT     H290636   9.534   5.025   7.472
30132WAT      O90637   8.711   4.346   4.832
30132WAT     H190638   8.805   4.319   4.852
30132WAT     H290639   8.650   4.313   4.904
30133WAT      O90640   1.871   3.385   5.663
30133WAT     H190641   1.827   3.403   5.575
30133WAT     H290642   1.949   3.447   5.675
30134WAT      O90643   3.228   7.217   1.166
30134WAT     H190644   3.128   7.211   1.163
30134WAT     H290645   3.267   7.147   1.107
30135WAT      O90646   4.580   5.376   2.952
30135WAT     H190647   4.569   5.287   2.996
30135WAT     H290648   4.557   5.448   3.016
30136WAT      O90649   1.691   4.443   7.300
30136WAT     H190650   1.728   4.535   7.313
30136WAT     H290651   1.637   4.417   7.381
30137WAT      O90652   4.306   4.004   3.631
30137WAT     H190653   4.237   3.970   3.696
30137WAT     H290654   4.397   3.994   3.671
30138WAT      O90655   2.606   6.572   3.092
30138WAT     H190656   2.522   6.626   3.101
30138WAT     H290657   2.624   6.555   2.995
30139WAT      O90658   2.793   6.597   8.378
30139WAT     H190659   2.714   6.583   8.318
30139WAT     H290660   2.798   6.524   8.445
30140WAT      O90661   7.283   0.645   1.070
30140WAT     H190662   7.281   0.580   1.146
30140WAT     H290663   7.360   0.708   1.082
30141WAT      O90664   9.753   0.980   0.059
30141WAT     H190665   9.779   1.075   0.076
30141WAT     H290666   9.654   0.974   0.047
30142WAT      O90667   3.861   7.780   6.872
30142WAT     H190668   3.896   7.873   6.867
30142WAT     H290669   3.930   7.720   6.913
30143WAT      O90670   6.604   6.417   1.509
30143WAT     H190671   6.571   6.442   1.600
30143WAT     H290672   6.616   6.318   1.504
30144WAT      O90673   8.353   9.256   8.688
30144WAT     H190674   8.303   9.331   8.644
30144WAT     H290675   8.289   9.203   8.744
30145WAT      O90676   6.980   1.840   2.501
30145WAT     H190677   6.964   1.755   2.451
30145WAT     H290678   7.047   1.896   2.453
30146WAT      O90679   8.795   4.319   1.569
30146WAT     H190680   8.713   4.281   1.613
30146WAT     H290681   8.874   4.263   1.592
30147WAT      O90682   3.858   7.665   1.281
30147WAT     H190683   3.902   7.608   1.351
30147WAT     H290684   3.842   7.611   1.199
30148WAT      O90685   4.791   1.384   4.635
30148WAT     H190686   4.758   1.438   4.557
30148WAT     H290687   4.866   1.432   4.680
30149WAT      O90688   5.790   1.768   0.892
30149WAT     H190689   5.720   1.822   0.846
30149WAT     H290690   5.769   1.671   0.882
30150WAT      O90691   1.127   8.528   8.844
30150WAT     H190692   1.122   8.527   8.944
30150WAT     H290693   1.061   8.462   8.807
30151WAT      O90694   0.830   2.429   1.629
30151WAT     H190695   0.764   2.504   1.626
30151WAT     H290696   0.921   2.463   1.608
30152WAT      O90697   6.956   6.116   6.367
30152WAT     H190698   6.980   6.157   6.279
30152WAT     H290699   6.869   6.153   6.399
30153WAT      O90700   4.861   7.903   9.387
30153WAT     H190701   4.901   7.985   9.428
30153WAT     H290702   4.851   7.832   9.457
30154WAT      O90703   0.358   5.048   2.714
30154WAT     H190704   0.321   5.139   2.729
30154WAT     H290705   0.389   5.040   2.619
30155WAT      O90706   2.957   0.359   2.865
30155WAT     H190707   3.004   0.395   2.785
30155WAT     H290708   3.022   0.344   2.939
30156WAT      O90709   1.482   8.959   8.027
30156WAT     H190710   1.476   9.006   8.115
30156WAT     H290711   1.394   8.917   8.005
30157WAT      O90712   5.649   0.815   0.337
30157WAT     H190713   5.730   0.823   0.396
30157WAT     H290714   5.640   0.720   0.306
30158WAT      O90715   2.140   3.157   8.378
30158WAT     H190716   2.205   3.115   8.314
30158WAT     H290717   2.052   3.110   8.373
30159WAT      O90718   9.469   6.963   8.303
30159WAT     H190719   9.498   7.050   8.341
30159WAT     H290720   9.404   6.919   8.365
30160WAT      O90721   9.872   7.514   9.251
30160WAT     H190722   9.938   7.583   9.223
30160WAT     H290723   9.915   7.451   9.315
30161WAT      O90724   2.527   6.801   4.220
30161WAT     H190725   2.501   6.707   4.242
30161WAT     H290726   2.517   6.858   4.302
30162WAT      O90727   6.825   8.112   8.224
30162WAT     H190728   6.760   8.186   8.239
30162WAT     H290729   6.807   8.069   8.136
30163WAT      O90730   4.183   1.595   2.613
30163WAT     H190731   4.136   1.525   2.667
30163WAT     H290732   4.135   1.609   2.527
30164WAT      O90733   7.034   2.243   6.619
30164WAT     H190734   7.103   2.263   6.549
30164WAT     H290735   6.952   2.298   6.602
30165WAT      O90736   4.785   8.277   5.074
30165WAT     H190737   4.827   8.188   5.056
30165WAT     H290738   4.856   8.344   5.093
30166WAT      O90739   2.588   3.988   1.373
30166WAT     H190740   2.674   3.998   1.423
30166WAT     H290741   2.512   4.008   1.434
30167WAT      O90742   4.098   6.236   8.166
30167WAT     H190743   4.021   6.258   8.106
30167WAT     H290744   4.098   6.299   8.244
30168WAT      O90745   5.825   5.316   1.052
30168WAT     H190746   5.740   5.291   1.100
30168WAT     H290747   5.851   5.243   0.989
30169WAT      O90748   5.100   0.397   1.404
30169WAT     H190749   5.008   0.359   1.389
30169WAT     H290750   5.124   0.455   1.326
30170WAT      O90751   7.053   8.748   8.216
30170WAT     H190752   7.083   8.763   8.122
30170WAT     H290753   7.103   8.670   8.254
30171WAT      O90754   0.076   4.445   0.540
30171WAT     H190755   0.163   4.420   0.498
30171WAT     H290756   0.048   4.536   0.507
30172WAT      O90757   2.773   8.644   7.993
30172WAT     H190758   2.825   8.725   7.966
30172WAT     H290759   2.710   8.669   8.067
30173WAT      O90760   3.315   2.535   3.364
30173WAT     H190761   3.327   2.534   3.265
30173WAT     H290762   3.357   2.618   3.401
30174WAT      O90763   2.154   0.443   1.420
30174WAT     H190764   2.129   0.499   1.341
30174WAT     H290765   2.205   0.363   1.389
30175WAT      O90766   7.991   7.482   3.032
30175WAT     H190767   7.930   7.552   3.069
30175WAT     H290768   8.085   7.515   3.034
30176WAT      O90769   8.441   1.543   0.556
30176WAT     H190770   8.361   1.598   0.579
30176WAT     H290771   8.414   1.447   0.545
30177WAT      O90772   9.088   6.084   9.359
30177WAT     H190773   9.117   6.172   9.395
30177WAT     H290774   8.994   6.065   9.385
30178WAT      O90775   3.089   1.912   5.052
30178WAT     H190776   3.078   1.813   5.043
30178WAT     H290777   3.014   1.949   5.107
30179WAT      O90778   4.456   1.866   8.139
30179WAT     H190779   4.486   1.961   8.125
30179WAT     H290780   4.387   1.864   8.211
30180WAT      O90781   1.389   4.763   1.268
30180WAT     H190782   1.411   4.675   1.309
30180WAT     H290783   1.461   4.829   1.289
30181WAT      O90784   7.269   0.558   7.136
30181WAT     H190785   7.302   0.490   7.069
30181WAT     H290786   7.170   0.571   7.123
30182WAT      O90787   7.249   6.175   8.521
30182WAT     H190788   7.207   6.099   8.571
30182WAT     H290789   7.329   6.208   8.572
30183WAT      O90790   4.562   8.849   1.764
30183WAT     H190791   4.576   8.820   1.669
30183WAT     H290792   4.470   8.822   1.793
30184WAT      O90793   0.985   9.605   6.610
30184WAT     H190794   1.040   9.542   6.554
30184WAT     H290795   0.924   9.657   6.550
30185WAT      O90796   0.365   9.491   6.902
30185WAT     H190797   0.446   9.529   6.857
30185WAT     H290798   0.284   9.543   6.875
30186WAT      O90799   3.756   0.669   5.231
30186WAT     H190800   3.695   0.708   5.299
30186WAT     H290801   3.827   0.616   5.277
30187WAT      O90802   9.688   0.504   7.527
30187WAT     H190803   9.603   0.541   7.565
30187WAT     H290804   9.685   0.404   7.532
30188WAT      O90805   0.224   4.545   7.338
30188WAT     H190806   0.313   4.529   7.295
30188WAT     H290807   0.156   4.484   7.296
30189WAT      O90808   0.192   1.162   3.810
30189WAT     H190809   0.137   1.169   3.726
30189WAT     H290810   0.181   1.246   3.863
30190WAT      O90811   1.125   3.014   9.437
30190WAT     H190812   1.206   2.976   9.393
30190WAT     H290813   1.077   3.073   9.372
30191WAT      O90814   4.444   8.484   6.461
30191WAT     H190815   4.375   8.411   6.460
30191WAT     H290816   4.524   8.452   6.512
30192WAT      O90817   1.992   8.023   9.652
30192WAT     H190818   1.926   8.055   9.720
30192WAT     H290819   2.081   8.065   9.671
30193WAT      O90820   6.432   1.145   9.345
30193WAT     H190821   6.503   1.086   9.385
30193WAT     H290822   6.473   1.231   9.316
30194WAT      O90823   7.775   6.364   1.624
30194WAT     H190824   7.732   6.452   1.645
30194WAT     H290825   7.709   6.290   1.636
30195WAT      O90826   4.802   6.120   9.014
30195WAT     H190827   4.800   6.128   9.114
30195WAT     H290828   4.810   6.211   8.973
30196WAT      O90829   9.030   8.331   3.457
30196WAT     H190830   9.118   8.297   3.421
30196WAT     H290831   9.048   8.400   3.527
30197WAT      O90832   6.822   8.227   9.424
30197WAT     H190833   6.748   8.295   9.423
30197WAT     H290834   6.909   8.272   9.439
30198WAT      O90835   4.728   0.449   5.511
30198WAT     H190836   4.709   0.358   5.549
30198WAT     H290837   4.826   0.467   5.516
30199WAT      O90838   2.603   3.972   9.597
30199WAT     H190839   2.526   4.028   9.568
30199WAT     H290840   2.572   3.905   9.665
30200WAT      O90841   2.507   9.203   8.428
30200WAT     H190842   2.587   9.144   8.438
30200WAT     H290843   2.524   9.290   8.475
30201WAT      O90844   4.612   4.246   0.940
30201WAT     H190845   4.519   4.276   0.923
30201WAT     H290846   4.671   4.271   0.863
30202WAT      O90847   0.224   9.811   1.488
30202WAT     H190848   0.323   9.804   1.497
30202WAT     H290849   0.186   9.860   1.566
30203WAT      O90850   4.722   0.932   4.715
30203WAT     H190851   4.651   0.974   4.659
30203WAT     H290852   4.812   0.950   4.673
30204WAT      O90853   3.435   0.865   5.899
30204WAT     H190854   3.428   0.927   5.977
30204WAT     H290855   3.400   0.910   5.817
30205WAT      O90856   4.737   9.536   3.754
30205WAT     H190857   4.680   9.592   3.694
30205WAT     H290858   4.691   9.449   3.773
30206WAT      O90859   1.731   6.854   9.784
30206WAT     H190860   1.779   6.934   9.820
30206WAT     H290861   1.780   6.771   9.812
30207WAT      O90862   4.749   0.901   9.239
30207WAT     H190863   4.846   0.924   9.236
30207WAT     H290864   4.707   0.918   9.150
30208WAT      O90865   0.333   4.154   0.189
30208WAT     H190866   0.359   4.161   0.285
30208WAT     H290867   0.333   4.058   0.161
30209WAT      O90868   2.415   0.994   9.220
30209WAT     H190869   2.468   0.914   9.192
30209WAT     H290870   2.409   0.997   9.320
30210WAT      O90871   4.697   6.984   6.542
30210WAT     H190872   4.654   6.903   6.503
30210WAT     H290873   4.694   6.978   6.642
30211WAT      O90874   1.734   4.423   5.573
30211WAT     H190875   1.702   4.328   5.581
30211WAT     H290876   1.668   4.476   5.521
30212WAT      O90877   7.935   0.358   7.477
30212WAT     H190878   7.965   0.263   7.471
30212WAT     H290879   7.854   0.371   7.421
30213WAT      O90880   9.377   6.998   4.468
30213WAT     H190881   9.402   6.903   4.486
30213WAT     H290882   9.423   7.058   4.534
30214WAT      O90883   1.121   8.887   1.590
30214WAT     H190884   1.192   8.956   1.575
30214WAT     H290885   1.146   8.802   1.545
30215WAT      O90886   2.113   4.323   1.404
30215WAT     H190887   2.035   4.322   1.340
30215WAT     H290888   2.113   4.238   1.458
30216WAT      O90889   2.255   2.548   3.856
30216WAT     H190890   2.338   2.601   3.875
30216WAT     H290891   2.174   2.602   3.881
30217WAT      O90892   1.692   4.476   7.626
30217WAT     H190893   1.685   4.376   7.629
30217WAT     H290894   1.786   4.502   7.603
30218WAT      O90895   9.738   9.356   9.029
30218WAT     H190896   9.792   9.380   8.948
30218WAT     H290897   9.694   9.439   9.065
30219WAT      O90898   2.746   6.086   8.550
30219WAT     H190899   2.674   6.111   8.615
30219WAT     H290900   2.829   6.061   8.600
30220WAT      O90901   7.535   6.817   5.513
30220WAT     H190902   7.472   6.792   5.440
30220WAT     H290903   7.588   6.898   5.485
30221WAT      O90904   5.584   4.535   5.908
30221WAT     H190905   5.542   4.463   5.963
30221WAT     H290906   5.682   4.539   5.928
30222WAT      O90907   3.443   6.528   9.205
30222WAT     H190908   3.460   6.617   9.248
30222WAT     H290909   3.394   6.469   9.270
30223WAT      O90910   9.408   5.740   2.083
30223WAT     H190911   9.408   5.838   2.061
30223WAT     H290912   9.322   5.699   2.053
30224WAT      O90913   9.490   9.383   0.090
30224WAT     H190914   9.552   9.398   0.014
30224WAT     H290915   9.536   9.406   0.176
30225WAT      O90916   3.486   8.112   1.176
30225WAT     H190917   3.557   8.182   1.178
30225WAT     H290918   3.398   8.155   1.154
30226WAT      O90919   6.107   6.282   8.771
30226WAT     H190920   6.112   6.199   8.714
30226WAT     H290921   6.111   6.363   8.712
30227WAT      O90922   2.041   1.667   9.537
30227WAT     H190923   2.094   1.717   9.606
30227WAT     H290924   2.005   1.583   9.577
30228WAT      O90925   0.157   9.664   0.480
30228WAT     H190926   0.159   9.600   0.403
30228WAT     H290927   0.212   9.745   0.457
30229WAT      O90928   2.408   3.595   6.518
30229WAT     H190929   2.481   3.576   6.583
30229WAT     H290930   2.332   3.533   6.535
30230WAT      O90931   6.094   1.175   3.552
30230WAT     H190932   6.173   1.213   3.599
30230WAT     H290933   6.071   1.086   3.592
30231WAT      O90934   0.971   8.274   3.679
30231WAT     H190935   1.002   8.350   3.622
30231WAT     H290936   0.891   8.232   3.636
30232WAT      O90937   5.740   9.062   8.964
30232WAT     H190938   5.688   8.984   8.929
30232WAT     H290939   5.718   9.076   9.061
30233WAT      O90940   0.193   4.010   6.447
30233WAT     H190941   0.258   4.030   6.521
30233WAT     H290942   0.109   4.061   6.462
30234WAT      O90943   3.018   6.847   0.851
30234WAT     H190944   3.097   6.786   0.852
30234WAT     H290945   2.934   6.793   0.849
30235WAT      O90946   9.748   1.683   4.507
30235WAT     H190947   9.701   1.734   4.579
30235WAT     H290948   9.802   1.745   4.451
30236WAT      O90949   3.188   5.521   4.330
30236WAT     H190950   3.264   5.544   4.391
30236WAT     H290951   3.105   5.507   4.383
30237WAT      O90952   7.164   2.454   8.295
30237WAT     H190953   7.083   2.396   8.298
30237WAT     H290954   7.242   2.404   8.334
30238WAT      O90955   2.393   0.302   9.599
30238WAT     H190956   2.382   0.262   9.690
30238WAT     H290957   2.327   0.260   9.536
30239WAT      O90958   1.034   4.675   6.099
30239WAT     H190959   1.118   4.715   6.138
30239WAT     H290960   0.960   4.684   6.165
30240WAT      O90961   6.101   8.849   0.528
30240WAT     H190962   6.138   8.763   0.493
30240WAT     H290963   6.002   8.852   0.513
30241WAT      O90964   4.336   4.260   7.131
30241WAT     H190965   4.281   4.295   7.056
30241WAT     H290966   4.361   4.165   7.112
30242WAT      O90967   6.600   8.957   6.538
30242WAT     H190968   6.649   8.874   6.511
30242WAT     H290969   6.664   9.022   6.579
30243WAT      O90970   8.873   6.233   8.384
30243WAT     H190971   8.876   6.312   8.445
30243WAT     H290972   8.944   6.243   8.314
30244WAT      O90973   6.081   2.414   8.105
30244WAT     H190974   6.028   2.371   8.178
30244WAT     H290975   6.125   2.496   8.140
30245WAT      O90976   6.176   8.062   1.723
30245WAT     H190977   6.169   8.062   1.624
30245WAT     H290978   6.124   8.138   1.761
30246WAT      O90979   8.867   5.599   0.112
30246WAT     H190980   8.893   5.633   0.203
30246WAT     H290981   8.950   5.569   0.064
30247WAT      O90982   6.555   3.151   4.869
30247WAT     H190983   6.514   3.237   4.837
30247WAT     H290984   6.644   3.139   4.825
30248WAT      O90985   1.385   2.843   8.008
30248WAT     H190986   1.464   2.795   7.970
30248WAT     H290987   1.343   2.788   8.080
30249WAT      O90988   5.214   6.192   8.845
30249WAT     H190989   5.127   6.203   8.798
30249WAT     H290990   5.254   6.103   8.823
30250WAT      O90991   4.819   5.220   3.122
30250WAT     H190992   4.772   5.181   3.202
30250WAT     H290993   4.822   5.319   3.130
30251WAT      O90994   4.334   4.633   2.333
30251WAT     H190995   4.394   4.664   2.259
30251WAT     H290996   4.301   4.541   2.313
30252WAT      O90997   7.781   8.912   1.027
30252WAT     H190998   7.698   8.904   1.082
30252WAT     H290999   7.843   8.979   1.069
30253WAT      O91000   6.473   2.149   2.923
30253WAT     H191001   6.443   2.222   2.862
30253WAT     H291002   6.396   2.087   2.941
30254WAT      O91003   4.300   4.917   5.073
30254WAT     H191004   4.257   4.973   5.144
30254WAT     H291005   4.304   4.822   5.104
30255WAT      O91006   1.735   7.157   6.323
30255WAT     H191007   1.785   7.198   6.399
30255WAT     H291008   1.645   7.126   6.356
30256WAT      O91009   7.902   3.836   0.329
30256WAT     H191010   7.956   3.851   0.412
30256WAT     H291011   7.826   3.902   0.327
30257WAT      O91012   2.362   2.639   5.525
30257WAT     H191013   2.403   2.687   5.603
30257WAT     H291014   2.266   2.668   5.516
30258WAT      O91015   4.519   6.319   9.253
30258WAT     H191016   4.448   6.389   9.268
30258WAT     H291017   4.486   6.251   9.188
30259WAT      O91018   8.761   2.712   2.099
30259WAT     H191019   8.830   2.641   2.081
30259WAT     H291020   8.738   2.759   2.014
30260WAT      O91021   2.749   0.659   6.449
30260WAT     H191022   2.669   0.616   6.490
30260WAT     H291023   2.810   0.589   6.413
30261WAT      O91024   5.754   7.802   4.876
30261WAT     H191025   5.780   7.884   4.926
30261WAT     H291026   5.658   7.779   4.896
30262WAT      O91027   6.567   3.349   4.273
30262WAT     H191028   6.642   3.376   4.213
30262WAT     H291029   6.538   3.256   4.250
30263WAT      O91030   8.307   9.699   1.289
30263WAT     H191031   8.207   9.697   1.301
30263WAT     H291032   8.351   9.671   1.374
30264WAT      O91033   3.881   2.814   3.077
30264WAT     H191034   3.790   2.786   3.046
30264WAT     H291035   3.896   2.910   3.055
30265WAT      O91036   8.537   1.559   8.088
30265WAT     H191037   8.456   1.614   8.108
30265WAT     H291038   8.563   1.509   8.170
30266WAT      O91039   2.379   3.422   9.438
30266WAT     H191040   2.466   3.471   9.435
30266WAT     H291041   2.357   3.388   9.347
30267WAT      O91042   7.756   3.785   4.752
30267WAT     H191043   7.776   3.688   4.736
30267WAT     H291044   7.799   3.815   4.837
30268WAT      O91045   3.884   2.476   7.205
30268WAT     H191046   3.896   2.557   7.263
30268WAT     H291047   3.971   2.428   7.197
30269WAT      O91048   8.304   4.786   2.736
30269WAT     H191049   8.283   4.836   2.652
30269WAT     H291050   8.327   4.851   2.809
30270WAT      O91051   9.187   4.660   7.747
30270WAT     H191052   9.136   4.726   7.693
30270WAT     H291053   9.124   4.593   7.787
30271WAT      O91054   9.331   7.404   9.687
30271WAT     H191055   9.379   7.326   9.728
30271WAT     H291056   9.249   7.371   9.640
30272WAT      O91057   8.941   4.114   6.649
30272WAT     H191058   8.880   4.193   6.649
30272WAT     H291059   8.963   4.089   6.555
30273WAT      O91060   7.981   8.761   5.582
30273WAT     H191061   8.018   8.702   5.654
30273WAT     H291062   8.049   8.772   5.510
30274WAT      O91063   1.690   2.714   0.751
30274WAT     H191064   1.611   2.710   0.690
30274WAT     H291065   1.774   2.719   0.698
30275WAT      O91066   1.653   3.033   3.654
30275WAT     H191067   1.593   2.990   3.587
30275WAT     H291068   1.705   3.107   3.611
30276WAT      O91069   7.973   5.660   1.454
30276WAT     H191070   7.906   5.595   1.490
30276WAT     H291071   7.982   5.736   1.519
30277WAT      O91072   4.801   3.041   1.388
30277WAT     H191073   4.764   3.134   1.393
30277WAT     H291074   4.853   3.031   1.303
30278WAT      O91075   4.630   6.498   7.157
30278WAT     H191076   4.652   6.539   7.246
30278WAT     H291077   4.713   6.462   7.115
30279WAT      O91078   7.363   7.174   6.513
30279WAT     H191079   7.427   7.110   6.556
30279WAT     H291080   7.329   7.238   6.582
30280WAT      O91081   6.473   0.764   0.806
30280WAT     H191082   6.399   0.700   0.790
30280WAT     H291083   6.531   0.732   0.881
30281WAT      O91084   8.191   4.035   5.603
30281WAT     H191085   8.112   4.094   5.583
30281WAT     H291086   8.231   4.003   5.517
30282WAT      O91087   5.162   6.993   9.643
30282WAT     H191088   5.206   7.012   9.731
30282WAT     H291089   5.122   7.077   9.607
30283WAT      O91090   1.716   9.459   4.079
30283WAT     H191091   1.748   9.550   4.054
30283WAT     H291092   1.740   9.394   4.007
30284WAT      O91093   8.873   4.109   3.786
30284WAT     H191094   8.923   4.066   3.711
30284WAT     H291095   8.777   4.118   3.760
30285WAT      O91096   1.984   2.172   4.397
30285WAT     H191097   2.075   2.208   4.376
30285WAT     H291098   1.992   2.082   4.439
30286WAT      O91099   6.543   7.975   6.739
30286WAT     H191100   6.613   7.920   6.694
30286WAT     H291101   6.519   8.053   6.681
30287WAT      O91102   3.495   5.502   4.852
30287WAT     H191103   3.492   5.430   4.783
30287WAT     H291104   3.420   5.567   4.837
30288WAT      O91105   8.483   8.574   0.013
30288WAT     H191106   8.400   8.545  -0.035
30288WAT     H291107   8.548   8.610  -0.054
30289WAT      O91108   1.644   8.393   7.928
30289WAT     H191109   1.744   8.402   7.927
30289WAT     H291110   1.611   8.398   8.022
30290WAT      O91111   6.079   1.242   8.460
30290WAT     H191112   6.045   1.310   8.396
30290WAT     H291113   6.051   1.265   8.553
30291WAT      O91114   9.349   8.090   7.544
30291WAT     H191115   9.256   8.075   7.578
30291WAT     H291116   9.393   8.002   7.527
30292WAT      O91117   2.577   5.998   9.229
30292WAT     H191118   2.511   5.935   9.270
30292WAT     H291119   2.549   6.092   9.247
30293WAT      O91120   3.447   7.356   5.809
30293WAT     H191121   3.432   7.427   5.878
30293WAT     H291122   3.536   7.370   5.765
30294WAT      O91123   8.828   6.196   2.364
30294WAT     H191124   8.739   6.240   2.353
30294WAT     H291125   8.824   6.103   2.329
30295WAT      O91126   4.868   2.349   5.516
30295WAT     H191127   4.851   2.447   5.513
30295WAT     H291128   4.963   2.331   5.490
30296WAT      O91129   5.648   5.439   2.254
30296WAT     H191130   5.593   5.454   2.337
30296WAT     H291131   5.622   5.507   2.185
30297WAT      O91132   4.827   7.448   3.851
30297WAT     H191133   4.863   7.534   3.817
30297WAT     H291134   4.729   7.458   3.871
30298WAT      O91135   0.539   0.368   6.079
30298WAT     H191136   0.615   0.368   6.144
30298WAT     H291137   0.503   0.275   6.071
30299WAT      O91138   3.614   3.148   0.608
30299WAT     H191139   3.693   3.125   0.551
30299WAT     H291140   3.537   3.089   0.584
30300WAT      O91141   6.029   3.329   9.298
30300WAT     H191142   5.963   3.276   9.245
30300WAT     H291143   6.118   3.325   9.253
30301WAT      O91144   2.168   7.323   9.611
30301WAT     H191145   2.126   7.337   9.700
30301WAT     H291146   2.152   7.229   9.580
30302WAT      O91147   3.020   6.745   9.511
30302WAT     H191148   2.941   6.735   9.570
30302WAT     H291149   2.991   6.774   9.420
30303WAT      O91150   7.884   6.636   7.800
30303WAT     H191151   7.922   6.549   7.831
30303WAT     H291152   7.941   6.711   7.835
30304WAT      O91153   8.722   8.615   1.598
30304WAT     H191154   8.757   8.524   1.576
30304WAT     H291155   8.698   8.619   1.695
30305WAT      O91156   4.610   5.631   9.695
30305WAT     H191157   4.542   5.611   9.767
30305WAT     H291158   4.694   5.663   9.737
30306WAT      O91159   9.351   2.648   9.555
30306WAT     H191160   9.276   2.714   9.556
30306WAT     H291161   9.398   2.651   9.467
30307WAT      O91162   0.314   8.414   2.199
30307WAT     H191163   0.363   8.475   2.261
30307WAT     H291164   0.373   8.390   2.122
30308WAT      O91165   5.834   3.055   0.815
30308WAT     H191166   5.804   3.150   0.807
30308WAT     H291167   5.808   3.004   0.733
30309WAT      O91168   1.196   7.335   9.637
30309WAT     H191169   1.208   7.424   9.680
30309WAT     H291170   1.251   7.267   9.685
30310WAT      O91171   9.017   9.085   6.419
30310WAT     H191172   9.050   8.995   6.448
30310WAT     H291173   9.091   9.135   6.374
30311WAT      O91174   9.342   1.418   1.128
30311WAT     H191175   9.302   1.500   1.088
30311WAT     H291176   9.270   1.358   1.162
30312WAT      O91177   4.543   0.297   4.660
30312WAT     H191178   4.551   0.352   4.743
30312WAT     H291179   4.633   0.282   4.621
30313WAT      O91180   3.760   1.221   2.003
30313WAT     H191181   3.671   1.225   2.048
30313WAT     H291182   3.830   1.200   2.071
30314WAT      O91183   0.679   2.369   9.067
30314WAT     H191184   0.656   2.363   9.164
30314WAT     H291185   0.776   2.392   9.058
30315WAT      O91186   5.878   6.501   5.331
30315WAT     H191187   5.851   6.508   5.427
30315WAT     H291188   5.976   6.514   5.322
30316WAT      O91189   1.631   0.439   4.933
30316WAT     H191190   1.653   0.366   4.868
30316WAT     H291191   1.556   0.408   4.992
30317WAT      O91192   5.669   4.121   2.956
30317WAT     H191193   5.687   4.219   2.960
30317WAT     H291194   5.636   4.097   2.865
30318WAT      O91195   2.001   1.723   5.793
30318WAT     H191196   2.085   1.682   5.829
30318WAT     H291197   1.923   1.664   5.813
30319WAT      O91198   1.934   9.164   6.047
30319WAT     H191199   1.892   9.239   6.097
30319WAT     H291200   2.034   9.168   6.058
30320WAT      O91201   7.036   8.500   1.792
30320WAT     H191202   6.941   8.531   1.800
30320WAT     H291203   7.065   8.460   1.880
30321WAT      O91204   4.790   1.637   1.442
30321WAT     H191205   4.726   1.588   1.501
30321WAT     H291206   4.871   1.662   1.494
30322WAT      O91207   3.201   5.294   7.208
30322WAT     H191208   3.187   5.235   7.287
30322WAT     H291209   3.271   5.255   7.149
30323WAT      O91210   4.231   2.089   7.048
30323WAT     H191211   4.149   2.100   6.992
30323WAT     H291212   4.220   2.010   7.108
30324WAT      O91213   9.739   6.577   4.052
30324WAT     H191214   9.760   6.667   4.016
30324WAT     H291215   9.704   6.585   4.145
30325WAT      O91216   2.602   6.025   3.998
30325WAT     H191217   2.628   6.118   3.972
30325WAT     H291218   2.671   5.986   4.059
30326WAT      O91219   9.531   1.600   3.774
30326WAT     H191220   9.623   1.564   3.760
30326WAT     H291221   9.487   1.613   3.685
30327WAT      O91222   3.188   9.689   6.945
30327WAT     H191223   3.107   9.652   6.992
30327WAT     H291224   3.220   9.622   6.878
30328WAT      O91225   6.022   8.704   8.805
30328WAT     H191226   5.990   8.792   8.840
30328WAT     H291227   6.122   8.703   8.803
30329WAT      O91228   5.772   7.008   2.340
30329WAT     H191229   5.826   6.988   2.258
30329WAT     H291230   5.714   7.088   2.323
30330WAT      O91231   8.411   6.415   7.901
30330WAT     H191232   8.477   6.460   7.841
30330WAT     H291233   8.428   6.442   7.996
30331WAT      O91234   6.115   5.437   5.668
30331WAT     H191235   6.111   5.477   5.759
30331WAT     H291236   6.092   5.340   5.673
30332WAT      O91237   8.195   2.380   1.692
30332WAT     H191238   8.205   2.286   1.662
30332WAT     H291239   8.205   2.385   1.791
30333WAT      O91240   9.782   4.194   2.549
30333WAT     H191241   9.833   4.128   2.603
30333WAT     H291242   9.844   4.262   2.510
30334WAT      O91243   5.367   9.429   3.210
30334WAT     H191244   5.407   9.516   3.180
30334WAT     H291245   5.311   9.391   3.136
30335WAT      O91246   0.794   6.357   2.141
30335WAT     H191247   0.709   6.405   2.166
30335WAT     H291248   0.798   6.348   2.042
30336WAT      O91249   6.985   2.212   1.450
30336WAT     H191250   7.003   2.165   1.536
30336WAT     H291251   6.972   2.310   1.467
30337WAT      O91252   3.666   4.943   8.580
30337WAT     H191253   3.600   4.870   8.597
30337WAT     H291254   3.678   4.997   8.664
30338WAT      O91255   9.545   9.601   5.897
30338WAT     H191256   9.628   9.546   5.903
30338WAT     H291257   9.472   9.559   5.951
30339WAT      O91258   4.755   0.195   7.833
30339WAT     H191259   4.757   0.099   7.859
30339WAT     H291260   4.668   0.235   7.861
30340WAT      O91261   3.030   0.661   5.202
30340WAT     H191262   2.939   0.691   5.231
30340WAT     H291263   3.077   0.736   5.155
30341WAT      O91264   0.399   6.456   7.174
30341WAT     H191265   0.374   6.370   7.218
30341WAT     H291266   0.431   6.438   7.081
30342WAT      O91267   6.376   1.707   9.473
30342WAT     H191268   6.318   1.788   9.465
30342WAT     H291269   6.471   1.735   9.483
30343WAT      O91270   4.963   3.242   0.101
30343WAT     H191271   5.049   3.191   0.105
30343WAT     H291272   4.949   3.276   0.008
30344WAT      O91273   1.542   4.768   6.315
30344WAT     H191274   1.627   4.763   6.263
30344WAT     H291275   1.522   4.863   6.338
30345WAT      O91276   9.563   9.611   8.495
30345WAT     H191277   9.637   9.640   8.435
30345WAT     H291278   9.546   9.681   8.564
30346WAT      O91279   7.005   9.743   0.525
30346WAT     H191280   6.918   9.700   0.500
30346WAT     H291281   7.075   9.672   0.538
30347WAT      O91282   0.038   4.622   4.952
30347WAT     H191283   0.046   4.710   4.906
30347WAT     H291284   0.121   4.568   4.935
30348WAT      O91285   6.577   6.098   8.158
30348WAT     H191286   6.501   6.059   8.108
30348WAT     H291287   6.543   6.152   8.235
30349WAT      O91288   9.781   5.222   3.792
30349WAT     H191289   9.799   5.304   3.846
30349WAT     H291290   9.765   5.145   3.853
30350WAT      O91291   2.023   3.948   0.447
30350WAT     H191292   2.098   3.920   0.507
30350WAT     H291293   1.936   3.916   0.487
30351WAT      O91294   7.343   6.662   9.620
30351WAT     H191295   7.341   6.721   9.701
30351WAT     H291296   7.341   6.719   9.538
30352WAT      O91297   2.381   7.583   6.802
30352WAT     H191298   2.434   7.589   6.718
30352WAT     H291299   2.441   7.559   6.878
30353WAT      O91300   5.997   1.779   6.926
30353WAT     H191301   5.919   1.755   6.868
30353WAT     H291302   5.974   1.762   7.022
30354WAT      O91303   5.868   7.364   3.742
30354WAT     H191304   5.934   7.438   3.725
30354WAT     H291305   5.792   7.399   3.796
30355WAT      O91306   7.077   7.402   3.692
30355WAT     H191307   7.159   7.438   3.649
30355WAT     H291308   7.056   7.311   3.654
30356WAT      O91309   3.813   1.437   5.786
30356WAT     H191310   3.862   1.423   5.700
30356WAT     H291311   3.848   1.519   5.832
30357WAT      O91312   6.385   5.450   5.694
30357WAT     H191313   6.410   5.379   5.759
30357WAT     H291314   6.287   5.467   5.699
30358WAT      O91315   4.468   3.727   2.605
30358WAT     H191316   4.403   3.651   2.594
30358WAT     H291317   4.545   3.714   2.542
30359WAT      O91318   1.910   5.357   9.463
30359WAT     H191319   1.996   5.388   9.502
30359WAT     H291320   1.889   5.265   9.496
30360WAT      O91321   7.294   8.113   5.207
30360WAT     H191322   7.276   8.025   5.252
30360WAT     H291323   7.391   8.134   5.214
30361WAT      O91324   3.945   1.054   5.950
30361WAT     H191325   3.953   1.077   5.853
30361WAT     H291326   3.997   1.120   6.004
30362WAT      O91327   0.722   7.512   6.383
30362WAT     H191328   0.700   7.441   6.450
30362WAT     H291329   0.691   7.601   6.415
30363WAT      O91330   0.217   4.659   2.166
30363WAT     H191331   0.160   4.715   2.226
30363WAT     H291332   0.216   4.697   2.074
30364WAT      O91333   2.310   0.542   8.824
30364WAT     H191334   2.371   0.538   8.746
30364WAT     H291335   2.297   0.638   8.851
30365WAT      O91336   8.793   6.673   8.171
30365WAT     H191337   8.837   6.593   8.131
30365WAT     H291338   8.715   6.699   8.115
30366WAT      O91339   1.405   9.829   5.960
30366WAT     H191340   1.352   9.747   5.938
30366WAT     H291341   1.411   9.839   6.060
30367WAT      O91342   3.812   8.099   5.089
30367WAT     H191343   3.782   8.005   5.075
30367WAT     H291344   3.782   8.131   5.179
30368WAT      O91345   6.307   5.285   6.996
30368WAT     H191346   6.280   5.230   6.917
30368WAT     H291347   6.331   5.224   7.072
30369WAT      O91348   4.772   7.431   4.139
30369WAT     H191349   4.849   7.486   4.108
30369WAT     H291350   4.694   7.445   4.078
30370WAT      O91351   2.950   3.351   7.200
30370WAT     H191352   2.930   3.351   7.102
30370WAT     H291353   2.871   3.385   7.250
30371WAT      O91354   8.385   2.882   6.010
30371WAT     H191355   8.324   2.804   6.031
30371WAT     H291356   8.366   2.957   6.074
30372WAT      O91357   7.548   2.544   9.031
30372WAT     H191358   7.619   2.564   9.097
30372WAT     H291359   7.573   2.463   8.978
30373WAT      O91360   6.237   8.396   6.202
30373WAT     H191361   6.242   8.477   6.143
30373WAT     H291362   6.154   8.344   6.180
30374WAT      O91363   4.074   2.938   5.443
30374WAT     H191364   4.151   2.941   5.507
30374WAT     H291365   4.051   3.031   5.415
30375WAT      O91366   8.129   7.846   0.523
30375WAT     H191367   8.141   7.749   0.502
30375WAT     H291368   8.213   7.896   0.502
30376WAT      O91369   8.297   4.052   7.059
30376WAT     H191370   8.316   4.150   7.066
30376WAT     H291371   8.200   4.038   7.042
30377WAT      O91372   2.847   8.254   0.678
30377WAT     H191373   2.912   8.240   0.603
30377WAT     H291374   2.782   8.326   0.653
30378WAT      O91375   6.261   3.894   5.708
30378WAT     H191376   6.278   3.949   5.790
30378WAT     H291377   6.252   3.955   5.629
30379WAT      O91378   1.125   5.678   0.775
30379WAT     H191379   1.049   5.641   0.721
30379WAT     H291380   1.129   5.631   0.863
30380WAT      O91381   9.790   1.952   5.718
30380WAT     H191382   9.747   1.880   5.664
30380WAT     H291383   9.889   1.937   5.721
30381WAT      O91384   5.934   5.234   4.879
30381WAT     H191385   6.013   5.294   4.871
30381WAT     H291386   5.852   5.288   4.898
30382WAT      O91387   2.358   6.585   2.613
30382WAT     H191388   2.289   6.597   2.541
30382WAT     H291389   2.431   6.525   2.580
30383WAT      O91390   9.305   0.394   0.629
30383WAT     H191391   9.386   0.429   0.582
30383WAT     H291392   9.285   0.302   0.597
30384WAT      O91393   9.450   6.829   7.251
30384WAT     H191394   9.545   6.859   7.242
30384WAT     H291395   9.419   6.790   7.165
30385WAT      O91396   8.426   6.457   4.323
30385WAT     H191397   8.493   6.512   4.374
30385WAT     H291398   8.365   6.411   4.387
30386WAT      O91399   1.682   4.835   0.032
30386WAT     H191400   1.755   4.779  -0.007
30386WAT     H291401   1.709   4.931   0.029
30387WAT      O91402   9.554   2.065   6.934
30387WAT     H191403   9.529   2.160   6.916
30387WAT     H291404   9.600   2.027   6.853
30388WAT      O91405   1.978   4.608   5.861
30388WAT     H191406   1.943   4.642   5.773
30388WAT     H291407   2.058   4.662   5.888
30389WAT      O91408   1.683   5.642   7.493
30389WAT     H191409   1.602   5.588   7.468
30389WAT     H291410   1.737   5.592   7.560
30390WAT      O91411   6.223   9.160   1.198
30390WAT     H191412   6.230   9.071   1.243
30390WAT     H291413   6.153   9.157   1.128
30391WAT      O91414   0.600   0.118   8.720
30391WAT     H191415   0.699   0.106   8.710
30391WAT     H291416   0.579   0.139   8.815
30392WAT      O91417   9.734   5.147   6.208
30392WAT     H191418   9.752   5.076   6.140
30392WAT     H291419   9.788   5.129   6.290
30393WAT      O91420   5.808   2.476   1.714
30393WAT     H191421   5.836   2.546   1.780
30393WAT     H291422   5.860   2.393   1.729
30394WAT      O91423   8.363   4.472   1.343
30394WAT     H191424   8.333   4.467   1.248
30394WAT     H291425   8.375   4.380   1.380
30395WAT      O91426   3.458   6.495   6.733
30395WAT     H191427   3.498   6.446   6.810
30395WAT     H291428   3.429   6.586   6.763
30396WAT      O91429   5.141   1.273   0.375
30396WAT     H191430   5.215   1.315   0.321
30396WAT     H291431   5.091   1.209   0.318
30397WAT      O91432   3.711   1.805   4.745
30397WAT     H191433   3.624   1.854   4.752
30397WAT     H291434   3.778   1.848   4.805
30398WAT      O91435   6.346   0.953   2.647
30398WAT     H191436   6.320   1.047   2.671
30398WAT     H291437   6.409   0.918   2.716
30399WAT      O91438   6.823   4.000   8.513
30399WAT     H191439   6.904   4.010   8.571
30399WAT     H291440   6.849   3.951   8.429
30400WAT      O91441   6.577   0.446   5.327
30400WAT     H191442   6.659   0.446   5.384
30400WAT     H291443   6.594   0.501   5.245
30401WAT      O91444   5.042   8.574   7.731
30401WAT     H191445   5.083   8.492   7.770
30401WAT     H291446   5.113   8.632   7.692
30402WAT      O91447   1.119   5.596   8.839
30402WAT     H191448   1.211   5.555   8.845
30402WAT     H291449   1.084   5.585   8.746
30403WAT      O91450   6.285   1.774   6.943
30403WAT     H191451   6.318   1.865   6.967
30403WAT     H291452   6.191   1.781   6.909
30404WAT      O91453   2.157   8.964   5.137
30404WAT     H191454   2.057   8.955   5.130
30404WAT     H291455   2.200   8.898   5.076
30405WAT      O91456   5.828   6.291   7.648
30405WAT     H191457   5.771   6.361   7.605
30405WAT     H291458   5.924   6.307   7.624
30406WAT      O91459   0.843   9.723   9.187
30406WAT     H191460   0.773   9.738   9.257
30406WAT     H291461   0.799   9.691   9.103
30407WAT      O91462   6.819   8.752   5.849
30407WAT     H191463   6.892   8.777   5.786
30407WAT     H291464   6.757   8.829   5.860
30408WAT      O91465   9.163   3.293   6.213
30408WAT     H191466   9.077   3.282   6.163
30408WAT     H291467   9.240   3.281   6.151
30409WAT      O91468   1.348   6.651   0.278
30409WAT     H191469   1.429   6.702   0.248
30409WAT     H291470   1.370   6.602   0.363
30410WAT      O91471   0.756   6.129   0.920
30410WAT     H191472   0.835   6.188   0.904
30410WAT     H291473   0.680   6.183   0.957
30411WAT      O91474   3.315   0.737   3.916
30411WAT     H191475   3.247   0.665   3.925
30411WAT     H291476   3.284   0.819   3.964
30412WAT      O91477   9.121   1.699   9.584
30412WAT     H191478   9.144   1.655   9.497
30412WAT     H291479   9.029   1.738   9.578
30413WAT      O91480   4.421   6.885   3.649
30413WAT     H191481   4.457   6.797   3.680
30413WAT     H291482   4.461   6.959   3.703
30414WAT      O91483   6.500   6.665   5.464
30414WAT     H191484   6.537   6.623   5.547
30414WAT     H291485   6.400   6.671   5.471
30415WAT      O91486   2.943   8.883   7.969
30415WAT     H191487   3.017   8.854   7.909
30415WAT     H291488   2.873   8.931   7.915
30416WAT      O91489   2.961   9.758   4.581
30416WAT     H191490   2.873   9.717   4.558
30416WAT     H291491   3.001   9.798   4.498
30417WAT      O91492   2.843   4.996   0.320
30417WAT     H191493   2.898   5.055   0.379
30417WAT     H291494   2.789   5.053   0.257
30418WAT      O91495   5.725   4.150   0.783
30418WAT     H191496   5.670   4.230   0.759
30418WAT     H291497   5.727   4.087   0.705
30419WAT      O91498   7.910   5.230   7.251
30419WAT     H191499   7.932   5.138   7.217
30419WAT     H291500   7.990   5.268   7.297
30420WAT      O91501   4.541   3.052   1.471
30420WAT     H191502   4.560   3.027   1.566
30420WAT     H291503   4.624   3.041   1.417
30421WAT      O91504   0.401   3.160   0.146
30421WAT     H191505   0.406   3.095   0.071
30421WAT     H291506   0.339   3.125   0.217
30422WAT      O91507   6.156   9.595   6.436
30422WAT     H191508   6.159   9.624   6.532
30422WAT     H291509   6.061   9.584   6.408
30423WAT      O91510   0.580   8.060   8.424
30423WAT     H191511   0.485   8.043   8.397
30423WAT     H291512   0.623   7.973   8.450
30424WAT      O91513   4.730   0.752   5.419
30424WAT     H191514   4.734   0.838   5.470
30424WAT     H291515   4.750   0.676   5.480
30425WAT      O91516   7.314   8.128   7.971
30425WAT     H191517   7.361   8.123   8.059
30425WAT     H291518   7.229   8.181   7.981
30426WAT      O91519   0.274   2.563   6.989
30426WAT     H191520   0.203   2.500   6.958
30426WAT     H291521   0.339   2.514   7.047
30427WAT      O91522   5.848   7.402   9.188
30427WAT     H191523   5.758   7.432   9.220
30427WAT     H291524   5.914   7.477   9.199
30428WAT      O91525   8.526   7.691   7.649
30428WAT     H191526   8.562   7.627   7.582
30428WAT     H291527   8.451   7.743   7.609
30429WAT      O91528   0.017   9.250   5.959
30429WAT     H191529   0.046   9.201   5.877
30429WAT     H291530   0.085   9.236   6.032
30430WAT      O91531   4.651   5.357   5.768
30430WAT     H191532   4.683   5.420   5.697
30430WAT     H291533   4.562   5.320   5.741
30431WAT      O91534   3.416   2.619   0.323
30431WAT     H191535   3.431   2.550   0.394
30431WAT     H291536   3.319   2.640   0.317
30432WAT      O91537   0.868   0.165   8.651
30432WAT     H191538   0.831   0.257   8.668
30432WAT     H291539   0.943   0.147   8.714
30433WAT      O91540   3.150   6.436   6.415
30433WAT     H191541   3.227   6.403   6.471
30433WAT     H291542   3.153   6.535   6.410
30434WAT      O91543   8.687   7.989   7.540
30434WAT     H191544   8.713   7.925   7.612
30434WAT     H291545   8.694   8.082   7.574
30435WAT      O91546   9.879   5.593   3.205
30435WAT     H191547   9.971   5.568   3.173
30435WAT     H291548   9.812   5.574   3.133
30436WAT      O91549   7.623   8.347   7.215
30436WAT     H191550   7.722   8.336   7.206
30436WAT     H291551   7.594   8.316   7.306
30437WAT      O91552   6.259   5.123   6.811
30437WAT     H191553   6.286   5.027   6.803
30437WAT     H291554   6.198   5.146   6.734
30438WAT      O91555   1.621   3.597   0.057
30438WAT     H191556   1.592   3.680   0.105
30438WAT     H291557   1.631   3.522   0.122
30439WAT      O91558   2.303   0.611   5.213
30439WAT     H191559   2.205   0.611   5.194
30439WAT     H291560   2.344   0.525   5.182
30440WAT      O91561   6.779   5.523   8.279
30440WAT     H191562   6.730   5.592   8.226
30440WAT     H291563   6.875   5.547   8.286
30441WAT      O91564   0.934   2.579   3.692
30441WAT     H191565   0.885   2.581   3.605
30441WAT     H291566   1.016   2.636   3.686
30442WAT      O91567   3.153   2.981   9.442
30442WAT     H191568   3.222   2.997   9.372
30442WAT     H291569   3.117   2.888   9.433
30443WAT      O91570   0.576   8.746   4.622
30443WAT     H191571   0.525   8.675   4.671
30443WAT     H291572   0.672   8.718   4.614
30444WAT      O91573   4.838   5.455   5.021
30444WAT     H191574   4.927   5.500   5.010
30444WAT     H291575   4.766   5.523   5.030
30445WAT      O91576   6.934   2.131   9.424
30445WAT     H191577   6.893   2.222   9.420
30445WAT     H291578   6.955   2.108   9.519
30446WAT      O91579   2.327   3.342   9.682
30446WAT     H191580   2.331   3.377   9.588
30446WAT     H291581   2.399   3.275   9.696
30447WAT      O91582   2.154   1.536   7.178
30447WAT     H191583   2.098   1.456   7.159
30447WAT     H291584   2.235   1.535   7.119
30448WAT      O91585   0.238   9.604   1.303
30448WAT     H191586   0.294   9.649   1.234
30448WAT     H291587   0.218   9.668   1.377
30449WAT      O91588   7.252   1.326   4.470
30449WAT     H191589   7.161   1.367   4.477
30449WAT     H291590   7.321   1.398   4.460
30450WAT      O91591   3.221   8.402   9.429
30450WAT     H191592   3.177   8.394   9.518
30450WAT     H291593   3.320   8.396   9.439
30451WAT      O91594   0.167   5.326   6.615
30451WAT     H191595   0.248   5.360   6.664
30451WAT     H291596   0.121   5.403   6.570
30452WAT      O91597   3.519   6.551   5.011
30452WAT     H191598   3.529   6.492   5.091
30452WAT     H291599   3.583   6.628   5.017
30453WAT      O91600   6.236   4.782   4.446
30453WAT     H191601   6.184   4.842   4.507
30453WAT     H291602   6.295   4.837   4.387
30454WAT      O91603   6.122   8.663   4.631
30454WAT     H191604   6.034   8.623   4.658
30454WAT     H291605   6.145   8.737   4.694
30455WAT      O91606   8.981   8.960   6.181
30455WAT     H191607   8.954   9.031   6.246
30455WAT     H291608   9.077   8.936   6.195
30456WAT      O91609   2.239   9.397   0.295
30456WAT     H191610   2.230   9.410   0.196
30456WAT     H291611   2.279   9.307   0.313
30457WAT      O91612   8.874   6.580   3.720
30457WAT     H191613   8.831   6.638   3.789
30457WAT     H291614   8.860   6.484   3.745
30458WAT      O91615   7.550   1.323   8.984
30458WAT     H191616   7.605   1.353   8.907
30458WAT     H291617   7.526   1.402   9.041
30459WAT      O91618   7.235   0.528   0.219
30459WAT     H191619   7.310   0.474   0.179
30459WAT     H291620   7.184   0.471   0.283
30460WAT      O91621   5.780   4.300   0.318
30460WAT     H191622   5.861   4.241   0.310
30460WAT     H291623   5.805   4.393   0.293
30461WAT      O91624   9.454   1.573   7.102
30461WAT     H191625   9.492   1.498   7.157
30461WAT     H291626   9.527   1.638   7.080
30462WAT      O91627   2.269   6.281   9.192
30462WAT     H191628   2.348   6.281   9.254
30462WAT     H291629   2.286   6.345   9.117
30463WAT      O91630   1.680   6.659   4.328
30463WAT     H191631   1.765   6.606   4.333
30463WAT     H291632   1.698   6.753   4.358
30464WAT      O91633   6.286   0.009   6.636
30464WAT     H191634   6.303   0.048   6.726
30464WAT     H291635   6.352   0.046   6.571
30465WAT      O91636   3.373   2.251   9.506
30465WAT     H191637   3.391   2.347   9.527
30465WAT     H291638   3.360   2.241   9.407
30466WAT      O91639   2.886   6.831   3.208
30466WAT     H191640   2.833   6.803   3.289
30466WAT     H291641   2.892   6.754   3.145
30467WAT      O91642   0.879   5.365   9.511
30467WAT     H191643   0.820   5.303   9.563
30467WAT     H291644   0.838   5.383   9.422
30468WAT      O91645   5.877   1.196   9.797
30468WAT     H191646   5.854   1.269   9.861
30468WAT     H291647   5.953   1.225   9.739
30469WAT      O91648   2.545   8.560   1.166
30469WAT     H191649   2.506   8.555   1.258
30469WAT     H291650   2.628   8.505   1.162
30470WAT      O91651   7.523   5.222   0.149
30470WAT     H191652   7.560   5.133   0.124
30470WAT     H291653   7.599   5.285   0.167
30471WAT      O91654   7.488   5.180   2.459
30471WAT     H191655   7.541   5.234   2.524
30471WAT     H291656   7.545   5.158   2.380
30472WAT      O91657   9.268   8.640   4.446
30472WAT     H191658   9.211   8.692   4.509
30472WAT     H291659   9.238   8.657   4.352
30473WAT      O91660   4.972   1.220   4.202
30473WAT     H191661   4.892   1.270   4.170
30473WAT     H291662   4.943   1.138   4.252
30474WAT      O91663   6.655   7.734   2.073
30474WAT     H191664   6.608   7.792   2.006
30474WAT     H291665   6.630   7.763   2.165
30475WAT      O91666   9.076   0.863   2.249
30475WAT     H191667   9.013   0.876   2.173
30475WAT     H291668   9.100   0.951   2.289
30476WAT      O91669   3.661   6.579   5.253
30476WAT     H191670   3.676   6.662   5.307
30476WAT     H291671   3.737   6.568   5.189
30477WAT      O91672   8.879   9.219   7.134
30477WAT     H191673   8.831   9.287   7.189
30477WAT     H291674   8.898   9.139   7.190
30478WAT      O91675   6.064   8.668   4.356
30478WAT     H191676   5.970   8.633   4.349
30478WAT     H291677   6.086   8.682   4.453
30479WAT      O91678   0.012   2.244   3.187
30479WAT     H191679   0.078   2.173   3.211
30479WAT     H291680  -0.057   2.207   3.125
30480WAT      O91681   3.773   2.268   9.170
30480WAT     H191682   3.716   2.192   9.201
30480WAT     H291683   3.792   2.329   9.247
30481WAT      O91684   2.789   8.004   6.176
30481WAT     H191685   2.869   7.987   6.234
30481WAT     H291686   2.817   8.050   6.092
30482WAT      O91687   0.320   7.865   6.740
30482WAT     H191688   0.271   7.847   6.825
30482WAT     H291689   0.273   7.820   6.664
30483WAT      O91690   9.029   7.405   5.856
30483WAT     H191691   9.057   7.361   5.942
30483WAT     H291692   8.930   7.394   5.844
30484WAT      O91693   4.043   1.466   1.265
30484WAT     H191694   4.069   1.557   1.296
30484WAT     H291695   4.121   1.422   1.221
30485WAT      O91696   8.984   3.248   9.861
30485WAT     H191697   9.062   3.207   9.909
30485WAT     H291698   8.965   3.195   9.778
30486WAT      O91699   7.792   5.735   6.044
30486WAT     H191700   7.692   5.735   6.038
30486WAT     H291701   7.830   5.788   5.969
30487WAT      O91702   3.943   4.297   2.282
30487WAT     H191703   4.037   4.328   2.292
30487WAT     H291704   3.938   4.199   2.302
30488WAT      O91705   2.142   6.012   8.043
30488WAT     H191706   2.113   6.041   8.134
30488WAT     H291707   2.156   6.093   7.986
30489WAT      O91708   0.877   2.115   8.532
30489WAT     H191709   0.944   2.129   8.604
30489WAT     H291710   0.884   2.022   8.496
30490WAT      O91711   3.208   0.736   6.925
30490WAT     H191712   3.268   0.806   6.964
30490WAT     H291713   3.231   0.723   6.828
30491WAT      O91714   5.606   7.135   9.027
30491WAT     H191715   5.534   7.133   9.096
30491WAT     H291716   5.683   7.078   9.058
30492WAT      O91717   1.730   8.548   1.382
30492WAT     H191718   1.684   8.631   1.413
30492WAT     H291719   1.828   8.558   1.396
30493WAT      O91720   9.297   1.287   0.604
30493WAT     H191721   9.248   1.362   0.559
30493WAT     H291722   9.349   1.236   0.535
30494WAT      O91723   6.404   0.973   3.216
30494WAT     H191724   6.492   1.013   3.187
30494WAT     H291725   6.336   0.987   3.144
30495WAT      O91726   8.602   9.391   1.676
30495WAT     H191727   8.584   9.297   1.707
30495WAT     H291728   8.663   9.389   1.597
30496WAT      O91729   5.229   0.147   0.687
30496WAT     H191730   5.284   0.229   0.703
30496WAT     H291731   5.249   0.078   0.756
30497WAT      O91732   9.189   7.098   2.722
30497WAT     H191733   9.105   7.147   2.700
30497WAT     H291734   9.258   7.164   2.752
30498WAT      O91735   4.043   8.427   6.534
30498WAT     H191736   3.944   8.425   6.551
30498WAT     H291737   4.077   8.520   6.547
30499WAT      O91738   7.102   8.821   7.660
30499WAT     H191739   7.169   8.781   7.596
30499WAT     H291740   7.142   8.823   7.751
30500WAT      O91741   7.073   7.618   9.046
30500WAT     H191742   7.058   7.710   9.010
30500WAT     H291743   7.154   7.618   9.105
30501WAT      O91744   0.233   0.171   4.353
30501WAT     H191745   0.219   0.179   4.452
30501WAT     H291746   0.312   0.113   4.334
30502WAT      O91747   4.169   0.602   1.224
30502WAT     H191748   4.231   0.631   1.296
30502WAT     H291749   4.109   0.678   1.198
30503WAT      O91750   6.219   7.253   9.417
30503WAT     H191751   6.138   7.243   9.359
30503WAT     H291752   6.192   7.280   9.509
30504WAT      O91753   8.256   4.331   6.696
30504WAT     H191754   8.182   4.360   6.758
30504WAT     H291755   8.286   4.409   6.641
30505WAT      O91756   3.977   2.396   5.455
30505WAT     H191757   3.877   2.398   5.462
30505WAT     H291758   4.005   2.321   5.394
30506WAT      O91759   7.889   0.430   8.012
30506WAT     H191760   7.794   0.426   7.983
30506WAT     H291761   7.947   0.382   7.946
30507WAT      O91762   2.742   7.100   1.841
30507WAT     H191763   2.824   7.125   1.789
30507WAT     H291764   2.738   7.155   1.925
30508WAT      O91765   9.330   4.264   3.061
30508WAT     H191766   9.406   4.312   3.105
30508WAT     H291767   9.279   4.213   3.131
30509WAT      O91768   7.958   0.201   0.128
30509WAT     H191769   8.007   0.115   0.135
30509WAT     H291770   7.902   0.215   0.209
30510WAT      O91771   4.615   9.349   8.234
30510WAT     H191772   4.691   9.335   8.171
30510WAT     H291773   4.604   9.447   8.252
30511WAT      O91774   8.683   2.285   1.358
30511WAT     H191775   8.726   2.207   1.403
30511WAT     H291776   8.705   2.369   1.407
30512WAT      O91777   8.007   4.624   5.351
30512WAT     H191778   8.026   4.708   5.403
30512WAT     H291779   7.994   4.647   5.254
30513WAT      O91780   2.904   6.776   8.556
30513WAT     H191781   2.860   6.721   8.485
30513WAT     H291782   2.913   6.870   8.524
30514WAT      O91783   0.894   8.544   3.955
30514WAT     H191784   0.918   8.587   3.868
30514WAT     H291785   0.976   8.504   3.996
30515WAT      O91786   6.937   7.296   0.081
30515WAT     H191787   7.026   7.256   0.059
30515WAT     H291788   6.908   7.356   0.006
30516WAT      O91789   3.687   4.130   6.195
30516WAT     H191790   3.605   4.151   6.143
30516WAT     H291791   3.767   4.135   6.135
30517WAT      O91792   2.510   7.369   2.726
30517WAT     H191793   2.550   7.433   2.661
30517WAT     H291794   2.443   7.312   2.679
30518WAT      O91795   3.745   7.874   9.140
30518WAT     H191796   3.659   7.885   9.089
30518WAT     H291797   3.786   7.963   9.157
30519WAT      O91798   8.439   6.198   3.901
30519WAT     H191799   8.368   6.160   3.842
30519WAT     H291800   8.424   6.168   3.995
30520WAT      O91801   7.099   9.481   3.755
30520WAT     H191802   7.043   9.558   3.726
30520WAT     H291803   7.188   9.515   3.787
30521WAT      O91804   6.099   4.714   1.050
30521WAT     H191805   6.066   4.696   1.143
30521WAT     H291806   6.197   4.732   1.053
30522WAT      O91807   0.155   6.131   9.316
30522WAT     H191808   0.108   6.163   9.234
30522WAT     H291809   0.203   6.208   9.359
30523WAT      O91810   9.637   4.397   6.048
30523WAT     H191811   9.722   4.372   6.001
30523WAT     H291812   9.580   4.315   6.058
30524WAT      O91813   5.309   9.397   0.395
30524WAT     H191814   5.278   9.330   0.327
30524WAT     H291815   5.388   9.360   0.444
30525WAT      O91816   3.593   3.063   6.728
30525WAT     H191817   3.659   3.004   6.681
30525WAT     H291818   3.500   3.041   6.697
30526WAT      O91819   0.190   7.727   2.171
30526WAT     H191820   0.116   7.793   2.156
30526WAT     H291821   0.151   7.641   2.205
30527WAT      O91822   8.831   9.797   9.867
30527WAT     H191823   8.827   9.897   9.862
30527WAT     H291824   8.772   9.765   9.941
30528WAT      O91825   9.112   1.138   8.810
30528WAT     H191826   9.020   1.112   8.842
30528WAT     H291827   9.121   1.237   8.815
30529WAT      O91828   9.305   6.960   5.010
30529WAT     H191829   9.383   6.994   4.957
30529WAT     H291830   9.259   7.037   5.054
30530WAT      O91831   4.209   4.063   7.737
30530WAT     H191832   4.216   3.968   7.769
30530WAT     H291833   4.115   4.080   7.707
30531WAT      O91834   0.073   4.801   7.911
30531WAT     H191835   0.114   4.892   7.923
30531WAT     H291836  -0.011   4.809   7.859
30532WAT      O91837   3.737   2.315   4.997
30532WAT     H191838   3.705   2.367   4.917
30532WAT     H291839   3.662   2.306   5.063
30533WAT      O91840   2.936   0.979   8.203
30533WAT     H191841   2.873   0.918   8.154
30533WAT     H291842   2.894   1.007   8.290
30534WAT      O91843   6.274   2.902   3.239
30534WAT     H191844   6.271   2.918   3.338
30534WAT     H291845   6.325   2.818   3.220
30535WAT      O91846   2.545   8.411   3.808
30535WAT     H191847   2.550   8.418   3.709
30535WAT     H291848   2.513   8.319   3.833
30536WAT      O91849   9.439   3.673   6.480
30536WAT     H191850   9.535   3.664   6.453
30536WAT     H291851   9.385   3.602   6.435
30537WAT      O91852   8.264   8.553   4.399
30537WAT     H191853   8.285   8.518   4.308
30537WAT     H291854   8.327   8.627   4.423
30538WAT      O91855   1.856   4.426   8.283
30538WAT     H191856   1.832   4.352   8.347
30538WAT     H291857   1.807   4.412   8.197
30539WAT      O91858   8.983   8.442   2.022
30539WAT     H191859   8.970   8.415   2.117
30539WAT     H291860   8.925   8.384   1.963
30540WAT      O91861   4.126   1.420   3.541
30540WAT     H191862   4.117   1.336   3.595
30540WAT     H291863   4.044   1.434   3.486
30541WAT      O91864   2.667   4.871   2.082
30541WAT     H191865   2.717   4.953   2.054
30541WAT     H291866   2.711   4.791   2.042
30542WAT      O91867   6.267   1.008   7.322
30542WAT     H191868   6.274   1.046   7.230
30542WAT     H291869   6.307   0.916   7.324
30543WAT      O91870   1.830   8.992   3.479
30543WAT     H191871   1.900   8.926   3.503
30543WAT     H291872   1.846   9.025   3.386
30544WAT      O91873   6.348   0.490   2.096
30544WAT     H191874   6.307   0.409   2.053
30544WAT     H291875   6.291   0.570   2.075
30545WAT      O91876   2.848   2.152   4.043
30545WAT     H191877   2.901   2.128   3.962
30545WAT     H291878   2.860   2.249   4.063
30546WAT      O91879   7.270   8.134   1.244
30546WAT     H191880   7.200   8.204   1.260
30546WAT     H291881   7.294   8.131   1.147
30547WAT      O91882   7.244   2.045   4.533
30547WAT     H191883   7.308   2.074   4.604
30547WAT     H291884   7.286   2.061   4.443
30548WAT      O91885   6.031   7.751   0.378
30548WAT     H191886   6.040   7.753   0.478
30548WAT     H291887   5.948   7.702   0.353
30549WAT      O91888   5.474   6.008   2.583
30549WAT     H191889   5.539   6.063   2.635
30549WAT     H291890   5.383   6.049   2.589
30550WAT      O91891   3.828   6.729   0.178
30550WAT     H191892   3.737   6.770   0.166
30550WAT     H291893   3.890   6.764   0.108
30551WAT      O91894   5.438   6.658   9.295
30551WAT     H191895   5.443   6.558   9.293
30551WAT     H291896   5.369   6.687   9.362
30552WAT      O91897   0.248   8.761   7.074
30552WAT     H191898   0.211   8.759   7.167
30552WAT     H291899   0.277   8.668   7.048
30553WAT      O91900   1.378   2.331   9.547
30553WAT     H191901   1.434   2.252   9.570
30553WAT     H291902   1.417   2.413   9.588
30554WAT      O91903   4.340   1.938   7.761
30554WAT     H191904   4.303   2.031   7.761
30554WAT     H291905   4.439   1.942   7.770
30555WAT      O91906   5.930   6.148   4.495
30555WAT     H191907   6.026   6.136   4.521
30555WAT     H291908   5.891   6.222   4.550
30556WAT      O91909   8.562   6.370   4.109
30556WAT     H191910   8.528   6.305   4.041
30556WAT     H291911   8.487   6.400   4.168
30557WAT      O91912   1.410   0.624   2.808
30557WAT     H191913   1.326   0.570   2.800
30557WAT     H291914   1.455   0.629   2.719
30558WAT      O91915   2.455   5.561   1.829
30558WAT     H191916   2.504   5.523   1.750
30558WAT     H291917   2.430   5.656   1.811
30559WAT      O91918   3.094   9.704   1.498
30559WAT     H191919   3.112   9.771   1.570
30559WAT     H291920   3.049   9.624   1.537
30560WAT      O91921   0.683   2.716   9.639
30560WAT     H191922   0.731   2.629   9.650
30560WAT     H291923   0.668   2.734   9.542
30561WAT      O91924   6.168   2.647   2.861
30561WAT     H191925   6.242   2.593   2.821
30561WAT     H291926   6.128   2.597   2.938
30562WAT      O91927   0.251   2.602   5.058
30562WAT     H191928   0.219   2.629   4.967
30562WAT     H291929   0.350   2.611   5.063
30563WAT      O91930   3.765   1.345   5.145
30563WAT     H191931   3.698   1.365   5.074
30563WAT     H291932   3.737   1.263   5.196
30564WAT      O91933   8.949   1.896   3.286
30564WAT     H191934   8.951   1.880   3.385
30564WAT     H291935   8.901   1.981   3.266
30565WAT      O91936   8.911   7.822   5.715
30565WAT     H191937   8.984   7.792   5.653
30565WAT     H291938   8.934   7.795   5.808
30566WAT      O91939   0.642   7.006   7.322
30566WAT     H191940   0.664   7.007   7.225
30566WAT     H291941   0.720   6.967   7.373
30567WAT      O91942   7.043   0.672   8.031
30567WAT     H191943   7.063   0.584   7.988
30567WAT     H291944   6.949   0.699   8.011
30568WAT      O91945   3.324   1.440   0.571
30568WAT     H191946   3.296   1.490   0.653
30568WAT     H291947   3.424   1.438   0.567
30569WAT      O91948   3.760   6.792   4.972
30569WAT     H191949   3.785   6.803   5.068
30569WAT     H291950   3.842   6.802   4.915
30570WAT      O91951   4.647   7.406   7.213
30570WAT     H191952   4.687   7.478   7.156
30570WAT     H291953   4.628   7.326   7.156
30571WAT      O91954   4.008   7.133   3.934
30571WAT     H191955   4.090   7.138   3.877
30571WAT     H291956   3.927   7.131   3.875
30572WAT      O91957   6.204   7.207   6.076
30572WAT     H191958   6.282   7.184   6.018
30572WAT     H291959   6.229   7.195   6.172
30573WAT      O91960   3.023   3.394   5.429
30573WAT     H191961   3.085   3.315   5.434
30573WAT     H291962   3.063   3.471   5.478
30574WAT      O91963   1.442   5.018   5.013
30574WAT     H191964   1.347   5.036   4.985
30574WAT     H291965   1.450   5.028   5.112
30575WAT      O91966   8.840   5.161   8.363
30575WAT     H191967   8.911   5.114   8.310
30575WAT     H291968   8.769   5.194   8.300
30576WAT      O91969   7.392   3.809   3.355
30576WAT     H191970   7.403   3.827   3.453
30576WAT     H291971   7.417   3.714   3.336
30577WAT      O91972   5.367   7.008   8.878
30577WAT     H191973   5.464   7.027   8.893
30577WAT     H291974   5.318   7.015   8.965
30578WAT      O91975   6.521   7.767   8.454
30578WAT     H191976   6.428   7.747   8.484
30578WAT     H291977   6.519   7.805   8.361
30579WAT      O91978   0.120   3.616   2.385
30579WAT     H191979   0.056   3.592   2.313
30579WAT     H291980   0.109   3.554   2.462
30580WAT      O91981   0.613   2.699   7.293
30580WAT     H191982   0.588   2.615   7.246
30580WAT     H291983   0.711   2.717   7.279
30581WAT      O91984   8.611   8.229   4.334
30581WAT     H191985   8.604   8.237   4.235
30581WAT     H291986   8.584   8.136   4.362
30582WAT      O91987   3.513   4.617   0.773
30582WAT     H191988   3.601   4.584   0.740
30582WAT     H291989   3.455   4.539   0.797
30583WAT      O91990   0.348   4.085   3.937
30583WAT     H191991   0.423   4.071   3.872
30583WAT     H291992   0.351   4.180   3.969
30584WAT      O91993   5.222   3.355   5.760
30584WAT     H191994   5.146   3.400   5.807
30584WAT     H291995   5.209   3.363   5.661
30585WAT      O91996   8.078   7.558   4.111
30585WAT     H191997   8.170   7.545   4.149
30585WAT     H291998   8.033   7.634   4.159
30586WAT      O91999   6.222   0.791   3.944
30586WAT     H192000   6.228   0.887   3.971
30586WAT     H292001   6.266   0.778   3.856
30587WAT      O92002   2.295   9.708   3.846
30587WAT     H192003   2.319   9.654   3.766
30587WAT     H292004   2.353   9.681   3.924
30588WAT      O92005   6.440   5.456   6.272
30588WAT     H192006   6.513   5.405   6.317
30588WAT     H292007   6.396   5.398   6.203
30589WAT      O92008   1.504   3.192   9.724
30589WAT     H192009   1.428   3.131   9.747
30589WAT     H292010   1.573   3.189   9.797
30590WAT      O92011   9.591   2.287   2.119
30590WAT     H192012   9.594   2.296   2.219
30590WAT     H292013   9.550   2.369   2.080
30591WAT      O92014   0.962   2.911   5.744
30591WAT     H192015   1.059   2.895   5.763
30591WAT     H292016   0.907   2.865   5.813
30592WAT      O92017   7.992   4.005   3.961
30592WAT     H192018   8.024   3.993   3.867
30592WAT     H292019   7.908   3.952   3.974
30593WAT      O92020   0.080   4.193   8.712
30593WAT     H192021   0.106   4.144   8.629
30593WAT     H292022   0.156   4.190   8.777
30594WAT      O92023   3.513   7.620   7.529
30594WAT     H192024   3.576   7.566   7.474
30594WAT     H292025   3.420   7.586   7.517
30595WAT      O92026   8.323   1.726   8.951
30595WAT     H192027   8.413   1.763   8.931
30595WAT     H292028   8.327   1.626   8.950
30596WAT      O92029   3.795   8.371   6.170
30596WAT     H192030   3.840   8.456   6.144
30596WAT     H292031   3.760   8.379   6.263
30597WAT      O92032   5.788   8.861   5.096
30597WAT     H192033   5.745   8.839   5.183
30597WAT     H292034   5.887   8.866   5.107
30598WAT      O92035   0.342   7.110   4.341
30598WAT     H192036   0.396   7.030   4.368
30598WAT     H292037   0.366   7.188   4.399
30599WAT      O92038   4.096   3.996   7.145
30599WAT     H192039   4.089   3.935   7.224
30599WAT     H292040   4.191   4.001   7.115
30600WAT      O92041   0.409   9.365   6.510
30600WAT     H192042   0.420   9.307   6.430
30600WAT     H292043   0.371   9.453   6.482
30601WAT      O92044   2.280   8.154   4.361
30601WAT     H192045   2.352   8.103   4.313
30601WAT     H292046   2.193   8.142   4.312
30602WAT      O92047   6.067   6.928   0.250
30602WAT     H192048   6.144   6.888   0.200
30602WAT     H292049   6.050   7.020   0.215
30603WAT      O92050   2.430   6.644   0.490
30603WAT     H192051   2.351   6.615   0.436
30603WAT     H292052   2.401   6.663   0.584
30604WAT      O92053   5.524   5.858   6.185
30604WAT     H192054   5.446   5.813   6.142
30604WAT     H292055   5.495   5.901   6.270
30605WAT      O92056   9.643   8.809   8.507
30605WAT     H192057   9.610   8.902   8.490
30605WAT     H292058   9.639   8.789   8.604
30606WAT      O92059   7.339   0.598   5.164
30606WAT     H192060   7.357   0.511   5.118
30606WAT     H292061   7.415   0.619   5.226
30607WAT      O92062   3.647   2.878   8.220
30607WAT     H192063   3.719   2.827   8.174
30607WAT     H292064   3.559   2.861   8.174
30608WAT      O92065   8.191   9.163   2.258
30608WAT     H192066   8.184   9.180   2.356
30608WAT     H292067   8.103   9.182   2.215
30609WAT      O92068   8.925   8.543   0.191
30609WAT     H192069   8.937   8.504   0.100
30609WAT     H292070   8.920   8.643   0.184
30610WAT      O92071   0.081   0.849   7.566
30610WAT     H192072   0.039   0.854   7.476
30610WAT     H292073   0.030   0.905   7.631
30611WAT      O92074   1.861   6.524   7.038
30611WAT     H192075   1.924   6.449   7.054
30611WAT     H292076   1.909   6.599   6.992
30612WAT      O92077   0.856   0.162   9.086
30612WAT     H192078   0.930   0.168   9.019
30612WAT     H292079   0.846   0.067   9.116
30613WAT      O92080   2.517   8.140   2.829
30613WAT     H192081   2.499   8.125   2.926
30613WAT     H292082   2.606   8.183   2.818
30614WAT      O92083   7.050   6.605   1.197
30614WAT     H192084   6.975   6.612   1.131
30614WAT     H292085   7.063   6.509   1.222
30615WAT      O92086   7.275   9.500   1.578
30615WAT     H192087   7.176   9.486   1.582
30615WAT     H292088   7.320   9.411   1.567
30616WAT      O92089   0.388   6.096   6.097
30616WAT     H192090   0.328   6.040   6.153
30616WAT     H292091   0.363   6.087   6.001
30617WAT      O92092   1.072   1.885   0.455
30617WAT     H192093   1.029   1.955   0.512
30617WAT     H292094   1.016   1.803   0.454
30618WAT      O92095   4.737   9.144   8.734
30618WAT     H192096   4.740   9.086   8.652
30618WAT     H292097   4.682   9.225   8.716
30619WAT      O92098   1.086   4.502   2.798
30619WAT     H192099   1.020   4.450   2.851
30619WAT     H292100   1.039   4.552   2.725
30620WAT      O92101   2.858   9.058   1.697
30620WAT     H192102   2.907   8.972   1.681
30620WAT     H292103   2.860   9.080   1.794
30621WAT      O92104   4.941   4.302   0.132
30621WAT     H192105   4.881   4.225   0.154
30621WAT     H292106   5.036   4.276   0.150
30622WAT      O92107   5.850   0.244   6.849
30622WAT     H192108   5.843   0.182   6.771
30622WAT     H292109   5.834   0.193   6.934
30623WAT      O92110   2.525   8.857   8.691
30623WAT     H192111   2.620   8.882   8.672
30623WAT     H292112   2.464   8.928   8.653
30624WAT      O92113   0.215   6.393   0.514
30624WAT     H192114   0.279   6.322   0.484
30624WAT     H292115   0.234   6.478   0.464
30625WAT      O92116   1.449   6.253   1.647
30625WAT     H192117   1.358   6.267   1.688
30625WAT     H292118   1.447   6.171   1.590
30626WAT      O92119   1.613   5.926   6.515
30626WAT     H192120   1.561   5.847   6.548
30626WAT     H292121   1.662   5.968   6.592
30627WAT      O92122   8.323   3.575   9.707
30627WAT     H192123   8.282   3.566   9.797
30627WAT     H292124   8.380   3.495   9.687
30628WAT      O92125   4.821   1.580   5.179
30628WAT     H192126   4.846   1.668   5.138
30628WAT     H292127   4.817   1.510   5.108
30629WAT      O92128   6.691   3.276   8.400
30629WAT     H192129   6.681   3.203   8.332
30629WAT     H292130   6.600   3.307   8.428
30630WAT      O92131   3.526   4.411   4.897
30630WAT     H192132   3.564   4.476   4.832
30630WAT     H292133   3.459   4.458   4.956
30631WAT      O92134   5.308   3.966   1.939
30631WAT     H192135   5.227   4.017   1.967
30631WAT     H292136   5.372   3.961   2.015
30632WAT      O92137   7.984   9.606   2.566
30632WAT     H192138   7.941   9.671   2.629
30632WAT     H292139   7.914   9.547   2.526
30633WAT      O92140   2.800   8.518   7.767
30633WAT     H192141   2.783   8.549   7.860
30633WAT     H292142   2.730   8.453   7.740
30634WAT      O92143   7.042   1.547   0.674
30634WAT     H192144   7.046   1.643   0.702
30634WAT     H292145   6.967   1.502   0.722
30635WAT      O92146   4.921   3.585   8.409
30635WAT     H192147   4.973   3.505   8.378
30635WAT     H292148   4.823   3.563   8.407
30636WAT      O92149   2.054   8.954   6.946
30636WAT     H192150   2.000   8.873   6.969
30636WAT     H292151   2.026   9.031   7.003
30637WAT      O92152   1.253   6.182   7.435
30637WAT     H192153   1.165   6.224   7.413
30637WAT     H292154   1.266   6.184   7.534
30638WAT      O92155   9.036   4.043   9.794
30638WAT     H192156   8.945   4.006   9.811
30638WAT     H292157   9.028   4.139   9.765
30639WAT      O92158   1.437   5.980   0.417
30639WAT     H192159   1.350   6.010   0.458
30639WAT     H292160   1.485   6.059   0.381
30640WAT      O92161   7.885   0.323   0.370
30640WAT     H192162   7.846   0.266   0.442
30640WAT     H292163   7.971   0.363   0.401
30641WAT      O92164   2.740   3.519   5.225
30641WAT     H192165   2.754   3.601   5.281
30641WAT     H292166   2.774   3.439   5.275
30642WAT      O92167   2.215   4.807   5.640
30642WAT     H192168   2.236   4.784   5.735
30642WAT     H292169   2.163   4.732   5.598
30643WAT      O92170   1.592   8.488   0.944
30643WAT     H192171   1.513   8.447   0.988
30643WAT     H292172   1.668   8.494   1.010
30644WAT      O92173   0.954   9.760   1.249
30644WAT     H192174   0.884   9.739   1.181
30644WAT     H292175   1.009   9.838   1.218
30645WAT      O92176   2.846   7.514   1.254
30645WAT     H192177   2.879   7.454   1.181
30645WAT     H292178   2.907   7.506   1.334
30646WAT      O92179   6.684   0.716   4.930
30646WAT     H192180   6.763   0.656   4.918
30646WAT     H292181   6.713   0.811   4.922
30647WAT      O92182   7.369   9.227   8.366
30647WAT     H192183   7.281   9.248   8.324
30647WAT     H292184   7.442   9.241   8.300
30648WAT      O92185   3.726   6.378   8.196
30648WAT     H192186   3.805   6.381   8.134
30648WAT     H292187   3.739   6.304   8.262
30649WAT      O92188   0.635   2.280   0.748
30649WAT     H192189   0.659   2.333   0.666
30649WAT     H292190   0.666   2.186   0.738
30650WAT      O92191   0.340   6.152   0.422
30650WAT     H192192   0.300   6.096   0.350
30650WAT     H292193   0.431   6.118   0.444
30651WAT      O92194   5.950   4.761   3.051
30651WAT     H192195   5.938   4.678   3.106
30651WAT     H292196   5.869   4.818   3.059
30652WAT      O92197   8.360   3.136   2.054
30652WAT     H192198   8.263   3.120   2.035
30652WAT     H292199   8.373   3.143   2.153
30653WAT      O92200   1.851   7.055   3.182
30653WAT     H192201   1.851   7.033   3.084
30653WAT     H292202   1.894   7.144   3.196
30654WAT      O92203   0.047   4.169   2.849
30654WAT     H192204   0.019   4.139   2.940
30654WAT     H292205   0.030   4.096   2.783
30655WAT      O92206   5.228   3.635   5.407
30655WAT     H192207   5.319   3.673   5.389
30655WAT     H292208   5.168   3.654   5.330
30656WAT      O92209   8.783   3.515   6.541
30656WAT     H192210   8.772   3.492   6.444
30656WAT     H292211   8.775   3.614   6.553
30657WAT      O92212   6.026   7.198   6.653
30657WAT     H192213   5.928   7.189   6.636
30657WAT     H292214   6.076   7.133   6.597
30658WAT      O92215   0.966   6.056   0.562
30658WAT     H192216   0.911   6.059   0.479
30658WAT     H292217   0.932   5.984   0.622
30659WAT      O92218   0.772   1.171   0.582
30659WAT     H192219   0.839   1.146   0.652
30659WAT     H292220   0.806   1.251   0.531
30660WAT      O92221   8.168   8.243   4.111
30660WAT     H192222   8.211   8.233   4.200
30660WAT     H292223   8.095   8.311   4.117
30661WAT      O92224   1.395   9.471   6.226
30661WAT     H192225   1.326   9.543   6.229
30661WAT     H292226   1.456   9.486   6.148
30662WAT      O92227   7.914   6.877   8.873
30662WAT     H192228   8.000   6.828   8.889
30662WAT     H292229   7.846   6.848   8.940
30663WAT      O92230   1.728   9.602   1.414
30663WAT     H192231   1.704   9.564   1.503
30663WAT     H292232   1.820   9.641   1.417
30664WAT      O92233   0.677   9.146   4.388
30664WAT     H192234   0.670   9.187   4.297
30664WAT     H292235   0.597   9.088   4.406
30665WAT      O92236   2.813   7.791   2.619
30665WAT     H192237   2.872   7.788   2.539
30665WAT     H292238   2.741   7.860   2.606
30666WAT      O92239   5.640   7.031   6.536
30666WAT     H192240   5.609   6.976   6.614
30666WAT     H292241   5.640   7.127   6.561
30667WAT      O92242   9.026   5.786   5.421
30667WAT     H192243   9.066   5.756   5.508
30667WAT     H292244   8.965   5.715   5.386
30668WAT      O92245   4.664   1.909   2.389
30668WAT     H192246   4.626   1.842   2.454
30668WAT     H292247   4.759   1.928   2.414
30669WAT      O92248   7.178   5.808   6.644
30669WAT     H192249   7.265   5.765   6.621
30669WAT     H292250   7.133   5.840   6.560
30670WAT      O92251   6.302   6.387   3.449
30670WAT     H192252   6.362   6.319   3.407
30670WAT     H292253   6.352   6.435   3.521
30671WAT      O92254   1.354   3.006   6.377
30671WAT     H192255   1.413   2.936   6.336
30671WAT     H292256   1.284   2.962   6.433
30672WAT      O92257   8.678   7.541   4.430
30672WAT     H192258   8.699   7.443   4.433
30672WAT     H292259   8.720   7.582   4.349
30673WAT      O92260   8.236   4.322   1.114
30673WAT     H192261   8.171   4.247   1.125
30673WAT     H292262   8.329   4.286   1.122
30674WAT      O92263   0.458   7.961   0.823
30674WAT     H192264   0.378   7.992   0.772
30674WAT     H292265   0.511   8.041   0.854
30675WAT      O92266   3.441   2.313   7.890
30675WAT     H192267   3.418   2.409   7.900
30675WAT     H292268   3.478   2.278   7.976
30676WAT      O92269   3.007   5.003   7.204
30676WAT     H192270   3.001   4.911   7.242
30676WAT     H292271   2.978   5.003   7.109
30677WAT      O92272   8.763   2.820   5.448
30677WAT     H192273   8.752   2.867   5.535
30677WAT     H292274   8.762   2.721   5.463
30678WAT      O92275   3.775   6.823   2.479
30678WAT     H192276   3.843   6.877   2.528
30678WAT     H292277   3.822   6.761   2.416
30679WAT      O92278   9.581   8.053   9.773
30679WAT     H192279   9.633   7.967   9.769
30679WAT     H292280   9.483   8.033   9.771
30680WAT      O92281   0.877   1.402   2.616
30680WAT     H192282   0.956   1.446   2.574
30680WAT     H292283   0.884   1.303   2.605
30681WAT      O92284   5.269   0.364   7.560
30681WAT     H192285   5.181   0.394   7.525
30681WAT     H292286   5.317   0.312   7.489
30682WAT      O92287   5.724   8.866   8.628
30682WAT     H192288   5.778   8.950   8.619
30682WAT     H292289   5.678   8.867   8.717
30683WAT      O92290   1.786   4.038   9.313
30683WAT     H192291   1.697   4.008   9.279
30683WAT     H292292   1.792   4.138   9.307
30684WAT      O92293   2.297   1.095   8.101
30684WAT     H192294   2.349   1.175   8.129
30684WAT     H292295   2.305   1.024   8.171
30685WAT      O92296   8.792   8.426   7.438
30685WAT     H192297   8.738   8.497   7.483
30685WAT     H292298   8.733   8.372   7.379
30686WAT      O92299   5.014   2.086   9.159
30686WAT     H192300   5.069   2.103   9.078
30686WAT     H292301   5.001   2.171   9.210
30687WAT      O92302   0.212   0.153   4.615
30687WAT     H192303   0.301   0.141   4.659
30687WAT     H292304   0.170   0.238   4.646
30688WAT      O92305   2.506   9.322   7.088
30688WAT     H192306   2.544   9.405   7.127
30688WAT     H292307   2.493   9.334   6.990
30689WAT      O92308   7.552   2.162   5.422
30689WAT     H192309   7.516   2.086   5.475
30689WAT     H292310   7.478   2.227   5.403
30690WAT      O92311   4.283   6.334   6.242
30690WAT     H192312   4.291   6.433   6.232
30690WAT     H292313   4.258   6.293   6.154
30691WAT      O92314   3.206   1.258   6.494
30691WAT     H192315   3.220   1.239   6.397
30691WAT     H292316   3.116   1.299   6.508
30692WAT      O92317   1.587   7.744   9.460
30692WAT     H192318   1.676   7.790   9.458
30692WAT     H292319   1.541   7.764   9.546
30693WAT      O92320   8.152   8.059   6.151
30693WAT     H192321   8.171   8.157   6.141
30693WAT     H292322   8.218   8.007   6.098
30694WAT      O92323   2.213   5.434   1.770
30694WAT     H192324   2.298   5.432   1.823
30694WAT     H292325   2.181   5.528   1.761
30695WAT      O92326   9.468   8.703   4.108
30695WAT     H192327   9.401   8.632   4.129
30695WAT     H292328   9.548   8.692   4.166
30696WAT      O92329   6.015   6.693   2.510
30696WAT     H192330   6.072   6.759   2.460
30696WAT     H292331   5.985   6.735   2.596
30697WAT      O92332   5.201   9.293   3.691
30697WAT     H192333   5.116   9.333   3.655
30697WAT     H292334   5.204   9.305   3.790
30698WAT      O92335   4.475   7.572   7.351
30698WAT     H192336   4.525   7.499   7.305
30698WAT     H292337   4.417   7.533   7.423
30699WAT      O92338   3.204   1.864   3.786
30699WAT     H192339   3.284   1.891   3.732
30699WAT     H292340   3.185   1.767   3.771
30700WAT      O92341   1.974   8.940   5.790
30700WAT     H192342   1.978   8.874   5.865
30700WAT     H292343   1.914   9.016   5.815
30701WAT      O92344   7.654   7.900   2.236
30701WAT     H192345   7.570   7.849   2.217
30701WAT     H292346   7.727   7.869   2.175
30702WAT      O92347   1.468   5.710   3.602
30702WAT     H192348   1.393   5.735   3.664
30702WAT     H292349   1.510   5.793   3.566
30703WAT      O92350   3.863   5.209   0.555
30703WAT     H192351   3.869   5.155   0.639
30703WAT     H292352   3.842   5.149   0.478
30704WAT      O92353   8.476   5.866   9.630
30704WAT     H192354   8.531   5.809   9.569
30704WAT     H292355   8.511   5.960   9.628
30705WAT      O92356   8.174   9.717   3.183
30705WAT     H192357   8.259   9.702   3.132
30705WAT     H292358   8.097   9.679   3.131
30706WAT      O92359   0.700   1.754   8.178
30706WAT     H192360   0.624   1.742   8.242
30706WAT     H292361   0.715   1.852   8.162
30707WAT      O92362   3.165   2.218   8.227
30707WAT     H192363   3.244   2.233   8.286
30707WAT     H292364   3.104   2.298   8.231
30708WAT      O92365   8.410   4.493   6.268
30708WAT     H192366   8.391   4.434   6.190
30708WAT     H292367   8.479   4.449   6.326
30709WAT      O92368   1.941   7.639   3.195
30709WAT     H192369   1.861   7.664   3.250
30709WAT     H292370   1.914   7.571   3.127
30710WAT      O92371   2.962   1.376   6.294
30710WAT     H192372   3.006   1.460   6.327
30710WAT     H292373   3.020   1.334   6.224
30711WAT      O92374   1.245   8.643   4.127
30711WAT     H192375   1.209   8.559   4.088
30711WAT     H292376   1.252   8.634   4.226
30712WAT      O92377   8.240   6.508   5.427
30712WAT     H192378   8.334   6.502   5.394
30712WAT     H292379   8.234   6.578   5.498
30713WAT      O92380   4.019   4.756   0.778
30713WAT     H192381   4.021   4.821   0.701
30713WAT     H292382   4.109   4.753   0.821
30714WAT      O92383   0.057   6.606   2.380
30714WAT     H192384   0.150   6.616   2.415
30714WAT     H292385   0.055   6.624   2.282
30715WAT      O92386   6.738   6.410   1.918
30715WAT     H192387   6.673   6.364   1.979
30715WAT     H292388   6.791   6.477   1.969
30716WAT      O92389   8.075   4.498   0.190
30716WAT     H192390   8.140   4.478   0.116
30716WAT     H292391   7.989   4.451   0.171
30717WAT      O92392   1.939   0.086   5.435
30717WAT     H192393   2.035   0.110   5.418
30717WAT     H292394   1.891   0.166   5.469
30718WAT      O92395   6.791   7.442   3.787
30718WAT     H192396   6.810   7.495   3.870
30718WAT     H292397   6.877   7.429   3.737
30719WAT      O92398   4.911   5.707   2.173
30719WAT     H192399   4.882   5.630   2.231
30719WAT     H292400   4.909   5.791   2.227
30720WAT      O92401   4.048   1.068   1.281
30720WAT     H192402   4.142   1.103   1.276
30720WAT     H292403   3.986   1.131   1.234
30721WAT      O92404   6.984   6.377   7.811
30721WAT     H192405   6.943   6.437   7.743
30721WAT     H292406   6.981   6.282   7.777
30722WAT      O92407   3.272   4.977   1.799
30722WAT     H192408   3.247   4.962   1.703
30722WAT     H292409   3.360   4.933   1.818
30723WAT      O92410   9.868   9.596   4.573
30723WAT     H192411   9.786   9.609   4.628
30723WAT     H292412   9.905   9.685   4.545
30724WAT      O92413   9.242   0.818   5.852
30724WAT     H192414   9.307   0.894   5.844
30724WAT     H292415   9.150   0.855   5.865
30725WAT      O92416   7.016   0.793   6.369
30725WAT     H192417   6.934   0.845   6.345
30725WAT     H292418   7.086   0.808   6.299
30726WAT      O92419   0.226   3.164   2.925
30726WAT     H192420   0.322   3.145   2.947
30726WAT     H292421   0.173   3.080   2.931
30727WAT      O92422   9.070   8.785   7.584
30727WAT     H192423   9.089   8.740   7.671
30727WAT     H292424   9.037   8.718   7.518
30728WAT      O92425   8.488   8.351   3.162
30728WAT     H192426   8.545   8.430   3.137
30728WAT     H292427   8.451   8.364   3.254
30729WAT      O92428   9.228   6.517   7.105
30729WAT     H192429   9.234   6.474   7.015
30729WAT     H292430   9.135   6.553   7.118
30730WAT      O92431   3.405   5.365   1.664
30730WAT     H192432   3.418   5.445   1.606
30730WAT     H292433   3.490   5.313   1.667
30731WAT      O92434   8.430   1.605   2.748
30731WAT     H192435   8.367   1.607   2.826
30731WAT     H292436   8.444   1.511   2.718
30732WAT      O92437   3.415   2.151   0.063
30732WAT     H192438   3.429   2.190   0.154
30732WAT     H292439   3.367   2.216   0.005
30733WAT      O92440   5.110   7.668   9.042
30733WAT     H192441   5.028   7.693   9.093
30733WAT     H292442   5.083   7.634   8.952
30734WAT      O92443   9.197   3.130   0.075
30734WAT     H192444   9.239   3.136   0.166
30734WAT     H292445   9.192   3.034   0.048
30735WAT      O92446   7.260   2.831   1.977
30735WAT     H192447   7.230   2.753   1.922
30735WAT     H292448   7.257   2.807   2.074
30736WAT      O92449   2.418   1.623   2.424
30736WAT     H192450   2.370   1.561   2.487
30736WAT     H292451   2.388   1.604   2.330
30737WAT      O92452   1.508   4.096   3.144
30737WAT     H192453   1.591   4.106   3.200
30737WAT     H292454   1.495   4.178   3.088
30738WAT      O92455   2.495   9.806   5.255
30738WAT     H192456   2.553   9.819   5.335
30738WAT     H292457   2.418   9.746   5.278
30739WAT      O92458   7.262   6.593   6.577
30739WAT     H192459   7.306   6.563   6.492
30739WAT     H292460   7.226   6.686   6.564
30740WAT      O92461   3.181   0.954   3.987
30740WAT     H192462   3.265   1.002   4.014
30740WAT     H292463   3.112   0.965   4.059
30741WAT      O92464   1.501   5.997   4.618
30741WAT     H192465   1.590   5.993   4.665
30741WAT     H292466   1.493   6.085   4.571
30742WAT      O92467   4.838   6.009   1.600
30742WAT     H192468   4.902   5.933   1.616
30742WAT     H292469   4.770   5.981   1.532
30743WAT      O92470   8.882   4.326   6.035
30743WAT     H192471   8.796   4.283   6.006
30743WAT     H292472   8.917   4.278   6.116
30744WAT      O92473   2.401   2.247   9.060
30744WAT     H192474   2.442   2.215   9.145
30744WAT     H292475   2.473   2.272   8.995
30745WAT      O92476   6.735   3.916   2.693
30745WAT     H192477   6.741   4.015   2.686
30745WAT     H292478   6.801   3.874   2.630
30746WAT      O92479   6.847   1.489   8.328
30746WAT     H192480   6.912   1.430   8.375
30746WAT     H292481   6.894   1.570   8.292
30747WAT      O92482   5.206   7.814   4.354
30747WAT     H192483   5.221   7.797   4.257
30747WAT     H292484   5.289   7.789   4.405
30748WAT      O92485   4.359   7.008   8.932
30748WAT     H192486   4.309   6.924   8.951
30748WAT     H292487   4.297   7.086   8.938
30749WAT      O92488   2.902   8.278   2.655
30749WAT     H192489   2.876   8.292   2.750
30749WAT     H292490   2.987   8.225   2.651
30750WAT      O92491   6.284   6.480   7.513
30750WAT     H192492   6.281   6.516   7.420
30750WAT     H292493   6.371   6.505   7.556
30751WAT      O92494   0.154   7.793   3.196
30751WAT     H192495   0.056   7.810   3.191
30751WAT     H292496   0.182   7.787   3.292
30752WAT      O92497   8.344   1.617   5.469
30752WAT     H192498   8.405   1.659   5.537
30752WAT     H292499   8.400   1.573   5.398
30753WAT      O92500   9.559   0.086   0.410
30753WAT     H192501   9.524   0.076   0.317
30753WAT     H292502   9.653   0.118   0.408
30754WAT      O92503   9.815   9.724   7.362
30754WAT     H192504   9.874   9.779   7.421
30754WAT     H292505   9.726   9.770   7.353
30755WAT      O92506   0.916   0.386   3.932
30755WAT     H192507   0.872   0.389   3.842
30755WAT     H292508   0.846   0.385   4.003
30756WAT      O92509   4.837   8.618   1.249
30756WAT     H192510   4.901   8.549   1.282
30756WAT     H292511   4.771   8.575   1.186
30757WAT      O92512   9.274   9.415   5.938
30757WAT     H192513   9.262   9.443   5.843
30757WAT     H292514   9.238   9.486   5.999
30758WAT      O92515   0.276   1.099   5.068
30758WAT     H192516   0.339   1.112   4.991
30758WAT     H292517   0.287   1.174   5.133
30759WAT      O92518   6.701   3.834   6.243
30759WAT     H192519   6.793   3.858   6.210
30759WAT     H292520   6.709   3.788   6.331
30760WAT      O92521   5.283   3.644   8.521
30760WAT     H192522   5.248   3.737   8.536
30760WAT     H292523   5.338   3.643   8.437
30761WAT      O92524   4.742   3.743   6.196
30761WAT     H192525   4.797   3.707   6.271
30761WAT     H292526   4.705   3.668   6.141
30762WAT      O92527   6.135   2.135   7.412
30762WAT     H192528   6.126   2.101   7.318
30762WAT     H292529   6.226   2.173   7.425
30763WAT      O92530   8.943   5.059   0.184
30763WAT     H192531   8.890   5.133   0.226
30763WAT     H292532   9.013   5.098   0.124
30764WAT      O92533   5.685   1.836   1.140
30764WAT     H192534   5.670   1.756   1.199
30764WAT     H292535   5.729   1.807   1.055
30765WAT      O92536   8.444   2.411   2.084
30765WAT     H192537   8.463   2.413   2.182
30765WAT     H292538   8.524   2.441   2.033
30766WAT      O92539   1.796   0.476   2.076
30766WAT     H192540   1.837   0.442   1.991
30766WAT     H292541   1.846   0.440   2.154
30767WAT      O92542   1.358   3.693   4.749
30767WAT     H192543   1.456   3.681   4.734
30767WAT     H292544   1.307   3.646   4.677
30768WAT      O92545   4.926   0.141   0.696
30768WAT     H192546   4.888   0.181   0.779
30768WAT     H292547   5.026   0.137   0.705
30769WAT      O92548   5.507   6.235   7.578
30769WAT     H192549   5.499   6.229   7.479
30769WAT     H292550   5.545   6.324   7.603
30770WAT      O92551   7.965   1.661   6.612
30770WAT     H192552   7.905   1.705   6.678
30770WAT     H292553   7.973   1.718   6.530
30771WAT      O92554   2.816   7.803   8.563
30771WAT     H192555   2.865   7.738   8.620
30771WAT     H292556   2.731   7.761   8.530
30772WAT      O92557   0.453   5.346   7.831
30772WAT     H192558   0.499   5.435   7.833
30772WAT     H292559   0.465   5.300   7.919
30773WAT      O92560   3.519   7.111   0.113
30773WAT     H192561   3.605   7.161   0.126
30773WAT     H292562   3.451   7.145   0.178
30774WAT      O92563   4.792   0.954   1.571
30774WAT     H192564   4.821   0.942   1.476
30774WAT     H292565   4.860   0.912   1.632
30775WAT      O92566   1.741   4.743   3.676
30775WAT     H192567   1.740   4.644   3.660
30775WAT     H292568   1.835   4.774   3.692
30776WAT      O92569   6.587   4.531   2.432
30776WAT     H192570   6.628   4.618   2.404
30776WAT     H292571   6.570   4.475   2.351
30777WAT      O92572   9.393   4.171   7.135
30777WAT     H192573   9.355   4.234   7.202
30777WAT     H292574   9.398   4.216   7.045
30778WAT      O92575   7.622   7.648   8.568
30778WAT     H192576   7.635   7.651   8.469
30778WAT     H292577   7.687   7.584   8.609
30779WAT      O92578   3.569   8.871   2.996
30779WAT     H192579   3.571   8.872   3.096
30779WAT     H292580   3.639   8.933   2.961
30780WAT      O92581   4.330   5.270   5.937
30780WAT     H192582   4.321   5.171   5.923
30780WAT     H292583   4.292   5.318   5.858
30781WAT      O92584   4.625   7.158   8.295
30781WAT     H192585   4.648   7.091   8.365
30781WAT     H292586   4.586   7.112   8.216
30782WAT      O92587   5.792   9.791   8.860
30782WAT     H192588   5.891   9.787   8.843
30782WAT     H292589   5.771   9.747   8.947
30783WAT      O92590   6.587   1.261   2.788
30783WAT     H192591   6.676   1.288   2.752
30783WAT     H292592   6.570   1.311   2.874
30784WAT      O92593   1.763   8.666   8.662
30784WAT     H192594   1.722   8.650   8.572
30784WAT     H292595   1.691   8.664   8.732
30785WAT      O92596   8.366   6.430   1.073
30785WAT     H192597   8.375   6.427   0.973
30785WAT     H292598   8.457   6.435   1.114
30786WAT      O92599   5.050   2.653   9.133
30786WAT     H192600   4.970   2.656   9.194
30786WAT     H292601   5.104   2.572   9.153
30787WAT      O92602   2.565   8.185   1.542
30787WAT     H192603   2.657   8.224   1.533
30787WAT     H292604   2.509   8.245   1.599
30788WAT      O92605   5.678   4.543   2.697
30788WAT     H192606   5.692   4.642   2.700
30788WAT     H292607   5.659   4.515   2.603
30789WAT      O92608   1.876   1.445   7.276
30789WAT     H192609   1.949   1.493   7.323
30789WAT     H292610   1.793   1.501   7.276
30790WAT      O92611   1.748   4.129   3.309
30790WAT     H192612   1.781   4.223   3.319
30790WAT     H292613   1.753   4.083   3.397
30791WAT      O92614   9.116   0.274   1.711
30791WAT     H192615   9.193   0.219   1.744
30791WAT     H292616   9.042   0.214   1.681
30792WAT      O92617   7.244   6.770   1.137
30792WAT     H192618   7.327   6.717   1.119
30792WAT     H292619   7.166   6.708   1.147
30793WAT      O92620   7.303   1.448   2.413
30793WAT     H192621   7.250   1.483   2.336
30793WAT     H292622   7.326   1.523   2.475
30794WAT      O92623   5.370   8.907   4.115
30794WAT     H192624   5.453   8.949   4.078
30794WAT     H292625   5.332   8.843   4.048
30795WAT      O92626   6.404   4.162   1.284
30795WAT     H192627   6.479   4.127   1.228
30795WAT     H292628   6.321   4.168   1.229
30796WAT      O92629   5.337   3.230   7.654
30796WAT     H192630   5.374   3.152   7.604
30796WAT     H292631   5.334   3.310   7.593
30797WAT      O92632   7.545   4.606   5.720
30797WAT     H192633   7.461   4.569   5.682
30797WAT     H292634   7.563   4.697   5.682
30798WAT      O92635   6.350   1.831   0.727
30798WAT     H192636   6.383   1.902   0.790
30798WAT     H292637   6.277   1.869   0.670
30799WAT      O92638   1.734   6.762   7.543
30799WAT     H192639   1.770   6.671   7.523
30799WAT     H292640   1.637   6.765   7.518
30800WAT      O92641   6.511   9.277   0.152
30800WAT     H192642   6.532   9.347   0.084
30800WAT     H292643   6.595   9.253   0.202
30801WAT      O92644   2.236   0.409   8.407
30801WAT     H192645   2.203   0.318   8.381
30801WAT     H292646   2.181   0.479   8.360
30802WAT      O92647   8.218   2.125   1.617
30802WAT     H192648   8.288   2.127   1.545
30802WAT     H292649   8.262   2.115   1.706
30803WAT      O92650   2.839   9.270   1.539
30803WAT     H192651   2.819   9.182   1.581
30803WAT     H292652   2.844   9.258   1.439
30804WAT      O92653   5.126   3.331   2.256
30804WAT     H192654   5.087   3.418   2.225
30804WAT     H292655   5.224   3.330   2.238
30805WAT      O92656   7.640   1.937   8.273
30805WAT     H192657   7.557   1.946   8.217
30805WAT     H292658   7.618   1.887   8.357
30806WAT      O92659   5.333   0.272   8.215
30806WAT     H192660   5.246   0.311   8.244
30806WAT     H292661   5.321   0.175   8.192
30807WAT      O92662   7.372   4.300   7.043
30807WAT     H192663   7.276   4.322   7.055
30807WAT     H292664   7.398   4.312   6.948
30808WAT      O92665   7.586   5.547   2.737
30808WAT     H192666   7.499   5.594   2.753
30808WAT     H292667   7.661   5.602   2.774
30809WAT      O92668   1.764   5.700   4.573
30809WAT     H192669   1.699   5.661   4.507
30809WAT     H292670   1.846   5.643   4.575
30810WAT      O92671   1.547   3.248   1.122
30810WAT     H192672   1.640   3.246   1.161
30810WAT     H292673   1.521   3.343   1.105
30811WAT      O92674   7.763   5.740   3.605
30811WAT     H192675   7.694   5.667   3.611
30811WAT     H292676   7.759   5.796   3.688
30812WAT      O92677   3.751   7.193   3.774
30812WAT     H192678   3.758   7.101   3.736
30812WAT     H292679   3.661   7.205   3.817
30813WAT      O92680   3.238   8.721   2.141
30813WAT     H192681   3.223   8.633   2.186
30813WAT     H292682   3.301   8.708   2.064
30814WAT      O92683   2.490   8.230   1.287
30814WAT     H192684   2.565   8.223   1.352
30814WAT     H292685   2.526   8.250   1.196
30815WAT      O92686   2.555   7.201   9.473
30815WAT     H192687   2.631   7.261   9.446
30815WAT     H292688   2.512   7.163   9.391
30816WAT      O92689   7.301   2.612   8.545
30816WAT     H192690   7.318   2.592   8.449
30816WAT     H292691   7.348   2.545   8.602
30817WAT      O92692   0.412   4.914   7.741
30817WAT     H192693   0.357   4.979   7.688
30817WAT     H292694   0.354   4.841   7.775
30818WAT      O92695   6.451   2.263   6.005
30818WAT     H192696   6.489   2.292   6.093
30818WAT     H292697   6.454   2.340   5.941
30819WAT      O92698   6.457   1.226   4.079
30819WAT     H192699   6.526   1.284   4.037
30819WAT     H292700   6.450   1.247   4.177
30820WAT      O92701   0.355   0.916   9.266
30820WAT     H192702   0.399   0.991   9.316
30820WAT     H292703   0.420   0.840   9.256
30821WAT      O92704   2.827   0.940   7.568
30821WAT     H192705   2.792   1.032   7.556
30821WAT     H292706   2.751   0.875   7.569
30822WAT      O92707   5.885   5.243   1.328
30822WAT     H192708   5.804   5.187   1.347
30822WAT     H292709   5.901   5.246   1.229
30823WAT      O92710   5.579   8.896   0.127
30823WAT     H192711   5.577   8.943   0.039
30823WAT     H292712   5.574   8.798   0.114
30824WAT      O92713   7.457   3.348   6.145
30824WAT     H192714   7.474   3.259   6.186
30824WAT     H292715   7.358   3.366   6.144
30825WAT      O92716   1.046   1.609   8.465
30825WAT     H192717   1.128   1.656   8.433
30825WAT     H292718   1.028   1.529   8.408
30826WAT      O92719   2.797   0.333   5.646
30826WAT     H192720   2.720   0.271   5.631
30826WAT     H292721   2.878   0.280   5.672
30827WAT      O92722   1.477   9.529   2.881
30827WAT     H192723   1.448   9.489   2.794
30827WAT     H292724   1.455   9.466   2.955
30828WAT      O92725   4.415   7.977   2.834
30828WAT     H192726   4.411   7.878   2.824
30828WAT     H292727   4.364   8.021   2.761
30829WAT      O92728   0.871   2.813   6.116
30829WAT     H192729   0.813   2.799   6.196
30829WAT     H292730   0.915   2.903   6.121
30830WAT      O92731   8.947   3.629   8.976
30830WAT     H192732   8.891   3.706   9.005
30830WAT     H292733   8.973   3.640   8.880
30831WAT      O92734   3.530   7.544   9.652
30831WAT     H192735   3.552   7.483   9.576
30831WAT     H292736   3.604   7.541   9.719
30832WAT      O92737   3.104   7.871   8.527
30832WAT     H192738   3.169   7.814   8.577
30832WAT     H292739   3.012   7.856   8.564
30833WAT      O92740   6.967   0.031   3.983
30833WAT     H192741   7.058   0.023   4.024
30833WAT     H292742   6.920   0.110   4.022
30834WAT      O92743   3.011   3.747   7.408
30834WAT     H192744   3.019   3.830   7.353
30834WAT     H292745   3.102   3.718   7.439
30835WAT      O92746   3.973   2.942   8.771
30835WAT     H192747   3.911   3.017   8.749
30835WAT     H292748   4.054   2.979   8.817
30836WAT      O92749   3.826   6.586   2.735
30836WAT     H192750   3.810   6.607   2.832
30836WAT     H292751   3.925   6.584   2.718
30837WAT      O92752   6.988   0.566   7.031
30837WAT     H192753   6.974   0.468   7.044
30837WAT     H292754   6.941   0.616   7.103
30838WAT      O92755   3.662   5.415   4.027
30838WAT     H192756   3.692   5.373   3.941
30838WAT     H292757   3.638   5.511   4.010
30839WAT      O92758   3.197   3.624   8.819
30839WAT     H192759   3.129   3.579   8.877
30839WAT     H292760   3.211   3.569   8.737
30840WAT      O92761   8.207   3.418   4.507
30840WAT     H192762   8.245   3.367   4.430
30840WAT     H292763   8.132   3.475   4.475
30841WAT      O92764   0.823   4.411   0.141
30841WAT     H192765   0.858   4.318   0.127
30841WAT     H292766   0.900   4.473   0.158
30842WAT      O92767   5.980   4.563   2.616
30842WAT     H192768   5.960   4.482   2.560
30842WAT     H292769   5.895   4.600   2.653
30843WAT      O92770   9.602   5.638   5.282
30843WAT     H192771   9.685   5.597   5.319
30843WAT     H292772   9.623   5.728   5.243
30844WAT      O92773   7.667   0.840   4.365
30844WAT     H192774   7.731   0.821   4.290
30844WAT     H292775   7.649   0.938   4.369
30845WAT      O92776   5.987   3.751   8.007
30845WAT     H192777   6.030   3.706   7.929
30845WAT     H292778   6.035   3.837   8.027
30846WAT      O92779   1.350   5.038   7.679
30846WAT     H192780   1.347   4.984   7.763
30846WAT     H292781   1.267   5.021   7.626
30847WAT      O92782   4.262   9.023   7.616
30847WAT     H192783   4.183   8.984   7.665
30847WAT     H292784   4.281   9.114   7.651
30848WAT      O92785   1.016   3.155   6.406
30848WAT     H192786   0.928   3.201   6.395
30848WAT     H292787   1.058   3.182   6.492
30849WAT      O92788   7.171   4.994   4.585
30849WAT     H192789   7.197   5.038   4.671
30849WAT     H292790   7.087   5.035   4.550
30850WAT      O92791   6.804   0.494   0.699
30850WAT     H192792   6.740   0.438   0.752
30850WAT     H292793   6.832   0.444   0.617
30851WAT      O92794   9.009   4.504   7.916
30851WAT     H192795   9.044   4.411   7.920
30851WAT     H292796   8.909   4.503   7.922
30852WAT      O92797   3.936   2.091   1.661
30852WAT     H192798   3.872   2.153   1.706
30852WAT     H292799   4.028   2.131   1.664
30853WAT      O92800   7.306   5.369   9.624
30853WAT     H192801   7.318   5.332   9.532
30853WAT     H292802   7.315   5.468   9.622
30854WAT      O92803   3.624   0.958   8.888
30854WAT     H192804   3.540   0.977   8.837
30854WAT     H292805   3.607   0.969   8.986
30855WAT      O92806   5.677   1.978   9.890
30855WAT     H192807   5.609   1.978   9.816
30855WAT     H292808   5.691   1.884   9.921
30856WAT      O92809   0.708   0.600   1.097
30856WAT     H192810   0.759   0.575   1.179
30856WAT     H292811   0.613   0.619   1.122
30857WAT      O92812   7.235   5.616   6.030
30857WAT     H192813   7.264   5.566   6.111
30857WAT     H292814   7.201   5.707   6.056
30858WAT      O92815   7.301   6.204   5.616
30858WAT     H192816   7.383   6.148   5.602
30858WAT     H292817   7.306   6.285   5.558
30859WAT      O92818   8.502   1.157   9.650
30859WAT     H192819   8.428   1.217   9.682
30859WAT     H292820   8.478   1.062   9.669
30860WAT      O92821   4.299   0.602   6.430
30860WAT     H192822   4.272   0.542   6.355
30860WAT     H292823   4.391   0.636   6.414
30861WAT      O92824   7.929   5.092   9.290
30861WAT     H192825   7.965   5.132   9.206
30861WAT     H292826   7.995   5.104   9.364
30862WAT      O92827   6.723   8.521   4.536
30862WAT     H192828   6.715   8.455   4.462
30862WAT     H292829   6.713   8.473   4.624
30863WAT      O92830   7.647   1.320   6.164
30863WAT     H192831   7.683   1.346   6.253
30863WAT     H292832   7.548   1.333   6.162
30864WAT      O92833   5.044   0.297   7.274
30864WAT     H192834   5.086   0.284   7.184
30864WAT     H292835   5.060   0.390   7.305
30865WAT      O92836   7.154   3.750   8.495
30865WAT     H192837   7.159   3.687   8.417
30865WAT     H292838   7.157   3.698   8.580
30866WAT      O92839   0.019   6.165   8.503
30866WAT     H192840   0.030   6.249   8.556
30866WAT     H292841   0.003   6.088   8.564
30867WAT      O92842   6.053   7.099   1.278
30867WAT     H192843   6.072   7.191   1.314
30867WAT     H292844   6.002   7.047   1.347
30868WAT      O92845   6.999   2.479   2.306
30868WAT     H192846   6.939   2.411   2.350
30868WAT     H292847   7.069   2.432   2.253
30869WAT      O92848   3.815   4.036   3.800
30869WAT     H192849   3.825   4.014   3.897
30869WAT     H292850   3.721   4.064   3.782
30870WAT      O92851   1.086   0.613   8.804
30870WAT     H192852   1.056   0.567   8.887
30870WAT     H292853   1.128   0.701   8.828
30871WAT      O92854   2.847   6.246   2.723
30871WAT     H192855   2.900   6.330   2.733
30871WAT     H292856   2.900   6.179   2.671
30872WAT      O92857   3.767   0.775   8.067
30872WAT     H192858   3.783   0.705   8.137
30872WAT     H292859   3.730   0.733   7.985
30873WAT      O92860   1.267   0.274   5.358
30873WAT     H192861   1.177   0.250   5.322
30873WAT     H292862   1.293   0.207   5.428
30874WAT      O92863   0.711   9.171   2.666
30874WAT     H192864   0.691   9.091   2.723
30874WAT     H292865   0.808   9.173   2.644
30875WAT      O92866   4.340   3.390   3.402
30875WAT     H192867   4.438   3.388   3.419
30875WAT     H292868   4.292   3.413   3.486
30876WAT      O92869   8.734   9.371   5.534
30876WAT     H192870   8.766   9.394   5.442
30876WAT     H292871   8.795   9.302   5.574
30877WAT      O92872   3.501   7.974   6.055
30877WAT     H192873   3.563   8.048   6.031
30877WAT     H292874   3.553   7.898   6.094
30878WAT      O92875   6.164   4.954   9.720
30878WAT     H192876   6.248   4.931   9.671
30878WAT     H292877   6.087   4.908   9.677
30879WAT      O92878   2.092   2.561   0.212
30879WAT     H192879   2.004   2.529   0.246
30879WAT     H292880   2.113   2.515   0.126
30880WAT      O92881   1.307   7.139   9.796
30880WAT     H192882   1.255   7.054   9.796
30880WAT     H292883   1.400   7.122   9.827
30881WAT      O92884   6.856   7.232   2.357
30881WAT     H192885   6.835   7.138   2.384
30881WAT     H292886   6.806   7.295   2.416
30882WAT      O92887   0.129   4.486   9.292
30882WAT     H192888   0.119   4.541   9.209
30882WAT     H292889   0.213   4.512   9.339
30883WAT      O92890   1.423   1.102   5.834
30883WAT     H192891   1.469   1.190   5.843
30883WAT     H292892   1.326   1.113   5.851
30884WAT      O92893   8.622   9.482   7.569
30884WAT     H192894   8.580   9.397   7.600
30884WAT     H292895   8.695   9.462   7.503
30885WAT      O92896   8.186   5.226   4.498
30885WAT     H192897   8.115   5.164   4.531
30885WAT     H292898   8.144   5.302   4.448
30886WAT      O92899   0.991   9.411   7.369
30886WAT     H192900   1.044   9.420   7.285
30886WAT     H292901   0.918   9.480   7.370
30887WAT      O92902   7.347   2.863   5.584
30887WAT     H192903   7.294   2.919   5.647
30887WAT     H292904   7.409   2.804   5.636
30888WAT      O92905   7.664   5.281   2.865
30888WAT     H192906   7.631   5.372   2.837
30888WAT     H292907   7.586   5.226   2.895
30889WAT      O92908   3.293   7.932   7.024
30889WAT     H192909   3.274   7.930   7.123
30889WAT     H292910   3.328   7.843   6.996
30890WAT      O92911   4.555   5.894   9.263
30890WAT     H192912   4.533   5.842   9.345
30890WAT     H292913   4.636   5.950   9.280
30891WAT      O92914   0.742   2.821   5.886
30891WAT     H192915   0.668   2.886   5.867
30891WAT     H292916   0.770   2.830   5.982
30892WAT      O92917   8.153   8.506   2.010
30892WAT     H192918   8.157   8.527   1.912
30892WAT     H292919   8.073   8.449   2.029
30893WAT      O92920   3.658   7.614   0.520
30893WAT     H192921   3.726   7.607   0.593
30893WAT     H292922   3.566   7.614   0.560
30894WAT      O92923   6.491   4.755   4.098
30894WAT     H192924   6.433   4.826   4.139
30894WAT     H292925   6.437   4.672   4.085
30895WAT      O92926   3.382   3.198   9.225
30895WAT     H192927   3.355   3.288   9.258
30895WAT     H292928   3.477   3.200   9.195
30896WAT      O92929   0.608   7.480   4.345
30896WAT     H192930   0.668   7.493   4.424
30896WAT     H292931   0.655   7.425   4.276
30897WAT      O92932   2.999   8.199   0.466
30897WAT     H192933   2.933   8.192   0.391
30897WAT     H292934   3.061   8.121   0.464
30898WAT      O92935   3.021   3.805   4.705
30898WAT     H192936   3.118   3.785   4.691
30898WAT     H292937   2.966   3.728   4.673
30899WAT      O92938   9.023   0.762   3.813
30899WAT     H192939   8.939   0.740   3.864
30899WAT     H292940   9.017   0.855   3.777
30900WAT      O92941   3.337   9.556   1.429
30900WAT     H192942   3.262   9.621   1.440
30900WAT     H292943   3.303   9.471   1.389
30901WAT      O92944   6.678   7.009   0.475
30901WAT     H192945   6.705   7.078   0.408
30901WAT     H292946   6.735   7.018   0.557
30902WAT      O92947   3.429   6.197   4.030
30902WAT     H192948   3.517   6.151   4.045
30902WAT     H292949   3.355   6.140   4.067
30903WAT      O92950   3.229   7.355   0.191
30903WAT     H192951   3.260   7.265   0.221
30903WAT     H292952   3.308   7.416   0.181
30904WAT      O92953   0.047   1.699   1.685
30904WAT     H192954   0.059   1.641   1.605
30904WAT     H292955   0.090   1.787   1.670
30905WAT      O92956   2.654   1.307   4.552
30905WAT     H192957   2.569   1.307   4.605
30905WAT     H292958   2.725   1.356   4.602
30906WAT      O92959   4.027   3.125   8.451
30906WAT     H192960   3.939   3.118   8.403
30906WAT     H292961   4.033   3.214   8.496
30907WAT      O92962   6.775   5.657   4.033
30907WAT     H192963   6.692   5.611   4.065
30907WAT     H292964   6.770   5.670   3.934
30908WAT      O92965   0.486   7.289   3.739
30908WAT     H192966   0.473   7.217   3.671
30908WAT     H292967   0.434   7.267   3.821
30909WAT      O92968   9.849   5.726   6.910
30909WAT     H192969   9.863   5.754   6.815
30909WAT     H292970   9.893   5.638   6.926
30910WAT      O92971   9.722   9.677   4.307
30910WAT     H192972   9.749   9.735   4.384
30910WAT     H292973   9.778   9.701   4.227
30911WAT      O92974   9.516   9.068   2.561
30911WAT     H192975   9.429   9.116   2.555
30911WAT     H292976   9.588   9.122   2.516
30912WAT      O92977   2.938   1.817   3.659
30912WAT     H192978   3.010   1.874   3.699
30912WAT     H292979   2.851   1.836   3.705
30913WAT      O92980   4.201   0.285   7.710
30913WAT     H192981   4.234   0.198   7.746
30913WAT     H292982   4.127   0.268   7.645
30914WAT      O92983   1.846   8.513   4.312
30914WAT     H192984   1.913   8.547   4.247
30914WAT     H292985   1.768   8.576   4.318
30915WAT      O92986   2.913   2.305   8.891
30915WAT     H192987   2.910   2.268   8.798
30915WAT     H292988   2.898   2.232   8.957
30916WAT      O92989   7.172   1.126   7.207
30916WAT     H192990   7.177   1.211   7.258
30916WAT     H292991   7.188   1.049   7.270
30917WAT      O92992   9.857   0.456   5.332
30917WAT     H192993   9.890   0.545   5.301
30917WAT     H292994   9.780   0.427   5.276
30918WAT      O92995   9.858   7.045   8.005
30918WAT     H192996   9.913   7.092   8.074
30918WAT     H292997   9.918   6.997   7.941
30919WAT      O92998   1.019   6.996   1.917
30919WAT     H192999   1.095   6.932   1.908
30919WAT     H293000   0.986   7.022   1.826
30920WAT      O93001   8.443   4.858   0.013
30920WAT     H193002   8.471   4.782   0.071
30920WAT     H293003   8.501   4.861  -0.068
30921WAT      O93004   0.134   5.459   6.926
30921WAT     H193005   0.213   5.463   6.865
30921WAT     H293006   0.163   5.433   7.018
30922WAT      O93007   0.468   1.160   4.876
30922WAT     H193008   0.512   1.100   4.809
30922WAT     H293009   0.512   1.250   4.875
30923WAT      O93010   9.885   7.269   5.369
30923WAT     H193011   9.942   7.194   5.402
30923WAT     H293012   9.789   7.242   5.373
30924WAT      O93013   5.714   1.844   8.564
30924WAT     H193014   5.792   1.904   8.544
30924WAT     H293015   5.669   1.820   8.478
30925WAT      O93016   9.408   2.303   0.256
30925WAT     H193017   9.359   2.244   0.320
30925WAT     H293018   9.497   2.263   0.236
30926WAT      O93019   6.546   0.279   1.668
30926WAT     H193020   6.626   0.279   1.729
30926WAT     H293021   6.502   0.368   1.671
30927WAT      O93022   1.835   5.712   4.081
30927WAT     H193023   1.866   5.618   4.095
30927WAT     H293024   1.869   5.746   3.993
30928WAT      O93025   8.611   5.895   8.378
30928WAT     H193026   8.698   5.912   8.331
30928WAT     H293027   8.537   5.894   8.311
30929WAT      O93028   8.607   8.494   8.922
30929WAT     H193029   8.642   8.409   8.962
30929WAT     H293030   8.508   8.485   8.907
30930WAT      O93031   0.146   8.982   8.004
30930WAT     H193032   0.209   9.026   7.940
30930WAT     H293033   0.153   8.883   7.996
30931WAT      O93034   3.427   7.243   2.422
30931WAT     H193035   3.433   7.145   2.441
30931WAT     H293036   3.497   7.269   2.356
30932WAT      O93037   4.414   7.191   6.511
30932WAT     H193038   4.511   7.213   6.513
30932WAT     H293039   4.370   7.239   6.435
30933WAT      O93040   2.219   1.931   6.877
30933WAT     H193041   2.165   1.847   6.883
30933WAT     H293042   2.310   1.915   6.914
30934WAT      O93043   3.698   7.890   4.049
30934WAT     H193044   3.611   7.934   4.026
30934WAT     H293045   3.765   7.959   4.076
30935WAT      O93046   2.230   9.486   3.227
30935WAT     H193047   2.175   9.406   3.204
30935WAT     H293048   2.175   9.551   3.279
30936WAT      O93049   0.296   5.378   1.820
30936WAT     H193050   0.281   5.462   1.872
30936WAT     H293051   0.297   5.300   1.882
30937WAT      O93052   1.673   1.776   1.271
30937WAT     H193053   1.669   1.791   1.173
30937WAT     H293054   1.675   1.678   1.290
30938WAT      O93055   5.412   9.259   6.094
30938WAT     H193056   5.337   9.230   6.154
30938WAT     H293057   5.403   9.357   6.074
30939WAT      O93058   7.611   8.654   3.760
30939WAT     H193059   7.624   8.555   3.763
30939WAT     H293060   7.522   8.675   3.720
30940WAT      O93061   8.659   9.604   3.075
30940WAT     H193062   8.689   9.668   3.146
30940WAT     H293063   8.669   9.510   3.108
30941WAT      O93064   1.162   6.146   2.337
30941WAT     H193065   1.233   6.153   2.407
30941WAT     H293066   1.090   6.213   2.354
30942WAT      O93067   0.448   4.307   4.068
30942WAT     H193068   0.478   4.390   4.022
30942WAT     H293069   0.365   4.327   4.121
30943WAT      O93070   5.605   9.477   1.197
30943WAT     H193071   5.623   9.449   1.103
30943WAT     H293072   5.689   9.511   1.239
30944WAT      O93073   2.543   2.095   6.617
30944WAT     H193074   2.596   2.114   6.534
30944WAT     H293075   2.572   2.008   6.655
30945WAT      O93076   0.597   5.089   3.906
30945WAT     H193077   0.512   5.036   3.918
30945WAT     H293078   0.672   5.026   3.884
30946WAT      O93079   6.537   4.895   0.109
30946WAT     H193080   6.474   4.839   0.163
30946WAT     H293081   6.499   4.986   0.096
30947WAT      O93082   9.545   6.533   6.132
30947WAT     H193083   9.466   6.548   6.191
30947WAT     H293084   9.574   6.438   6.139
30948WAT      O93085   5.781   7.020   9.386
30948WAT     H193086   5.741   7.075   9.460
30948WAT     H293087   5.712   6.957   9.351
30949WAT      O93088   3.560   1.755   9.506
30949WAT     H193089   3.537   1.704   9.589
30949WAT     H293090   3.525   1.848   9.513
30950WAT      O93091   9.462   3.505   4.719
30950WAT     H193092   9.519   3.432   4.681
30950WAT     H293093   9.520   3.571   4.767
30951WAT      O93094   4.946   6.907   8.637
30951WAT     H193095   4.998   6.827   8.666
30951WAT     H293096   5.004   6.988   8.644
30952WAT      O93097   4.292   2.698   8.175
30952WAT     H193098   4.354   2.741   8.110
30952WAT     H293099   4.257   2.613   8.136
30953WAT      O93100   8.729   1.726   6.126
30953WAT     H193101   8.714   1.732   6.224
30953WAT     H293102   8.641   1.729   6.078
30954WAT      O93103   3.247   4.294   0.384
30954WAT     H193104   3.324   4.305   0.447
30954WAT     H293105   3.188   4.221   0.417
30955WAT      O93106   3.128   0.341   3.100
30955WAT     H193107   3.209   0.306   3.053
30955WAT     H293108   3.108   0.285   3.180
30956WAT      O93109   5.457   8.351   0.907
30956WAT     H193110   5.442   8.305   0.995
30956WAT     H293111   5.511   8.434   0.922
30957WAT      O93112   3.592   6.819   3.825
30957WAT     H193113   3.552   6.879   3.895
30957WAT     H293114   3.620   6.733   3.867
30958WAT      O93115   9.082   6.412   4.251
30958WAT     H193116   9.173   6.433   4.287
30958WAT     H293117   9.091   6.348   4.175
30959WAT      O93118   0.576   9.692   3.423
30959WAT     H193119   0.568   9.791   3.436
30959WAT     H293120   0.521   9.664   3.345
30960WAT      O93121   5.344   5.866   1.017
30960WAT     H193122   5.424   5.910   0.976
30960WAT     H293123   5.312   5.921   1.094
30961WAT      O93124   8.460   4.844   3.573
30961WAT     H193125   8.478   4.902   3.652
30961WAT     H293126   8.433   4.753   3.602
30962WAT      O93127   4.572   6.524   0.230
30962WAT     H193128   4.596   6.504   0.135
30962WAT     H293129   4.651   6.508   0.289
30963WAT      O93130   4.882   7.119   8.085
30963WAT     H193131   4.883   7.117   7.985
30963WAT     H293132   4.793   7.089   8.119
30964WAT      O93133   3.628   9.260   3.506
30964WAT     H193134   3.644   9.164   3.526
30964WAT     H293135   3.596   9.306   3.589
30965WAT      O93136   4.229   3.881   6.580
30965WAT     H193137   4.183   3.948   6.521
30965WAT     H293138   4.328   3.895   6.577
30966WAT      O93139   1.134   9.069   6.469
30966WAT     H193140   1.048   9.048   6.423
30966WAT     H293141   1.186   9.134   6.414
30967WAT      O93142   0.154   8.834   8.679
30967WAT     H193143   0.067   8.800   8.714
30967WAT     H293144   0.191   8.769   8.613
30968WAT      O93145   3.138   7.056   6.234
30968WAT     H193146   3.128   6.965   6.195
30968WAT     H293147   3.223   7.060   6.288
30969WAT      O93148   3.888   7.923   6.271
30969WAT     H193149   3.797   7.884   6.257
30969WAT     H293150   3.905   7.995   6.203
30970WAT      O93151   2.684   6.486   1.987
30970WAT     H193152   2.593   6.514   1.956
30970WAT     H293153   2.750   6.503   1.915
30971WAT      O93154   9.115   1.162   5.145
30971WAT     H193155   9.114   1.125   5.238
30971WAT     H293156   9.207   1.195   5.124
30972WAT      O93157   7.710   1.229   5.421
30972WAT     H193158   7.754   1.141   5.403
30972WAT     H293159   7.616   1.215   5.449
30973WAT      O93160   2.917   1.272   7.791
30973WAT     H193161   2.947   1.364   7.765
30973WAT     H293162   2.944   1.255   7.886
30974WAT      O93163   2.614   2.551   2.809
30974WAT     H193164   2.516   2.552   2.829
30974WAT     H293165   2.660   2.621   2.864
30975WAT      O93166   8.109   8.452   9.248
30975WAT     H193167   8.024   8.407   9.223
30975WAT     H293168   8.104   8.549   9.224
30976WAT      O93169   6.535   8.646   7.481
30976WAT     H193170   6.580   8.617   7.565
30976WAT     H293171   6.600   8.694   7.422
30977WAT      O93172   8.679   5.796   1.329
30977WAT     H193173   8.602   5.762   1.276
30977WAT     H293174   8.750   5.830   1.268
30978WAT      O93175   0.301   8.085   0.261
30978WAT     H193176   0.326   8.173   0.219
30978WAT     H293177   0.268   8.101   0.354
30979WAT      O93178   8.322   1.196   6.408
30979WAT     H193179   8.253   1.154   6.349
30979WAT     H293180   8.391   1.243   6.351
30980WAT      O93181   0.008   8.077   2.921
30980WAT     H193182  -0.088   8.097   2.941
30980WAT     H293183   0.067   8.127   2.984
30981WAT      O93184   4.513   6.626   5.341
30981WAT     H193185   4.533   6.670   5.254
30981WAT     H293186   4.416   6.600   5.343
30982WAT      O93187   4.226   8.571   2.797
30982WAT     H193188   4.212   8.506   2.722
30982WAT     H293189   4.142   8.624   2.811
30983WAT      O93190   0.943   7.494   7.079
30983WAT     H193191   0.980   7.490   6.986
30983WAT     H293192   0.914   7.588   7.099
30984WAT      O93193   5.551   5.563   7.283
30984WAT     H193194   5.474   5.612   7.323
30984WAT     H293195   5.612   5.532   7.356
30985WAT      O93196   7.735   2.663   6.043
30985WAT     H193197   7.825   2.630   6.013
30985WAT     H293198   7.678   2.585   6.069
30986WAT      O93199   7.184   0.731   2.718
30986WAT     H193200   7.161   0.634   2.730
30986WAT     H293201   7.210   0.770   2.806
30987WAT      O93202   5.469   1.435   8.701
30987WAT     H193203   5.451   1.352   8.755
30987WAT     H293204   5.424   1.513   8.745
30988WAT      O93205   1.888   8.318   3.941
30988WAT     H193206   1.869   8.411   3.910
30988WAT     H293207   1.985   8.298   3.927
30989WAT      O93208   6.533   4.609   6.260
30989WAT     H193209   6.511   4.558   6.177
30989WAT     H293210   6.473   4.689   6.267
30990WAT      O93211   6.372   8.236   3.282
30990WAT     H193212   6.332   8.226   3.191
30990WAT     H293213   6.390   8.333   3.300
30991WAT      O93214   5.038   1.643   1.566
30991WAT     H193215   5.103   1.670   1.495
30991WAT     H293216   5.064   1.553   1.602
30992WAT      O93217   5.374   2.788   2.534
30992WAT     H193218   5.371   2.700   2.581
30992WAT     H293219   5.449   2.843   2.571
30993WAT      O93220   1.068   0.788   4.649
30993WAT     H193221   1.160   0.824   4.666
30993WAT     H293222   1.015   0.790   4.733
30994WAT      O93223   1.244   3.457   7.422
30994WAT     H193224   1.191   3.420   7.345
30994WAT     H293225   1.197   3.437   7.507
30995WAT      O93226   6.235   5.422   6.537
30995WAT     H193227   6.318   5.441   6.484
30995WAT     H293228   6.201   5.331   6.513
30996WAT      O93229   1.769   6.042   9.000
30996WAT     H193230   1.826   6.090   8.934
30996WAT     H293231   1.677   6.081   8.999
30997WAT      O93232   5.386   6.704   0.129
30997WAT     H193233   5.320   6.763   0.176
30997WAT     H293234   5.479   6.734   0.149
30998WAT      O93235   9.232   8.642   2.596
30998WAT     H193236   9.283   8.668   2.678
30998WAT     H293237   9.230   8.542   2.587
30999WAT      O93238   3.512   9.535   0.338
30999WAT     H193239   3.445   9.599   0.302
30999WAT     H293240   3.466   9.462   0.389
31000WAT      O93241   8.664   1.071   7.803
31000WAT     H193242   8.718   0.989   7.818
31000WAT     H293243   8.709   1.130   7.736
31001WAT      O93244   6.340   3.342   1.850
31001WAT     H193245   6.255   3.301   1.816
31001WAT     H293246   6.410   3.335   1.780
31002WAT      O93247   3.360   2.955   7.129
31002WAT     H193248   3.354   2.881   7.195
31002WAT     H293249   3.456   2.978   7.112
31003WAT      O93250   9.577   4.777   1.493
31003WAT     H193251   9.547   4.850   1.432
31003WAT     H293252   9.526   4.693   1.472
31004WAT      O93253   4.950   0.687   3.300
31004WAT     H193254   5.047   0.712   3.307
31004WAT     H293255   4.894   0.769   3.311
31005WAT      O93256   7.103   0.997   9.821
31005WAT     H193257   7.088   0.923   9.887
31005WAT     H293258   7.198   1.030   9.828
31006WAT      O93259   6.211   2.009   8.227
31006WAT     H193260   6.277   1.935   8.216
31006WAT     H293261   6.122   1.972   8.252
31007WAT      O93262   3.736   9.329   6.125
31007WAT     H193263   3.683   9.254   6.085
31007WAT     H293264   3.741   9.405   6.060
31008WAT      O93265   9.656   5.898   5.212
31008WAT     H193266   9.730   5.957   5.243
31008WAT     H293267   9.635   5.918   5.116
31009WAT      O93268   1.064   2.661   0.639
31009WAT     H193269   1.098   2.567   0.652
31009WAT     H293270   0.973   2.657   0.597
31010WAT      O93271   2.323   4.263   0.763
31010WAT     H193272   2.263   4.341   0.782
31010WAT     H293273   2.307   4.191   0.830
31011WAT      O93274   7.804   7.871   5.532
31011WAT     H193275   7.742   7.810   5.483
31011WAT     H293276   7.800   7.852   5.630
31012WAT      O93277   4.587   2.980   4.572
31012WAT     H193278   4.571   2.957   4.476
31012WAT     H293279   4.517   2.936   4.629
31013WAT      O93280   6.830   8.505   4.906
31013WAT     H193281   6.907   8.560   4.938
31013WAT     H293282   6.763   8.565   4.862
31014WAT      O93283   8.175   8.268   0.253
31014WAT     H193284   8.168   8.175   0.217
31014WAT     H293285   8.121   8.330   0.196
31015WAT      O93286   3.698   6.533   6.176
31015WAT     H193287   3.769   6.598   6.148
31015WAT     H293288   3.626   6.581   6.226
31016WAT      O93289   5.809   6.402   5.608
31016WAT     H193290   5.860   6.322   5.638
31016WAT     H293291   5.848   6.484   5.649
31017WAT      O93292   3.751   3.289   5.775
31017WAT     H193293   3.775   3.194   5.757
31017WAT     H293294   3.766   3.343   5.692
31018WAT      O93295   0.811   3.719   7.182
31018WAT     H193296   0.793   3.776   7.102
31018WAT     H293297   0.905   3.683   7.176
31019WAT      O93298   4.618   0.979   2.701
31019WAT     H193299   4.607   0.911   2.773
31019WAT     H293300   4.679   0.944   2.630
31020WAT      O93301   6.459   2.781   3.845
31020WAT     H193302   6.394   2.753   3.916
31020WAT     H293303   6.502   2.868   3.871
31021WAT      O93304   2.047   9.675   6.944
31021WAT     H193305   1.987   9.614   6.995
31021WAT     H293306   2.138   9.634   6.936
31022WAT      O93307   0.612   6.087   0.518
31022WAT     H193308   0.622   6.186   0.519
31022WAT     H293309   0.674   6.048   0.449
31023WAT      O93310   0.639   0.866   3.841
31023WAT     H193311   0.708   0.915   3.787
31023WAT     H293312   0.549   0.907   3.824
31024WAT      O93313   2.355   7.808   5.837
31024WAT     H193314   2.435   7.833   5.892
31024WAT     H293315   2.293   7.885   5.830
31025WAT      O93316   6.733   3.716   0.940
31025WAT     H193317   6.665   3.788   0.929
31025WAT     H293318   6.808   3.749   0.997
31026WAT      O93319   8.672   6.021   4.723
31026WAT     H193320   8.676   6.016   4.822
31026WAT     H293321   8.699   5.933   4.684
31027WAT      O93322   9.385   6.245   6.987
31027WAT     H193323   9.459   6.298   7.029
31027WAT     H293324   9.424   6.180   6.922
31028WAT      O93325   2.249   5.408   8.363
31028WAT     H193326   2.242   5.399   8.463
31028WAT     H293327   2.256   5.317   8.322
31029WAT      O93328   1.268   8.549   9.497
31029WAT     H193329   1.272   8.567   9.399
31029WAT     H293330   1.267   8.450   9.512
31030WAT      O93331   1.411   2.645   8.265
31030WAT     H193332   1.327   2.678   8.307
31030WAT     H293333   1.480   2.718   8.264
31031WAT      O93334   8.528   4.079   7.224
31031WAT     H193335   8.433   4.049   7.212
31031WAT     H293336   8.573   4.085   7.135
31032WAT      O93337   2.113   1.678   8.876
31032WAT     H193338   2.190   1.728   8.836
31032WAT     H293339   2.134   1.580   8.878
31033WAT      O93340   4.593   0.326   0.284
31033WAT     H193341   4.615   0.320   0.186
31033WAT     H293342   4.585   0.233   0.322
31034WAT      O93343   5.004   2.693   8.634
31034WAT     H193344   5.011   2.733   8.543
31034WAT     H293345   5.074   2.732   8.693
31035WAT      O93346   2.252   4.110   0.980
31035WAT     H193347   2.157   4.125   1.009
31035WAT     H293348   2.314   4.130   1.056
31036WAT      O93349   9.715   5.151   4.192
31036WAT     H193350   9.704   5.245   4.223
31036WAT     H293351   9.808   5.120   4.209
31037WAT      O93352   7.879   8.911   5.761
31037WAT     H193353   7.790   8.871   5.785
31037WAT     H293354   7.916   8.862   5.682
31038WAT      O93355   1.872   8.005   7.330
31038WAT     H193356   1.820   8.090   7.318
31038WAT     H293357   1.925   8.010   7.414
31039WAT      O93358   5.127   8.703   2.441
31039WAT     H193359   5.185   8.634   2.398
31039WAT     H293360   5.120   8.782   2.380
31040WAT      O93361   0.131   1.645   7.009
31040WAT     H193362   0.127   1.672   6.913
31040WAT     H293363   0.101   1.721   7.067
31041WAT      O93364   6.789   8.825   8.293
31041WAT     H193365   6.874   8.783   8.260
31041WAT     H293366   6.802   8.859   8.386
31042WAT      O93367   6.286   1.052   7.036
31042WAT     H193368   6.233   1.124   6.993
31042WAT     H293369   6.311   0.983   6.967
31043WAT      O93370   1.133   7.167   2.543
31043WAT     H193371   1.050   7.121   2.511
31043WAT     H293372   1.212   7.133   2.492
31044WAT      O93373   5.752   9.712   3.159
31044WAT     H193374   5.793   9.714   3.068
31044WAT     H293375   5.653   9.706   3.151
31045WAT      O93376   6.848   4.689   8.802
31045WAT     H193377   6.871   4.701   8.898
31045WAT     H293378   6.795   4.767   8.770
31046WAT      O93379   1.730   2.414   1.352
31046WAT     H193380   1.802   2.482   1.372
31046WAT     H293381   1.689   2.383   1.438
31047WAT      O93382   8.998   9.546   8.813
31047WAT     H193383   9.008   9.464   8.870
31047WAT     H293384   8.902   9.555   8.786
31048WAT      O93385   4.317   0.246   2.983
31048WAT     H193386   4.348   0.206   3.069
31048WAT     H293387   4.385   0.227   2.911
31049WAT      O93388   3.992   4.678   7.077
31049WAT     H193389   4.039   4.649   7.160
31049WAT     H293390   4.058   4.719   7.014
31050WAT      O93391   9.474   0.307   3.100
31050WAT     H193392   9.525   0.287   3.016
31050WAT     H293393   9.460   0.406   3.108
31051WAT      O93394   8.802   3.128   2.025
31051WAT     H193395   8.868   3.175   2.083
31051WAT     H293396   8.743   3.195   1.980
31052WAT      O93397   3.450   8.108   0.552
31052WAT     H193398   3.485   8.201   0.547
31052WAT     H293399   3.524   8.043   0.530
31053WAT      O93400   4.239   8.779   4.057
31053WAT     H193401   4.223   8.699   4.114
31053WAT     H293402   4.153   8.829   4.044
31054WAT      O93403   0.915   9.554   4.674
31054WAT     H193404   0.910   9.554   4.774
31054WAT     H293405   0.843   9.496   4.637
31055WAT      O93406   2.324   4.699   1.463
31055WAT     H193407   2.304   4.796   1.478
31055WAT     H293408   2.247   4.655   1.417
31056WAT      O93409   7.364   2.772   4.393
31056WAT     H193410   7.302   2.745   4.319
31056WAT     H293411   7.329   2.740   4.481
31057WAT      O93412   3.945   6.132   9.719
31057WAT     H193413   4.040   6.108   9.739
31057WAT     H293414   3.940   6.174   9.629
31058WAT      O93415   6.342   2.262   4.483
31058WAT     H193416   6.394   2.221   4.408
31058WAT     H293417   6.305   2.189   4.541
31059WAT      O93418   2.941   3.379   8.241
31059WAT     H193419   2.930   3.397   8.143
31059WAT     H293420   2.858   3.337   8.277
31060WAT      O93421   9.287   5.380   2.911
31060WAT     H193422   9.246   5.340   2.993
31060WAT     H293423   9.312   5.475   2.929
31061WAT      O93424   4.258   3.571   6.149
31061WAT     H193425   4.225   3.664   6.164
31061WAT     H293426   4.271   3.554   6.051
31062WAT      O93427   4.514   2.908   8.603
31062WAT     H193428   4.533   2.952   8.691
31062WAT     H293429   4.458   2.968   8.546
31063WAT      O93430   1.570   0.777   3.380
31063WAT     H193431   1.507   0.854   3.384
31063WAT     H293432   1.612   0.764   3.470
31064WAT      O93433   0.822   7.410   2.889
31064WAT     H193434   0.788   7.337   2.949
31064WAT     H293435   0.900   7.456   2.933
31065WAT      O93436   9.516   0.004   0.754
31065WAT     H193437   9.467  -0.051   0.686
31065WAT     H293438   9.488   0.100   0.746
31066WAT      O93439   9.595   4.376   1.643
31066WAT     H193440   9.631   4.451   1.699
31066WAT     H293441   9.500   4.359   1.668
31067WAT      O93442   3.065   5.870   1.897
31067WAT     H193443   3.067   5.778   1.860
31067WAT     H293444   3.151   5.917   1.874
31068WAT      O93445   7.305   3.968   1.312
31068WAT     H193446   7.356   3.967   1.398
31068WAT     H293447   7.323   3.883   1.262
31069WAT      O93448   2.575   3.953   8.979
31069WAT     H193449   2.645   3.887   8.954
31069WAT     H293450   2.484   3.912   8.967
31070WAT      O93451   8.194   3.775   1.977
31070WAT     H193452   8.157   3.827   2.054
31070WAT     H293453   8.262   3.709   2.010
31071WAT      O93454   2.585   6.571   5.179
31071WAT     H193455   2.601   6.636   5.105
31071WAT     H293456   2.628   6.604   5.262
31072WAT      O93457   6.502   3.914   4.518
31072WAT     H193458   6.465   3.862   4.441
31072WAT     H293459   6.494   4.012   4.498
31073WAT      O93460   2.205   7.668   9.660
31073WAT     H193461   2.110   7.697   9.661
31073WAT     H293462   2.211   7.571   9.685
31074WAT      O93463   5.601   2.116   2.196
31074WAT     H193464   5.649   2.045   2.247
31074WAT     H293465   5.507   2.124   2.230
31075WAT      O93466   9.145   2.925   7.174
31075WAT     H193467   9.204   2.873   7.112
31075WAT     H293468   9.184   3.016   7.187
31076WAT      O93469   6.069   5.561   1.612
31076WAT     H193470   6.045   5.651   1.649
31076WAT     H293471   6.106   5.571   1.520
31077WAT      O93472   5.335   7.303   3.680
31077WAT     H193473   5.270   7.266   3.747
31077WAT     H293474   5.377   7.228   3.629
31078WAT      O93475   6.118   8.423   6.976
31078WAT     H193476   6.124   8.342   7.035
31078WAT     H293477   6.112   8.395   6.881
31079WAT      O93478   7.638   1.916   4.013
31079WAT     H193479   7.673   1.883   3.925
31079WAT     H293480   7.548   1.878   4.029
31080WAT      O93481   8.648   3.831   1.382
31080WAT     H193482   8.703   3.832   1.299
31080WAT     H293483   8.639   3.737   1.415
31081WAT      O93484   0.322   2.838   3.047
31081WAT     H193485   0.322   2.745   3.011
31081WAT     H293486   0.344   2.902   2.972
31082WAT      O93487   2.814   5.624   1.222
31082WAT     H193488   2.725   5.638   1.178
31082WAT     H293489   2.850   5.535   1.195
31083WAT      O93490   8.670   2.861   4.740
31083WAT     H193491   8.643   2.865   4.836
31083WAT     H293492   8.624   2.934   4.689
31084WAT      O93493   4.550   7.015   0.394
31084WAT     H193494   4.589   6.947   0.333
31084WAT     H293495   4.576   7.107   0.364
31085WAT      O93496   9.351   9.761   3.299
31085WAT     H193497   9.362   9.761   3.399
31085WAT     H293498   9.343   9.855   3.267
31086WAT      O93499   4.009   7.648   7.049
31086WAT     H193500   3.966   7.618   7.135
31086WAT     H293501   4.103   7.679   7.068
31087WAT      O93502   0.658   5.587   4.903
31087WAT     H193503   0.753   5.555   4.900
31087WAT     H293504   0.634   5.628   4.815
31088WAT      O93505   4.014   7.042   3.064
31088WAT     H193506   4.070   6.962   3.082
31088WAT     H293507   3.919   7.024   3.091
31089WAT      O93508   3.731   4.065   1.452
31089WAT     H193509   3.732   4.099   1.358
31089WAT     H293510   3.814   4.012   1.469
31090WAT      O93511   6.310   6.677   9.363
31090WAT     H193512   6.259   6.763   9.361
31090WAT     H293513   6.382   6.679   9.294
31091WAT      O93514   3.221   5.503   5.403
31091WAT     H193515   3.168   5.583   5.429
31091WAT     H293516   3.287   5.481   5.475
31092WAT      O93517   9.393   4.091   2.483
31092WAT     H193518   9.308   4.081   2.534
31092WAT     H293519   9.437   4.178   2.507
31093WAT      O93520   9.196   0.437   8.021
31093WAT     H193521   9.110   0.459   8.066
31093WAT     H293522   9.177   0.392   7.933
31094WAT      O93523   6.307   1.962   7.755
31094WAT     H193524   6.312   2.058   7.728
31094WAT     H293525   6.247   1.953   7.835
31095WAT      O93526   1.458   5.980   1.570
31095WAT     H193527   1.466   5.927   1.654
31095WAT     H293528   1.414   5.924   1.500
31096WAT      O93529   5.365   1.571   9.038
31096WAT     H193530   5.321   1.481   9.044
31096WAT     H293531   5.444   1.565   8.977
31097WAT      O93532   3.724   4.556   2.799
31097WAT     H193533   3.656   4.529   2.868
31097WAT     H293534   3.739   4.480   2.736
31098WAT      O93535   9.246   9.362   5.023
31098WAT     H193536   9.319   9.311   5.069
31098WAT     H293537   9.239   9.453   5.062
31099WAT      O93538   7.847   0.826   3.163
31099WAT     H193539   7.887   0.795   3.249
31099WAT     H293540   7.876   0.764   3.089
31100WAT      O93541   0.429   0.041   3.247
31100WAT     H193542   0.373   0.010   3.324
31100WAT     H293543   0.435   0.141   3.249
31101WAT      O93544   1.649   7.803   6.869
31101WAT     H193545   1.634   7.865   6.792
31101WAT     H293546   1.737   7.756   6.859
31102WAT      O93547   8.305   6.832   1.340
31102WAT     H193548   8.379   6.765   1.348
31102WAT     H293549   8.244   6.804   1.265
31103WAT      O93550   5.336   8.573   7.996
31103WAT     H193551   5.303   8.645   8.057
31103WAT     H293552   5.259   8.532   7.947
31104WAT      O93553   1.961   8.297   4.414
31104WAT     H193554   2.012   8.239   4.350
31104WAT     H293555   1.917   8.371   4.364
31105WAT      O93556   6.241   2.112   0.168
31105WAT     H193557   6.204   2.161   0.246
31105WAT     H293558   6.184   2.129   0.088
31106WAT      O93559   8.379   0.701   4.909
31106WAT     H193560   8.474   0.684   4.932
31106WAT     H293561   8.332   0.743   4.986
31107WAT      O93562   5.649   3.737   9.674
31107WAT     H193563   5.611   3.723   9.582
31107WAT     H293564   5.744   3.705   9.676
31108WAT      O93565   2.278   1.683   1.822
31108WAT     H193566   2.245   1.634   1.902
31108WAT     H293567   2.205   1.690   1.754
31109WAT      O93568   5.178   4.370   6.088
31109WAT     H193569   5.131   4.340   6.171
31109WAT     H293570   5.113   4.420   6.030
31110WAT      O93571   1.048   6.292   1.934
31110WAT     H193572   0.953   6.318   1.919
31110WAT     H293573   1.101   6.372   1.959
31111WAT      O93574   7.898   5.646   8.443
31111WAT     H193575   7.802   5.624   8.459
31111WAT     H293576   7.950   5.561   8.430
31112WAT      O93577   8.102   2.545   1.308
31112WAT     H193578   8.105   2.447   1.327
31112WAT     H293579   8.169   2.592   1.366
31113WAT      O93580   3.594   7.965   0.784
31113WAT     H193581   3.609   8.061   0.809
31113WAT     H293582   3.607   7.954   0.685
31114WAT      O93583   8.114   2.738   2.249
31114WAT     H193584   8.099   2.728   2.347
31114WAT     H293585   8.209   2.766   2.233
31115WAT      O93586   2.027   0.534   8.292
31115WAT     H193587   2.005   0.488   8.206
31115WAT     H293588   2.059   0.627   8.273
31116WAT      O93589   7.783   9.534   4.172
31116WAT     H193590   7.684   9.548   4.180
31116WAT     H293591   7.803   9.436   4.174
31117WAT      O93592   1.033   4.950   7.790
31117WAT     H193593   0.987   4.864   7.811
31117WAT     H293594   1.113   4.960   7.849
31118WAT      O93595   9.851   9.222   6.911
31118WAT     H193596   9.852   9.280   6.993
31118WAT     H293597   9.867   9.127   6.937
31119WAT      O93598   0.515   0.788   3.333
31119WAT     H193599   0.496   0.755   3.241
31119WAT     H293600   0.611   0.815   3.340
31120WAT      O93601   9.173   8.807   8.760
31120WAT     H193602   9.215   8.880   8.813
31120WAT     H293603   9.075   8.802   8.782
31121WAT      O93604   7.604   6.262   7.949
31121WAT     H193605   7.568   6.320   7.876
31121WAT     H293606   7.530   6.208   7.989
31122WAT      O93607   1.699   2.168   0.746
31122WAT     H193608   1.727   2.264   0.748
31122WAT     H293609   1.728   2.126   0.660
31123WAT      O93610   9.779   2.279   6.776
31123WAT     H193611   9.683   2.303   6.767
31123WAT     H293612   9.797   2.193   6.728
31124WAT      O93613   5.192   5.587   3.443
31124WAT     H193614   5.262   5.658   3.445
31124WAT     H293615   5.169   5.565   3.349
31125WAT      O93616   3.118   6.765   0.539
31125WAT     H193617   3.025   6.800   0.528
31125WAT     H293618   3.123   6.671   0.505
31126WAT      O93619   5.822   5.892   7.354
31126WAT     H193620   5.778   5.876   7.266
31126WAT     H293621   5.915   5.857   7.352
31127WAT      O93622   4.268   6.545   7.269
31127WAT     H193623   4.260   6.447   7.251
31127WAT     H293624   4.329   6.586   7.200
31128WAT      O93625   1.533   2.509   4.651
31128WAT     H193626   1.440   2.497   4.615
31128WAT     H293627   1.599   2.493   4.578
31129WAT      O93628   7.723   4.378   8.204
31129WAT     H193629   7.684   4.427   8.281
31129WAT     H293630   7.671   4.398   8.121
31130WAT      O93631   0.104   7.741   4.016
31130WAT     H193632   0.072   7.748   3.922
31130WAT     H293633   0.188   7.687   4.019
31131WAT      O93634   4.709   0.963   3.912
31131WAT     H193635   4.735   0.895   3.843
31131WAT     H293636   4.731   0.927   4.003
31132WAT      O93637   3.816   8.552   9.431
31132WAT     H193638   3.906   8.593   9.447
31132WAT     H293639   3.747   8.623   9.427
31133WAT      O93640   7.832   1.432   7.893
31133WAT     H193641   7.924   1.395   7.879
31133WAT     H293642   7.784   1.438   7.806
31134WAT      O93643   9.726   9.069   1.822
31134WAT     H193644   9.815   9.052   1.778
31134WAT     H293645   9.683   9.149   1.779
31135WAT      O93646   2.528   7.291   6.809
31135WAT     H193647   2.517   7.379   6.857
31135WAT     H293648   2.440   7.244   6.805
31136WAT      O93649   5.688   3.312   0.428
31136WAT     H193650   5.748   3.270   0.359
31136WAT     H293651   5.732   3.395   0.464
31137WAT      O93652   4.401   0.869   1.238
31137WAT     H193653   4.495   0.847   1.213
31137WAT     H293654   4.371   0.808   1.311
31138WAT      O93655   2.276   2.609   3.537
31138WAT     H193656   2.364   2.626   3.492
31138WAT     H293657   2.276   2.517   3.576
31139WAT      O93658   6.356   3.872   9.268
31139WAT     H193659   6.280   3.819   9.303
31139WAT     H293660   6.342   3.891   9.171
31140WAT      O93661   5.887   6.336   9.832
31140WAT     H193662   5.930   6.336   9.742
31140WAT     H293663   5.852   6.427   9.852
31141WAT      O93664   1.636   1.840   9.401
31141WAT     H193665   1.648   1.826   9.499
31141WAT     H293666   1.680   1.766   9.350
31142WAT      O93667   1.997   2.886   7.057
31142WAT     H193668   2.095   2.865   7.060
31142WAT     H293669   1.970   2.907   6.963
31143WAT      O93670   2.763   2.618   8.333
31143WAT     H193671   2.701   2.598   8.409
31143WAT     H293672   2.711   2.655   8.256
31144WAT      O93673   4.587   1.979   0.864
31144WAT     H193674   4.578   2.024   0.775
31144WAT     H293675   4.530   2.025   0.931
31145WAT      O93676   6.734   4.332   8.560
31145WAT     H193677   6.740   4.255   8.624
31145WAT     H293678   6.744   4.298   8.467
31146WAT      O93679   0.395   1.784   7.611
31146WAT     H193680   0.481   1.804   7.657
31146WAT     H293681   0.396   1.823   7.519
31147WAT      O93682   9.180   3.683   7.611
31147WAT     H193683   9.190   3.764   7.667
31147WAT     H293684   9.166   3.709   7.515
31148WAT      O93685   2.273   8.091   9.762
31148WAT     H193686   2.324   8.015   9.802
31148WAT     H293687   2.315   8.117   9.675
31149WAT      O93688   7.023   5.582   0.318
31149WAT     H193689   7.109   5.537   0.342
31149WAT     H293690   6.982   5.535   0.240
31150WAT      O93691   3.247   2.045   8.590
31150WAT     H193692   3.158   2.090   8.596
31150WAT     H293693   3.316   2.102   8.636
31151WAT      O93694   3.540   5.736   5.811
31151WAT     H193695   3.622   5.782   5.846
31151WAT     H293696   3.515   5.776   5.723
31152WAT      O93697   3.827   1.482   0.542
31152WAT     H193698   3.858   1.394   0.579
31152WAT     H293699   3.893   1.553   0.566
31153WAT      O93700   0.708   6.285   9.471
31153WAT     H193701   0.727   6.369   9.522
31153WAT     H293702   0.703   6.208   9.535
31154WAT      O93703   0.057   1.631   8.596
31154WAT     H193704   0.115   1.702   8.636
31154WAT     H293705   0.103   1.592   8.516
31155WAT      O93706   4.522   1.118   4.974
31155WAT     H193707   4.424   1.139   4.975
31155WAT     H293708   4.537   1.023   5.000
31156WAT      O93709   3.047   4.001   1.122
31156WAT     H193710   2.992   4.084   1.116
31156WAT     H293711   3.053   3.958   1.033
31157WAT      O93712   3.251   3.784   9.324
31157WAT     H193713   3.284   3.732   9.403
31157WAT     H293714   3.327   3.800   9.260
31158WAT      O93715   6.933   1.000   1.627
31158WAT     H193716   6.981   0.968   1.546
31158WAT     H293717   6.842   0.959   1.630
31159WAT      O93718   3.661   2.259   7.125
31159WAT     H193719   3.730   2.190   7.150
31159WAT     H293720   3.698   2.350   7.141
31160WAT      O93721   7.244   1.650   8.207
31160WAT     H193722   7.269   1.573   8.148
31160WAT     H293723   7.301   1.649   8.289
31161WAT      O93724   1.701   1.537   3.783
31161WAT     H193725   1.731   1.631   3.768
31161WAT     H293726   1.742   1.502   3.867
31162WAT      O93727   6.373   1.255   5.893
31162WAT     H193728   6.292   1.203   5.870
31162WAT     H293729   6.455   1.198   5.881
31163WAT      O93730   0.330   3.102   4.445
31163WAT     H193731   0.230   3.093   4.435
31163WAT     H293732   0.356   3.198   4.428
31164WAT      O93733   1.657   5.951   3.738
31164WAT     H193734   1.628   5.959   3.833
31164WAT     H293735   1.593   6.000   3.678
31165WAT      O93736   5.727   2.081   1.608
31165WAT     H193737   5.805   2.018   1.617
31165WAT     H293738   5.684   2.067   1.519
31166WAT      O93739   5.061   4.835   8.762
31166WAT     H193740   4.973   4.883   8.770
31166WAT     H293741   5.131   4.900   8.733
31167WAT      O93742   1.991   3.245   3.820
31167WAT     H193743   2.058   3.313   3.789
31167WAT     H293744   2.023   3.204   3.905
31168WAT      O93745   4.854   4.700   2.368
31168WAT     H193746   4.860   4.684   2.467
31168WAT     H293747   4.823   4.616   2.323
31169WAT      O93748   8.134   1.780   5.474
31169WAT     H193749   8.227   1.743   5.470
31169WAT     H293750   8.137   1.879   5.457
31170WAT      O93751   3.801   3.089   9.330
31170WAT     H193752   3.727   3.027   9.357
31170WAT     H293753   3.887   3.039   9.330
31171WAT      O93754   9.693   6.248   7.474
31171WAT     H193755   9.684   6.226   7.571
31171WAT     H293756   9.618   6.309   7.446
31172WAT      O93757   6.909   7.628   6.688
31172WAT     H193758   6.880   7.535   6.668
31172WAT     H293759   7.009   7.631   6.699
31173WAT      O93760   7.865   3.667   7.687
31173WAT     H193761   7.842   3.576   7.723
31173WAT     H293762   7.882   3.730   7.763
31174WAT      O93763   7.078   1.632   2.717
31174WAT     H193764   7.029   1.710   2.679
31174WAT     H293765   7.013   1.570   2.760
31175WAT      O93766   7.621   1.717   1.706
31175WAT     H193767   7.625   1.620   1.729
31175WAT     H293768   7.695   1.739   1.643
31176WAT      O93769   1.898   8.461   9.039
31176WAT     H193770   1.984   8.496   9.077
31176WAT     H293771   1.896   8.478   8.941
31177WAT      O93772   7.400   9.398   4.160
31177WAT     H193773   7.338   9.346   4.101
31177WAT     H293774   7.484   9.420   4.109
31178WAT      O93775   3.096   0.279   8.145
31178WAT     H193776   2.998   0.266   8.132
31178WAT     H293777   3.111   0.347   8.217
31179WAT      O93778   0.212   0.227   2.519
31179WAT     H193779   0.129   0.278   2.540
31179WAT     H293780   0.291   0.286   2.530
31180WAT      O93781   2.107   6.349   1.617
31180WAT     H193782   2.153   6.429   1.579
31180WAT     H293783   2.062   6.374   1.703
31181WAT      O93784   5.991   6.957   0.533
31181WAT     H193785   6.048   6.922   0.608
31181WAT     H293786   6.032   6.933   0.445
31182WAT      O93787   7.795   1.768   2.822
31182WAT     H193788   7.714   1.741   2.873
31182WAT     H293789   7.795   1.867   2.809
31183WAT      O93790   8.422   6.817   3.237
31183WAT     H193791   8.476   6.786   3.159
31183WAT     H293792   8.330   6.777   3.231
31184WAT      O93793   2.542   7.394   0.124
31184WAT     H193794   2.598   7.398   0.042
31184WAT     H293795   2.572   7.318   0.181
31185WAT      O93796   2.138   0.028   6.077
31185WAT     H193797   2.211  -0.038   6.060
31185WAT     H293798   2.175   0.105   6.129
31186WAT      O93799   0.315   4.847   0.898
31186WAT     H193800   0.260   4.852   0.814
31186WAT     H293801   0.361   4.934   0.913
31187WAT      O93802   7.620   2.384   6.685
31187WAT     H193803   7.521   2.380   6.700
31187WAT     H293804   7.650   2.299   6.642
31188WAT      O93805   6.698   2.346   4.776
31188WAT     H193806   6.700   2.272   4.709
31188WAT     H293807   6.723   2.310   4.866
31189WAT      O93808   1.456   4.945   4.022
31189WAT     H193809   1.443   5.033   4.067
31189WAT     H293810   1.368   4.901   4.007
31190WAT      O93811   5.175   4.574   3.368
31190WAT     H193812   5.239   4.621   3.307
31190WAT     H293813   5.226   4.515   3.431
31191WAT      O93814   4.098   2.742   5.208
31191WAT     H193815   4.049   2.655   5.198
31191WAT     H293816   4.038   2.809   5.252
31192WAT      O93817   2.234   2.513   1.268
31192WAT     H193818   2.157   2.574   1.249
31192WAT     H293819   2.201   2.430   1.312
31193WAT      O93820   0.454   1.190   6.707
31193WAT     H193821   0.360   1.212   6.734
31193WAT     H293822   0.503   1.275   6.685
31194WAT      O93823   0.302   6.348   2.458
31194WAT     H193824   0.362   6.403   2.400
31194WAT     H293825   0.312   6.377   2.553
31195WAT      O93826   3.197   8.245   5.921
31195WAT     H193827   3.138   8.249   5.840
31195WAT     H293828   3.158   8.301   5.994
31196WAT      O93829   1.048   4.510   7.309
31196WAT     H193830   1.147   4.520   7.294
31196WAT     H293831   1.007   4.464   7.230
31197WAT      O93832   2.599   3.912   6.713
31197WAT     H193833   2.577   3.914   6.811
31197WAT     H293834   2.514   3.919   6.660
31198WAT      O93835   9.323   7.939   9.859
31198WAT     H193836   9.370   7.955   9.946
31198WAT     H293837   9.228   7.968   9.868
31199WAT      O93838   9.165   6.705   1.095
31199WAT     H193839   9.067   6.724   1.092
31199WAT     H293840   9.214   6.773   1.041
31200WAT      O93841   3.183   3.038   0.589
31200WAT     H193842   3.272   3.011   0.551
31200WAT     H293843   3.118   3.053   0.514
31201WAT      O93844   9.847   8.688   8.378
31201WAT     H193845   9.788   8.737   8.442
31201WAT     H293846   9.858   8.594   8.408
31202WAT      O93847   8.812   5.340   4.131
31202WAT     H193848   8.768   5.255   4.161
31202WAT     H293849   8.758   5.418   4.163
31203WAT      O93850   4.107   4.763   1.329
31203WAT     H193851   4.055   4.838   1.287
31203WAT     H293852   4.160   4.716   1.259
31204WAT      O93853   9.712   3.660   6.831
31204WAT     H193854   9.794   3.717   6.820
31204WAT     H293855   9.631   3.714   6.806
31205WAT      O93856   5.236   8.668   9.429
31205WAT     H193857   5.144   8.677   9.390
31205WAT     H293858   5.274   8.579   9.405
31206WAT      O93859   6.900   1.324   9.227
31206WAT     H193860   6.956   1.265   9.170
31206WAT     H293861   6.854   1.393   9.171
31207WAT      O93862   2.259   7.006   1.189
31207WAT     H193863   2.230   6.946   1.115
31207WAT     H293864   2.181   7.059   1.223
31208WAT      O93865   0.032   0.317   3.321
31208WAT     H193866  -0.057   0.359   3.337
31208WAT     H293867   0.104   0.376   3.358
31209WAT      O93868   8.604   8.240   4.057
31209WAT     H193869   8.550   8.310   4.009
31209WAT     H293870   8.553   8.154   4.056
31210WAT      O93871   7.579   6.407   6.851
31210WAT     H193872   7.536   6.320   6.876
31210WAT     H293873   7.654   6.426   6.915
31211WAT      O93874   3.473   8.691   0.121
31211WAT     H193875   3.493   8.789   0.115
31211WAT     H293876   3.388   8.671   0.073
31212WAT      O93877   7.926   7.574   0.977
31212WAT     H193878   7.980   7.517   1.040
31212WAT     H293879   7.873   7.641   1.029
31213WAT      O93880   2.845   5.774   9.498
31213WAT     H193881   2.809   5.708   9.432
31213WAT     H293882   2.828   5.867   9.464
31214WAT      O93883   0.853   6.293   8.003
31214WAT     H193884   0.889   6.370   8.057
31214WAT     H293885   0.772   6.256   8.048
31215WAT      O93886   8.604   8.622   5.885
31215WAT     H193887   8.613   8.526   5.858
31215WAT     H293888   8.607   8.629   5.985
31216WAT      O93889   2.901   8.808   8.941
31216WAT     H193890   2.850   8.853   9.014
31216WAT     H293891   2.969   8.871   8.904
31217WAT      O93892   8.215   1.618   6.119
31217WAT     H193893   8.145   1.686   6.139
31217WAT     H293894   8.187   1.563   6.040
31218WAT      O93895   2.509   0.669   5.037
31218WAT     H193896   2.454   0.675   5.120
31218WAT     H293897   2.452   0.639   4.961
31219WAT      O93898   2.762   3.286   9.618
31219WAT     H193899   2.823   3.207   9.622
31219WAT     H293900   2.706   3.288   9.701
31220WAT      O93901   5.289   4.495   8.905
31220WAT     H193902   5.343   4.577   8.885
31220WAT     H293903   5.192   4.516   8.895
31221WAT      O93904   7.018   4.936   8.703
31221WAT     H193905   6.923   4.940   8.734
31221WAT     H293906   7.072   4.884   8.770
31222WAT      O93907   5.776   9.094   5.861
31222WAT     H193908   5.825   9.015   5.826
31222WAT     H293909   5.781   9.169   5.795
31223WAT      O93910   8.923   8.142   8.738
31223WAT     H193911   8.828   8.113   8.727
31223WAT     H293912   8.947   8.141   8.835
31224WAT      O93913   0.057   7.437   4.674
31224WAT     H193914   0.096   7.476   4.590
31224WAT     H293915   0.117   7.460   4.752
31225WAT      O93916   8.001   7.963   3.328
31225WAT     H193917   8.090   7.928   3.299
31225WAT     H293918   8.002   7.980   3.426
31226WAT      O93919   8.892   3.739   6.871
31226WAT     H193920   8.882   3.758   6.774
31226WAT     H293921   8.872   3.642   6.888
31227WAT      O93922   9.505   6.619   3.885
31227WAT     H193923   9.488   6.717   3.873
31227WAT     H293924   9.578   6.606   3.951
31228WAT      O93925   8.275   6.283   9.465
31228WAT     H193926   8.317   6.371   9.486
31228WAT     H293927   8.257   6.234   9.551
31229WAT      O93928   6.436   2.562   3.054
31229WAT     H193929   6.494   2.637   3.083
31229WAT     H293930   6.423   2.566   2.955
31230WAT      O93931   2.151   1.848   1.434
31230WAT     H193932   2.144   1.827   1.337
31230WAT     H293933   2.108   1.775   1.487
31231WAT      O93934   7.546   2.479   6.390
31231WAT     H193935   7.584   2.486   6.482
31231WAT     H293936   7.500   2.564   6.366
31232WAT      O93937   9.659   2.445   5.467
31232WAT     H193938   9.577   2.482   5.511
31232WAT     H293939   9.689   2.364   5.516
31233WAT      O93940   0.989   0.457   9.012
31233WAT     H193941   0.925   0.447   9.088
31233WAT     H293942   1.035   0.370   8.994
31234WAT      O93943   6.063   9.800   8.813
31234WAT     H193944   6.123   9.800   8.733
31234WAT     H293945   6.115   9.769   8.893
31235WAT      O93946   6.543   4.186   4.473
31235WAT     H193947   6.487   4.243   4.533
31235WAT     H293948   6.635   4.177   4.511
31236WAT      O93949   1.370   5.672   5.247
31236WAT     H193950   1.276   5.664   5.213
31236WAT     H293951   1.370   5.670   5.347
31237WAT      O93952   9.455   7.847   2.758
31237WAT     H193953   9.438   7.911   2.833
31237WAT     H293954   9.431   7.754   2.787
31238WAT      O93955   1.803   6.102   3.286
31238WAT     H193956   1.752   6.106   3.372
31238WAT     H293957   1.899   6.080   3.305
31239WAT      O93958   7.213   6.025   1.419
31239WAT     H193959   7.170   6.082   1.489
31239WAT     H293960   7.310   6.050   1.411
31240WAT      O93961   9.226   6.402   8.365
31240WAT     H193962   9.267   6.312   8.378
31240WAT     H293963   9.185   6.433   8.450
31241WAT      O93964   5.594   9.533   4.947
31241WAT     H193965   5.521   9.556   4.882
31241WAT     H293966   5.628   9.617   4.989
31242WAT      O93967   1.971   0.388   3.934
31242WAT     H193968   2.019   0.384   4.022
31242WAT     H293969   2.010   0.460   3.878
31243WAT      O93970   6.285   0.603   0.694
31243WAT     H193971   6.246   0.518   0.730
31243WAT     H293972   6.341   0.583   0.614
31244WAT      O93973   7.384   6.090   0.046
31244WAT     H193974   7.463   6.116   0.101
31244WAT     H293975   7.342   6.008   0.085
31245WAT      O93976   1.364   2.308   8.886
31245WAT     H193977   1.454   2.346   8.865
31245WAT     H293978   1.337   2.243   8.816
31246WAT      O93979   2.452   3.863   4.234
31246WAT     H193980   2.499   3.898   4.315
31246WAT     H293981   2.385   3.794   4.261
31247WAT      O93982   0.877   4.878   8.070
31247WAT     H193983   0.886   4.812   7.995
31247WAT     H293984   0.946   4.949   8.060
31248WAT      O93985   6.636   1.709   0.681
31248WAT     H193986   6.638   1.612   0.655
31248WAT     H293987   6.542   1.735   0.702
31249WAT      O93988   3.936   0.790   9.267
31249WAT     H193989   3.885   0.728   9.208
31249WAT     H293990   4.015   0.826   9.218
31250WAT      O93991   5.053   7.683   5.351
31250WAT     H193992   4.956   7.685   5.327
31250WAT     H293993   5.108   7.714   5.273
31251WAT      O93994   3.981   7.874   5.532
31251WAT     H193995   4.068   7.847   5.573
31251WAT     H293996   3.928   7.793   5.509
31252WAT      O93997   8.998   7.582   3.559
31252WAT     H193998   8.983   7.603   3.463
31252WAT     H293999   9.040   7.661   3.604
31253WAT      O94000   8.282   4.530   2.662
31253WAT     H194001   8.294   4.624   2.697
31253WAT     H294002   8.372   4.489   2.647
31254WAT      O94003   8.994   5.493   4.022
31254WAT     H194004   8.941   5.556   3.966
31254WAT     H294005   8.937   5.416   4.050
31255WAT      O94006   4.320   1.524   3.045
31255WAT     H194007   4.297   1.432   3.014
31255WAT     H294008   4.264   1.548   3.124
31256WAT      O94009   7.081   0.061   9.134
31256WAT     H194010   7.085  -0.006   9.208
31256WAT     H294011   7.021   0.136   9.161
31257WAT      O94012   8.255   5.879   1.340
31257WAT     H194013   8.196   5.892   1.260
31257WAT     H294014   8.267   5.966   1.387
31258WAT      O94015   5.277   5.067   8.401
31258WAT     H194016   5.275   4.980   8.351
31258WAT     H294017   5.331   5.133   8.349
31259WAT      O94018   6.723   7.827   2.326
31259WAT     H194019   6.702   7.921   2.350
31259WAT     H294020   6.756   7.778   2.406
31260WAT      O94021   1.506   0.404   9.312
31260WAT     H194022   1.506   0.423   9.214
31260WAT     H294023   1.420   0.359   9.337
31261WAT      O94024   5.679   8.920   6.841
31261WAT     H194025   5.659   8.864   6.760
31261WAT     H294026   5.717   9.008   6.812
31262WAT      O94027   3.349   0.296   2.684
31262WAT     H194028   3.325   0.199   2.671
31262WAT     H294029   3.447   0.304   2.699
31263WAT      O94030   7.759   1.589   9.711
31263WAT     H194031   7.855   1.615   9.700
31263WAT     H294032   7.719   1.572   9.621
31264WAT      O94033   6.236   7.111   2.721
31264WAT     H194034   6.261   7.085   2.814
31264WAT     H294035   6.210   7.029   2.670
31265WAT      O94036   7.444   0.209   0.915
31265WAT     H194037   7.353   0.244   0.894
31265WAT     H294038   7.502   0.284   0.948
31266WAT      O94039   0.798   6.395   1.567
31266WAT     H194040   0.896   6.387   1.546
31266WAT     H294041   0.749   6.315   1.534
31267WAT      O94042   8.822   4.646   7.598
31267WAT     H194043   8.817   4.700   7.682
31267WAT     H294044   8.746   4.581   7.596
31268WAT      O94045   2.917   3.934   3.914
31268WAT     H194046   2.906   3.865   3.986
31268WAT     H294047   2.866   4.016   3.938
31269WAT      O94048   6.205   4.322   8.019
31269WAT     H194049   6.173   4.270   7.941
31269WAT     H294050   6.128   4.343   8.079
31270WAT      O94051   8.984   5.360   2.878
31270WAT     H194052   8.978   5.262   2.893
31270WAT     H294053   9.076   5.383   2.845
31271WAT      O94054   5.624   8.500   0.294
31271WAT     H194055   5.559   8.517   0.368
31271WAT     H294056   5.716   8.494   0.331
31272WAT      O94057   6.051   6.467   2.199
31272WAT     H194058   5.979   6.443   2.265
31272WAT     H294059   6.011   6.476   2.108
31273WAT      O94060   1.009   5.987   8.342
31273WAT     H194061   0.938   6.055   8.360
31273WAT     H294062   0.971   5.914   8.284
31274WAT      O94063   7.529   1.319   7.867
31274WAT     H194064   7.593   1.379   7.819
31274WAT     H294065   7.553   1.223   7.848
31275WAT      O94066   3.817   8.722   4.696
31275WAT     H194067   3.753   8.704   4.771
31275WAT     H294068   3.820   8.644   4.634
31276WAT      O94069   7.787   8.391   3.514
31276WAT     H194070   7.688   8.393   3.530
31276WAT     H294071   7.833   8.436   3.590
31277WAT      O94072   4.061   4.728   3.686
31277WAT     H194073   4.131   4.669   3.726
31277WAT     H294074   3.971   4.695   3.713
31278WAT      O94075   1.826   3.879   4.646
31278WAT     H194076   1.835   3.951   4.715
31278WAT     H294077   1.916   3.856   4.609
31279WAT      O94078   2.756   5.551   9.342
31279WAT     H194079   2.828   5.501   9.391
31279WAT     H294080   2.726   5.497   9.263
31280WAT      O94081   0.566   0.302   8.535
31280WAT     H194082   0.639   0.360   8.572
31280WAT     H294083   0.561   0.216   8.588
31281WAT      O94084   7.365   9.491   3.842
31281WAT     H194085   7.434   9.423   3.819
31281WAT     H294086   7.408   9.581   3.849
31282WAT      O94087   2.897   5.997   6.468
31282WAT     H194088   2.820   5.946   6.431
31282WAT     H294089   2.925   6.068   6.403
31283WAT      O94090   6.616   5.643   5.940
31283WAT     H194091   6.579   5.555   5.969
31283WAT     H294092   6.695   5.628   5.880
31284WAT      O94093   1.737   2.571   0.434
31284WAT     H194094   1.798   2.595   0.509
31284WAT     H294095   1.674   2.647   0.416
31285WAT      O94096   0.494   7.166   2.342
31285WAT     H194097   0.488   7.155   2.441
31285WAT     H294098   0.590   7.175   2.315
31286WAT      O94099   8.969   6.847   3.231
31286WAT     H194100   8.877   6.872   3.260
31286WAT     H294101   8.965   6.808   3.138
31287WAT      O94102   3.976   5.556   8.623
31287WAT     H194103   3.879   5.559   8.600
31287WAT     H294104   3.989   5.582   8.718
31288WAT      O94105   8.594   8.671   2.250
31288WAT     H194106   8.619   8.582   2.286
31288WAT     H294107   8.655   8.741   2.288
31289WAT      O94108   5.333   3.175   3.376
31289WAT     H194109   5.329   3.255   3.317
31289WAT     H294110   5.272   3.187   3.454
31290WAT      O94111   8.616   5.646   8.480
31290WAT     H194112   8.623   5.734   8.432
31290WAT     H294113   8.642   5.572   8.417
31291WAT      O94114   4.999   3.566   2.125
31291WAT     H194115   5.059   3.615   2.060
31291WAT     H294116   4.935   3.509   2.074
31292WAT      O94117   4.925   3.861   0.975
31292WAT     H194118   4.843   3.834   1.026
31292WAT     H294119   4.969   3.938   1.023
31293WAT      O94120   2.287   0.561   3.279
31293WAT     H194121   2.322   0.614   3.356
31293WAT     H294122   2.218   0.496   3.312
31294WAT      O94123   8.113   4.022   0.834
31294WAT     H194124   8.212   4.033   0.843
31294WAT     H294125   8.067   4.080   0.900
31295WAT      O94126   8.995   6.149   4.373
31295WAT     H194127   8.943   6.170   4.455
31295WAT     H294128   9.030   6.234   4.333
31296WAT      O94129   9.084   2.924   3.802
31296WAT     H194130   9.073   2.980   3.719
31296WAT     H294131   9.036   2.837   3.789
31297WAT      O94132   3.217   7.605   9.487
31297WAT     H194133   3.171   7.660   9.556
31297WAT     H294134   3.309   7.581   9.518
31298WAT      O94135   7.072   6.381   6.620
31298WAT     H194136   6.978   6.399   6.590
31298WAT     H294137   7.128   6.462   6.606
31299WAT      O94138   0.313   4.139   7.789
31299WAT     H194139   0.294   4.225   7.742
31299WAT     H294140   0.345   4.158   7.882
31300WAT      O94141   6.767   0.462   8.618
31300WAT     H194142   6.864   0.478   8.636
31300WAT     H294143   6.745   0.366   8.634
31301WAT      O94144   6.599   9.742   0.831
31301WAT     H194145   6.583   9.763   0.928
31301WAT     H294146   6.663   9.666   0.824
31302WAT      O94147   3.912   8.460   5.111
31302WAT     H194148   3.824   8.494   5.078
31302WAT     H294149   3.902   8.424   5.203
31303WAT      O94150   4.943   7.095   2.512
31303WAT     H194151   4.851   7.112   2.476
31303WAT     H294152   4.953   7.139   2.601
31304WAT      O94153   7.224   7.034   5.352
31304WAT     H194154   7.197   7.091   5.429
31304WAT     H294155   7.167   6.952   5.349
31305WAT      O94156   1.090   9.718   9.261
31305WAT     H194157   0.995   9.734   9.233
31305WAT     H294158   1.124   9.636   9.215
31306WAT      O94159   5.065   7.961   3.805
31306WAT     H194160   5.025   8.021   3.736
31306WAT     H294161   5.143   8.006   3.848
31307WAT      O94162   0.238   6.144   0.699
31307WAT     H194163   0.229   6.168   0.602
31307WAT     H294164   0.217   6.224   0.755
31308WAT      O94165   7.420   7.829   0.639
31308WAT     H194166   7.486   7.779   0.583
31308WAT     H294167   7.408   7.782   0.727
31309WAT      O94168   4.936   3.167   7.621
31309WAT     H194169   5.009   3.194   7.559
31309WAT     H294170   4.850   3.160   7.571
31310WAT      O94171   3.391   6.127   2.153
31310WAT     H194172   3.354   6.142   2.061
31310WAT     H294173   3.491   6.125   2.148
31311WAT      O94174   8.826   4.816   7.285
31311WAT     H194175   8.831   4.884   7.358
31311WAT     H294176   8.841   4.725   7.323
31312WAT      O94177   5.006   1.771   6.158
31312WAT     H194178   5.061   1.768   6.241
31312WAT     H294179   4.913   1.740   6.179
31313WAT      O94180   1.982   1.347   7.760
31313WAT     H194181   1.951   1.252   7.750
31313WAT     H294182   2.076   1.355   7.727
31314WAT      O94183   2.702   3.027   6.487
31314WAT     H194184   2.745   3.117   6.477
31314WAT     H294185   2.728   2.987   6.575
31315WAT      O94186   0.944   2.124   9.633
31315WAT     H194187   0.947   2.153   9.729
31315WAT     H294188   0.909   2.030   9.628
31316WAT      O94189   4.121   3.359   8.546
31316WAT     H194190   4.144   3.389   8.638
31316WAT     H294191   4.201   3.367   8.487
31317WAT      O94192   1.494   5.465   1.794
31317WAT     H194193   1.460   5.434   1.705
31317WAT     H294194   1.422   5.516   1.841
31318WAT      O94195   4.100   6.611   0.482
31318WAT     H194196   4.191   6.616   0.440
31318WAT     H294197   4.107   6.629   0.580
31319WAT      O94198   2.650   2.089   7.521
31319WAT     H194199   2.665   2.062   7.616
31319WAT     H294200   2.573   2.039   7.483
31320WAT      O94201   7.515   5.875   3.068
31320WAT     H194202   7.417   5.894   3.067
31320WAT     H294203   7.548   5.866   2.974
31321WAT      O94204   8.124   1.443   8.893
31321WAT     H194205   8.167   1.444   8.803
31321WAT     H294206   8.153   1.362   8.943
31322WAT      O94207   1.439   1.488   4.039
31322WAT     H194208   1.521   1.440   4.070
31322WAT     H294209   1.454   1.587   4.047
31323WAT      O94210   6.324   3.118   0.408
31323WAT     H194211   6.365   3.063   0.480
31323WAT     H294212   6.263   3.061   0.353
31324WAT      O94213   5.964   4.731   8.775
31324WAT     H194214   6.004   4.816   8.809
31324WAT     H294215   6.012   4.653   8.814
31325WAT      O94216   6.379   6.006   8.001
31325WAT     H194217   6.428   5.964   7.924
31325WAT     H294218   6.336   6.091   7.969
31326WAT      O94219   5.737   4.110   1.879
31326WAT     H194220   5.803   4.172   1.919
31326WAT     H294221   5.701   4.150   1.794
31327WAT      O94222   5.956   2.137   1.142
31327WAT     H194223   5.968   2.072   1.067
31327WAT     H294224   6.029   2.205   1.140
31328WAT      O94225   4.965   8.012   1.960
31328WAT     H194226   4.908   8.063   2.025
31328WAT     H294227   5.059   8.043   1.968
31329WAT      O94228   4.993   6.710   0.028
31329WAT     H194229   4.963   6.805   0.017
31329WAT     H294230   5.072   6.694  -0.032
31330WAT      O94231   9.757   7.827   1.423
31330WAT     H194232   9.841   7.875   1.400
31330WAT     H294233   9.767   7.783   1.513
31331WAT      O94234   3.350   2.805   2.144
31331WAT     H194235   3.371   2.756   2.059
31331WAT     H294236   3.361   2.743   2.222
31332WAT      O94237   0.704   0.698   9.774
31332WAT     H194238   0.778   0.736   9.718
31332WAT     H294239   0.668   0.616   9.730
31333WAT      O94240   6.558   7.293   4.812
31333WAT     H194241   6.654   7.265   4.801
31333WAT     H294242   6.548   7.388   4.783
31334WAT      O94243   8.786   1.082   9.633
31334WAT     H194244   8.691   1.106   9.654
31334WAT     H294245   8.801   1.088   9.535
31335WAT      O94246   1.646   6.696   1.510
31335WAT     H194247   1.573   6.629   1.502
31335WAT     H294248   1.725   6.654   1.554
31336WAT      O94249   1.893   0.335   5.198
31336WAT     H194250   1.944   0.418   5.174
31336WAT     H294251   1.850   0.347   5.287
31337WAT      O94252   2.306   4.572   6.849
31337WAT     H194253   2.230   4.634   6.832
31337WAT     H294254   2.311   4.505   6.775
31338WAT      O94255   8.546   6.550   5.371
31338WAT     H194256   8.595   6.596   5.296
31338WAT     H294257   8.606   6.546   5.451
31339WAT      O94258   3.467   7.473   8.524
31339WAT     H194259   3.422   7.392   8.563
31339WAT     H294260   3.445   7.479   8.426
31340WAT      O94261   9.349   1.685   7.398
31340WAT     H194262   9.442   1.650   7.388
31340WAT     H294263   9.285   1.608   7.391
31341WAT      O94264   0.022   3.515   4.004
31341WAT     H194265   0.011   3.416   4.008
31341WAT     H294266   0.090   3.539   3.935
31342WAT      O94267   4.614   0.245   0.751
31342WAT     H194268   4.683   0.312   0.723
31342WAT     H294269   4.591   0.260   0.847
31343WAT      O94270   4.622   4.407   7.920
31343WAT     H194271   4.602   4.489   7.974
31343WAT     H294272   4.547   4.342   7.930
31344WAT      O94273   7.795   0.225   8.689
31344WAT     H194274   7.831   0.133   8.674
31344WAT     H294275   7.818   0.283   8.611
31345WAT      O94276   5.890   0.204   0.698
31345WAT     H194277   5.960   0.181   0.630
31345WAT     H294278   5.909   0.296   0.734
31346WAT      O94279   1.894   8.641   0.381
31346WAT     H194280   1.934   8.550   0.391
31346WAT     H294281   1.965   8.710   0.386
31347WAT      O94282   6.520   7.500   4.272
31347WAT     H194283   6.545   7.408   4.242
31347WAT     H294284   6.572   7.524   4.354
31348WAT      O94285   4.921   7.358   2.396
31348WAT     H194286   4.943   7.263   2.376
31348WAT     H294287   4.822   7.368   2.410
31349WAT      O94288   9.882   5.978   5.888
31349WAT     H194289   9.792   5.960   5.847
31349WAT     H294290   9.931   6.045   5.833
31350WAT      O94291   8.021   2.429   8.585
31350WAT     H194292   8.034   2.425   8.485
31350WAT     H294293   8.102   2.392   8.630
31351WAT      O94294   5.052   6.543   9.501
31351WAT     H194295   5.034   6.463   9.445
31351WAT     H294296   4.990   6.617   9.475
31352WAT      O94297   1.983   4.331   6.445
31352WAT     H194298   1.994   4.240   6.405
31352WAT     H294299   1.904   4.331   6.506
31353WAT      O94300   0.732   4.869   1.141
31353WAT     H194301   0.762   4.798   1.077
31353WAT     H294302   0.654   4.918   1.101
31354WAT      O94303   7.528   3.206   6.494
31354WAT     H194304   7.439   3.177   6.530
31354WAT     H294305   7.553   3.293   6.536
31355WAT      O94306   6.776   8.376   3.038
31355WAT     H194307   6.844   8.302   3.034
31355WAT     H294308   6.696   8.350   2.984
31356WAT      O94309   7.962   2.570   7.189
31356WAT     H194310   7.909   2.608   7.113
31356WAT     H294311   8.043   2.524   7.153
31357WAT      O94312   1.674   9.836   5.870
31357WAT     H194313   1.712   9.856   5.960
31357WAT     H294314   1.586   9.789   5.880
31358WAT      O94315   5.349   0.221   4.868
31358WAT     H194316   5.434   0.268   4.892
31358WAT     H294317   5.349   0.200   4.770
31359WAT      O94318   9.554   8.161   2.268
31359WAT     H194319   9.650   8.165   2.238
31359WAT     H294320   9.551   8.129   2.363
31360WAT      O94321   7.156   6.957   9.889
31360WAT     H194322   7.176   7.032   9.826
31360WAT     H294323   7.157   6.992   9.983
31361WAT      O94324   9.860   3.460   2.828
31361WAT     H194325   9.772   3.507   2.835
31361WAT     H294326   9.921   3.492   2.900
31362WAT      O94327   8.863   4.201   5.476
31362WAT     H194328   8.851   4.112   5.520
31362WAT     H294329   8.862   4.189   5.376
31363WAT      O94330   7.936   1.174   0.364
31363WAT     H194331   7.887   1.162   0.278
31363WAT     H294332   7.941   1.271   0.386
31364WAT      O94333   7.606   2.128   6.505
31364WAT     H194334   7.647   2.103   6.593
31364WAT     H294335   7.508   2.109   6.507
31365WAT      O94336   3.214   9.539   2.664
31365WAT     H194337   3.121   9.575   2.659
31365WAT     H294338   3.248   9.521   2.572
31366WAT      O94339   0.092   8.592   2.258
31366WAT     H194340   0.119   8.678   2.214
31366WAT     H294341   0.151   8.518   2.226
31367WAT      O94342   1.943   8.233   0.342
31367WAT     H194343   1.887   8.176   0.282
31367WAT     H294344   2.038   8.201   0.341
31368WAT      O94345   0.876   5.296   6.305
31368WAT     H194346   0.808   5.368   6.315
31368WAT     H294347   0.853   5.239   6.225
31369WAT      O94348   9.088   4.490   9.408
31369WAT     H194349   9.036   4.508   9.491
31369WAT     H294350   9.027   4.453   9.337
31370WAT      O94351   6.261   4.411   2.205
31370WAT     H194352   6.209   4.490   2.239
31370WAT     H294353   6.254   4.336   2.271
31371WAT      O94354   5.284   0.638   8.358
31371WAT     H194355   5.253   0.618   8.265
31371WAT     H294356   5.346   0.566   8.389
31372WAT      O94357   7.111   3.234   4.245
31372WAT     H194358   7.108   3.239   4.345
31372WAT     H294359   7.195   3.189   4.216
31373WAT      O94360   6.852   0.060   5.684
31373WAT     H194361   6.924   0.018   5.629
31373WAT     H294362   6.767   0.064   5.630
31374WAT      O94363   8.643   4.815   5.961
31374WAT     H194364   8.713   4.767   6.015
31374WAT     H294365   8.611   4.755   5.888
31375WAT      O94366   9.007   8.501   4.131
31375WAT     H194367   9.064   8.443   4.189
31375WAT     H294368   8.917   8.512   4.172
31376WAT      O94369   1.445   6.024   7.695
31376WAT     H194370   1.513   5.995   7.627
31376WAT     H294371   1.460   6.120   7.718
31377WAT      O94372   7.318   4.818   0.982
31377WAT     H194373   7.298   4.857   1.071
31377WAT     H294374   7.309   4.718   0.987
31378WAT      O94375   0.123   8.799   5.814
31378WAT     H194376   0.184   8.739   5.865
31378WAT     H294377   0.142   8.791   5.716
31379WAT      O94378   7.646   6.218   2.289
31379WAT     H194379   7.731   6.249   2.332
31379WAT     H294380   7.587   6.177   2.359
31380WAT      O94381   7.143   5.486   8.873
31380WAT     H194382   7.064   5.428   8.856
31380WAT     H294383   7.227   5.437   8.848
31381WAT      O94384   9.124   1.699   5.572
31381WAT     H194385   9.043   1.757   5.564
31381WAT     H294386   9.122   1.650   5.659
31382WAT      O94387   6.502   7.933   3.670
31382WAT     H194388   6.473   8.027   3.651
31382WAT     H294389   6.593   7.918   3.632
31383WAT      O94390   6.116   2.013   1.711
31383WAT     H194391   6.210   2.021   1.680
31383WAT     H294392   6.114   1.973   1.803
31384WAT      O94393   4.805   3.757   0.212
31384WAT     H194394   4.768   3.850   0.221
31384WAT     H294395   4.873   3.741   0.283
31385WAT      O94396   9.282   0.152   8.055
31385WAT     H194397   9.193   0.121   8.087
31385WAT     H294398   9.282   0.252   8.046
31386WAT      O94399   2.522   9.309   5.247
31386WAT     H194400   2.579   9.383   5.284
31386WAT     H294401   2.569   9.268   5.169
31387WAT      O94402   8.386   5.723   1.695
31387WAT     H194403   8.369   5.658   1.620
31387WAT     H294404   8.459   5.786   1.669
31388WAT      O94405   6.832   3.571   1.932
31388WAT     H194406   6.790   3.654   1.968
31388WAT     H294407   6.788   3.491   1.973
31389WAT      O94408   8.064   5.617   8.159
31389WAT     H194409   8.028   5.620   8.065
31389WAT     H294410   8.003   5.669   8.219
31390WAT      O94411   3.005   1.961   8.855
31390WAT     H194412   2.960   1.981   8.942
31390WAT     H294413   2.985   2.035   8.790
31391WAT      O94414   5.369   3.738   5.809
31391WAT     H194415   5.283   3.782   5.834
31391WAT     H294416   5.432   3.805   5.770
31392WAT      O94417   9.869   2.787   7.414
31392WAT     H194418   9.924   2.747   7.341
31392WAT     H294419   9.915   2.772   7.502
31393WAT      O94420   3.770   6.474   1.921
31393WAT     H194421   3.699   6.544   1.928
31393WAT     H294422   3.823   6.471   2.005
31394WAT      O94423   1.456   6.354   6.630
31394WAT     H194424   1.462   6.261   6.668
31394WAT     H294425   1.397   6.410   6.688
31395WAT      O94426   2.488   2.776   7.584
31395WAT     H194427   2.410   2.834   7.561
31395WAT     H294428   2.572   2.819   7.552
31396WAT      O94429   0.291   7.401   0.071
31396WAT     H194430   0.365   7.453   0.113
31396WAT     H294431   0.268   7.442  -0.018
31397WAT      O94432   2.201   7.060   6.361
31397WAT     H194433   2.263   6.988   6.394
31397WAT     H294434   2.131   7.078   6.430
31398WAT      O94435   4.644   2.999   6.996
31398WAT     H194436   4.676   3.088   7.027
31398WAT     H294437   4.552   3.008   6.958
31399WAT      O94438   8.598   6.405   3.359
31399WAT     H194439   8.584   6.342   3.435
31399WAT     H294440   8.546   6.489   3.375
31400WAT      O94441   1.572   5.298   8.459
31400WAT     H194442   1.489   5.353   8.449
31400WAT     H294443   1.633   5.314   8.382
31401WAT      O94444   5.770   8.169   1.248
31401WAT     H194445   5.789   8.071   1.243
31401WAT     H294446   5.753   8.205   1.156
31402WAT      O94447   1.936   2.904   0.911
31402WAT     H194448   1.900   2.811   0.913
31402WAT     H294449   1.884   2.961   0.975
31403WAT      O94450   8.241   7.332   6.996
31403WAT     H194451   8.267   7.235   6.990
31403WAT     H294452   8.184   7.346   7.077
31404WAT      O94453   7.416   0.753   6.339
31404WAT     H194454   7.471   0.837   6.348
31404WAT     H294455   7.343   0.754   6.407
31405WAT      O94456   9.115   0.320   7.543
31405WAT     H194457   9.058   0.366   7.611
31405WAT     H294458   9.184   0.384   7.509
31406WAT      O94459   9.119   8.237   9.746
31406WAT     H194460   9.091   8.155   9.796
31406WAT     H294461   9.054   8.310   9.765
31407WAT      O94462   1.222   4.247   1.579
31407WAT     H194463   1.308   4.258   1.629
31407WAT     H294464   1.208   4.326   1.519
31408WAT      O94465   8.046   3.658   9.168
31408WAT     H194466   8.144   3.650   9.186
31408WAT     H294467   7.994   3.623   9.246
31409WAT      O94468   4.807   7.797   5.221
31409WAT     H194469   4.718   7.784   5.264
31409WAT     H294470   4.799   7.781   5.122
31410WAT      O94471   6.591   2.118   2.302
31410WAT     H194472   6.511   2.073   2.342
31410WAT     H294473   6.561   2.183   2.232
31411WAT      O94474   4.662   3.429   4.298
31411WAT     H194475   4.718   3.497   4.249
31411WAT     H294476   4.580   3.473   4.334
31412WAT      O94477   9.026   4.687   6.452
31412WAT     H194478   9.055   4.609   6.507
31412WAT     H294479   8.947   4.662   6.396
31413WAT      O94480   0.459   2.106   6.445
31413WAT     H194481   0.468   2.137   6.350
31413WAT     H294482   0.369   2.131   6.480
31414WAT      O94483   4.225   4.708   9.117
31414WAT     H194484   4.127   4.728   9.112
31414WAT     H294485   4.248   4.676   9.208
31415WAT      O94486   0.841   7.374   2.022
31415WAT     H194487   0.791   7.294   2.055
31415WAT     H294488   0.801   7.404   1.935
31416WAT      O94489   7.687   2.230   9.694
31416WAT     H194490   7.638   2.256   9.777
31416WAT     H294491   7.782   2.259   9.701
31417WAT      O94492   1.596   5.983   1.158
31417WAT     H194493   1.608   6.041   1.078
31417WAT     H294494   1.682   5.938   1.180
31418WAT      O94495   1.419   1.699   9.192
31418WAT     H194496   1.381   1.787   9.165
31418WAT     H294497   1.518   1.701   9.182
31419WAT      O94498   9.145   7.391   7.483
31419WAT     H194499   9.196   7.475   7.501
31419WAT     H294500   9.136   7.380   7.384
31420WAT      O94501   3.558   9.356   9.299
31420WAT     H194502   3.657   9.360   9.307
31420WAT     H294503   3.516   9.385   9.386
31421WAT      O94504   8.854   3.321   6.125
31421WAT     H194505   8.830   3.413   6.156
31421WAT     H294506   8.771   3.265   6.122
31422WAT      O94507   1.678   3.383   8.796
31422WAT     H194508   1.655   3.288   8.821
31422WAT     H294509   1.595   3.439   8.801
31423WAT      O94510   2.441   3.590   6.038
31423WAT     H194511   2.457   3.602   6.136
31423WAT     H294512   2.525   3.560   5.994
31424WAT      O94513   7.746   6.452   7.051
31424WAT     H194514   7.788   6.373   7.096
31424WAT     H294515   7.699   6.508   7.118
31425WAT      O94516   0.445   9.761   4.532
31425WAT     H194517   0.528   9.717   4.497
31425WAT     H294518   0.436   9.742   4.630
31426WAT      O94519   9.199   3.448   2.257
31426WAT     H194520   9.267   3.433   2.186
31426WAT     H294521   9.148   3.532   2.237
31427WAT      O94522   0.243   6.719   4.460
31427WAT     H194523   0.320   6.782   4.461
31427WAT     H294524   0.269   6.634   4.414
31428WAT      O94525   5.504   5.056   9.673
31428WAT     H194526   5.595   5.077   9.707
31428WAT     H294527   5.511   5.015   9.582
31429WAT      O94528   8.099   3.416   8.915
31429WAT     H194529   8.019   3.407   8.974
31429WAT     H294530   8.119   3.513   8.900
31430WAT      O94531   8.611   8.625   6.172
31430WAT     H194532   8.536   8.690   6.179
31430WAT     H294533   8.680   8.646   6.240
31431WAT      O94534   7.427   9.012   1.517
31431WAT     H194535   7.411   8.913   1.526
31431WAT     H294536   7.513   9.035   1.564
31432WAT      O94537   3.986   0.041   9.869
31432WAT     H194538   4.042   0.100   9.811
31432WAT     H294539   4.045  -0.011   9.930
31433WAT      O94540   2.931   0.527   3.800
31433WAT     H194541   2.989   0.514   3.719
31433WAT     H294542   2.837   0.503   3.777
31434WAT      O94543   8.215   5.522   1.434
31434WAT     H194544   8.136   5.582   1.441
31434WAT     H294545   8.186   5.427   1.448
31435WAT      O94546   2.779   0.515   3.449
31435WAT     H194547   2.755   0.431   3.400
31435WAT     H294548   2.731   0.516   3.537
31436WAT      O94549   5.989   3.033   7.989
31436WAT     H194550   5.892   3.014   8.004
31436WAT     H294551   6.041   2.948   7.993
31437WAT      O94552   7.165   3.961   1.933
31437WAT     H194553   7.228   4.003   1.998
31437WAT     H294554   7.182   3.862   1.930
31438WAT      O94555   8.188   2.717   3.384
31438WAT     H194556   8.192   2.725   3.484
31438WAT     H294557   8.106   2.665   3.358
31439WAT      O94558   1.564   0.019   0.290
31439WAT     H194559   1.513   0.064   0.363
31439WAT     H294560   1.500  -0.034   0.233
31440WAT      O94561   4.367   2.037   4.711
31440WAT     H194562   4.416   2.057   4.796
31440WAT     H294563   4.330   1.944   4.716
31441WAT      O94564   2.067   4.468   6.231
31441WAT     H194565   2.053   4.419   6.316
31441WAT     H294566   2.073   4.566   6.249
31442WAT      O94567   1.787   0.573   5.416
31442WAT     H194568   1.774   0.596   5.319
31442WAT     H294569   1.848   0.640   5.458
31443WAT      O94570   6.730   2.821   9.524
31443WAT     H194571   6.824   2.838   9.554
31443WAT     H294572   6.691   2.746   9.578
31444WAT      O94573   0.247   2.133   5.856
31444WAT     H194574   0.197   2.219   5.841
31444WAT     H294575   0.214   2.089   5.939
31445WAT      O94576   9.680   5.724   1.618
31445WAT     H194577   9.716   5.746   1.709
31445WAT     H294578   9.680   5.624   1.606
31446WAT      O94579   2.934   7.144   7.305
31446WAT     H194580   2.899   7.174   7.217
31446WAT     H294581   2.910   7.211   7.375
31447WAT      O94582   8.757   3.343   7.725
31447WAT     H194583   8.727   3.311   7.634
31447WAT     H294584   8.680   3.340   7.788
31448WAT      O94585   7.965   7.094   7.792
31448WAT     H194586   7.945   7.188   7.821
31448WAT     H294587   8.059   7.090   7.757
31449WAT      O94588   4.544   2.594   9.477
31449WAT     H194589   4.515   2.680   9.434
31449WAT     H294590   4.523   2.518   9.415
31450WAT      O94591   3.523   6.732   1.917
31450WAT     H194592   3.536   6.684   2.004
31450WAT     H294593   3.497   6.827   1.934
31451WAT      O94594   1.044   2.321   6.659
31451WAT     H194595   0.945   2.338   6.656
31451WAT     H294596   1.085   2.349   6.572
31452WAT      O94597   8.992   9.672   5.572
31452WAT     H194598   8.995   9.739   5.497
31452WAT     H294599   9.046   9.591   5.547
31453WAT      O94600   0.735   8.788   1.621
31453WAT     H194601   0.639   8.766   1.602
31453WAT     H294602   0.765   8.860   1.558
31454WAT      O94603   4.967   1.306   1.337
31454WAT     H194604   5.059   1.320   1.301
31454WAT     H294605   4.971   1.305   1.437
31455WAT      O94606   6.343   9.093   2.895
31455WAT     H194607   6.279   9.028   2.936
31455WAT     H294608   6.384   9.149   2.967
31456WAT      O94609   6.196   5.721   4.293
31456WAT     H194610   6.246   5.785   4.234
31456WAT     H294611   6.219   5.738   4.389
31457WAT      O94612   7.412   6.098   7.624
31457WAT     H194613   7.354   6.075   7.702
31457WAT     H294614   7.359   6.152   7.558
31458WAT      O94615   8.638   2.311   9.163
31458WAT     H194616   8.616   2.255   9.083
31458WAT     H294617   8.698   2.260   9.224
31459WAT      O94618   1.629   8.192   8.742
31459WAT     H194619   1.582   8.276   8.714
31459WAT     H294620   1.728   8.207   8.740
31460WAT      O94621   5.646   9.545   6.011
31460WAT     H194622   5.668   9.643   6.006
31460WAT     H294623   5.593   9.519   5.930
31461WAT      O94624   0.827   8.002   8.969
31461WAT     H194625   0.793   7.989   9.063
31461WAT     H294626   0.749   8.008   8.907
31462WAT      O94627   2.693   4.126   1.734
31462WAT     H194628   2.628   4.098   1.805
31462WAT     H294629   2.654   4.202   1.682
31463WAT      O94630   0.921   1.536   2.866
31463WAT     H194631   0.849   1.532   2.935
31463WAT     H294632   0.888   1.496   2.781
31464WAT      O94633   3.760   1.886   1.680
31464WAT     H194634   3.845   1.933   1.657
31464WAT     H294635   3.777   1.788   1.690
31465WAT      O94636   3.817   3.321   0.306
31465WAT     H194637   3.868   3.393   0.354
31465WAT     H294638   3.870   3.236   0.308
31466WAT      O94639   0.512   2.788   3.234
31466WAT     H194640   0.555   2.870   3.270
31466WAT     H294641   0.436   2.814   3.174
31467WAT      O94642   5.539   8.325   2.180
31467WAT     H194643   5.576   8.404   2.229
31467WAT     H294644   5.523   8.251   2.245
31468WAT      O94645   7.603   0.259   2.008
31468WAT     H194646   7.577   0.164   1.988
31468WAT     H294647   7.540   0.321   1.962
31469WAT      O94648   8.898   9.430   5.029
31469WAT     H194649   8.920   9.358   4.963
31469WAT     H294650   8.804   9.460   5.015
31470WAT      O94651   4.619   9.369   8.941
31470WAT     H194652   4.719   9.372   8.944
31470WAT     H294653   4.588   9.374   8.846
31471WAT      O94654   7.874   3.389   1.284
31471WAT     H194655   7.915   3.321   1.344
31471WAT     H294656   7.908   3.480   1.308
31472WAT      O94657   8.573   3.167   3.241
31472WAT     H194658   8.500   3.099   3.231
31472WAT     H294659   8.605   3.195   3.150
31473WAT      O94660   7.597   0.848   7.007
31473WAT     H194661   7.516   0.834   7.064
31473WAT     H294662   7.665   0.902   7.057
31474WAT      O94663   6.890   5.612   1.455
31474WAT     H194664   6.865   5.669   1.533
31474WAT     H294665   6.822   5.539   1.444
31475WAT      O94666   4.484   5.219   7.388
31475WAT     H194667   4.457   5.254   7.478
31475WAT     H294668   4.548   5.282   7.345
31476WAT      O94669   0.364   5.380   2.523
31476WAT     H194670   0.316   5.346   2.604
31476WAT     H294671   0.297   5.418   2.458
31477WAT      O94672   4.183   2.219   1.585
31477WAT     H194673   4.230   2.132   1.599
31477WAT     H294674   4.250   2.293   1.585
31478WAT      O94675   3.365   9.014   6.379
31478WAT     H194676   3.409   8.960   6.450
31478WAT     H294677   3.270   9.033   6.405
31479WAT      O94678   9.518   0.714   9.635
31479WAT     H194679   9.581   0.790   9.653
31479WAT     H294680   9.424   0.746   9.647
31480WAT      O94681   1.979   1.574   3.315
31480WAT     H194682   1.906   1.552   3.380
31480WAT     H294683   1.954   1.657   3.264
31481WAT      O94684   7.431   8.739   1.907
31481WAT     H194685   7.394   8.748   1.999
31481WAT     H294686   7.510   8.677   1.909
31482WAT      O94687   6.413   3.577   4.495
31482WAT     H194688   6.365   3.493   4.468
31482WAT     H294689   6.354   3.632   4.554
31483WAT      O94690   0.238   0.696   5.683
31483WAT     H194691   0.305   0.635   5.640
31483WAT     H294692   0.217   0.664   5.775
31484WAT      O94693   4.351   6.609   8.786
31484WAT     H194694   4.446   6.614   8.816
31484WAT     H294695   4.305   6.696   8.804
31485WAT      O94696   8.437   8.245   0.353
31485WAT     H194697   8.525   8.286   0.328
31485WAT     H294698   8.365   8.286   0.297
31486WAT      O94699   0.799   8.729   5.323
31486WAT     H194700   0.831   8.730   5.228
31486WAT     H294701   0.710   8.774   5.328
31487WAT      O94702   9.594   8.655   7.184
31487WAT     H194703   9.636   8.591   7.120
31487WAT     H294704   9.650   8.737   7.192
31488WAT      O94705   9.782   0.557   8.608
31488WAT     H194706   9.825   0.533   8.520
31488WAT     H294707   9.845   0.533   8.682
31489WAT      O94708   1.409   0.333   5.111
31489WAT     H194709   1.344   0.393   5.064
31489WAT     H294710   1.385   0.327   5.208
31490WAT      O94711   0.267   9.690   2.880
31490WAT     H194712   0.294   9.776   2.838
31490WAT     H294713   0.196   9.647   2.825
31491WAT      O94714   5.069   7.153   8.573
31491WAT     H194715   5.051   7.131   8.477
31491WAT     H294716   5.137   7.226   8.578
31492WAT      O94717   9.124   4.728   8.831
31492WAT     H194718   9.173   4.774   8.905
31492WAT     H294719   9.046   4.679   8.869
31493WAT      O94720   7.659   1.818   5.794
31493WAT     H194721   7.673   1.724   5.826
31493WAT     H294722   7.727   1.839   5.724
31494WAT      O94723   8.551   2.285   9.518
31494WAT     H194724   8.464   2.300   9.471
31494WAT     H294725   8.618   2.352   9.485
31495WAT      O94726   7.551   3.755   1.289
31495WAT     H194727   7.528   3.719   1.379
31495WAT     H294728   7.628   3.818   1.297
31496WAT      O94729   5.290   9.841   5.878
31496WAT     H194730   5.216   9.851   5.945
31496WAT     H294731   5.260   9.873   5.789
31497WAT      O94732   1.992   4.134   8.891
31497WAT     H194733   2.041   4.198   8.832
31497WAT     H294734   2.003   4.162   8.987
31498WAT      O94735   0.222   0.787   4.361
31498WAT     H194736   0.246   0.696   4.394
31498WAT     H294737   0.251   0.796   4.266
31499WAT      O94738   6.635   0.193   4.734
31499WAT     H194739   6.581   0.233   4.808
31499WAT     H294740   6.731   0.188   4.762
31500WAT      O94741   0.108   2.669   6.510
31500WAT     H194742   0.119   2.639   6.415
31500WAT     H294743   0.186   2.638   6.564
31501WAT      O94744   9.365   1.049   9.009
31501WAT     H194745   9.444   1.068   9.067
31501WAT     H294746   9.394   1.041   8.914
31502WAT      O94747   7.034   0.205   9.446
31502WAT     H194748   6.946   0.251   9.458
31502WAT     H294749   7.074   0.186   9.535
31503WAT      O94750   5.962   2.327   6.340
31503WAT     H194751   5.870   2.288   6.337
31503WAT     H294752   6.024   2.261   6.383
31504WAT      O94753   3.346   4.149   4.185
31504WAT     H194754   3.408   4.227   4.178
31504WAT     H294755   3.259   4.179   4.225
31505WAT      O94756   4.761   5.443   0.868
31505WAT     H194757   4.801   5.517   0.923
31505WAT     H294758   4.797   5.355   0.898
31506WAT      O94759   5.756   5.349   8.710
31506WAT     H194760   5.763   5.375   8.807
31506WAT     H294761   5.845   5.358   8.667
31507WAT      O94762   0.090   9.280   0.752
31507WAT     H194763   0.181   9.262   0.789
31507WAT     H294764   0.070   9.378   0.762
31508WAT      O94765   1.745   0.977   9.248
31508WAT     H194766   1.791   1.020   9.170
31508WAT     H294767   1.804   0.904   9.284
31509WAT      O94768   4.034   0.607   1.935
31509WAT     H194769   3.986   0.609   2.022
31509WAT     H294770   4.059   0.513   1.912
31510WAT      O94771   5.777   2.387   3.924
31510WAT     H194772   5.766   2.354   3.830
31510WAT     H294773   5.754   2.484   3.929
31511WAT      O94774   1.274   3.865   0.891
31511WAT     H194775   1.253   3.929   0.817
31511WAT     H294776   1.356   3.813   0.868
31512WAT      O94777   5.770   1.683   3.618
31512WAT     H194778   5.788   1.776   3.649
31512WAT     H294779   5.814   1.618   3.681
31513WAT      O94780   7.988   4.447   8.217
31513WAT     H194781   7.969   4.543   8.193
31513WAT     H294782   7.902   4.396   8.220
31514WAT      O94783   3.811   9.019   7.886
31514WAT     H194784   3.797   8.934   7.936
31514WAT     H294785   3.722   9.057   7.859
31515WAT      O94786   9.078   5.606   0.354
31515WAT     H194787   9.025   5.622   0.437
31515WAT     H294788   9.089   5.691   0.303
31516WAT      O94789   7.134   0.030   4.423
31516WAT     H194790   7.175  -0.054   4.459
31516WAT     H294791   7.201   0.104   4.426
31517WAT      O94792   8.859   7.959   0.578
31517WAT     H194793   8.768   7.945   0.538
31517WAT     H294794   8.928   7.948   0.506
31518WAT      O94795   5.460   7.709   4.463
31518WAT     H194796   5.531   7.724   4.394
31518WAT     H294797   5.456   7.612   4.486
31519WAT      O94798   3.947   9.699   0.534
31519WAT     H194799   4.005   9.735   0.607
31519WAT     H294800   3.866   9.758   0.524
31520WAT      O94801   7.888   2.273   5.817
31520WAT     H194802   7.982   2.277   5.783
31520WAT     H294803   7.828   2.242   5.743
31521WAT      O94804   2.780   8.691   0.869
31521WAT     H194805   2.773   8.723   0.964
31521WAT     H294806   2.702   8.632   0.848
31522WAT      O94807   7.069   8.635   7.909
31522WAT     H194808   7.072   8.734   7.927
31522WAT     H294809   7.033   8.620   7.816
31523WAT      O94810   5.989   0.131   2.805
31523WAT     H194811   6.009   0.167   2.714
31523WAT     H294812   6.057   0.165   2.870
31524WAT      O94813   8.010   2.286   9.435
31524WAT     H194814   7.924   2.294   9.385
31524WAT     H294815   7.994   2.239   9.522
31525WAT      O94816   4.562   7.951   1.751
31525WAT     H194817   4.508   7.870   1.729
31525WAT     H294818   4.550   8.020   1.680
31526WAT      O94819   3.577   9.323   7.888
31526WAT     H194820   3.669   9.345   7.920
31526WAT     H294821   3.564   9.357   7.795
31527WAT      O94822   6.827   9.563   9.643
31527WAT     H194823   6.747   9.596   9.692
31527WAT     H294824   6.799   9.498   9.572
31528WAT      O94825   1.515   0.902   2.734
31528WAT     H194826   1.595   0.960   2.715
31528WAT     H294827   1.486   0.916   2.828
31529WAT      O94828   8.109   1.095   9.866
31529WAT     H194829   8.190   1.042   9.845
31529WAT     H294830   8.080   1.076   9.960
31530WAT      O94831   1.755   7.753   1.603
31530WAT     H194832   1.812   7.797   1.673
31530WAT     H294833   1.698   7.821   1.558
31531WAT      O94834   7.925   4.864   7.935
31531WAT     H194835   7.977   4.811   7.868
31531WAT     H294836   7.856   4.919   7.887
31532WAT      O94837   7.270   4.654   3.572
31532WAT     H194838   7.258   4.620   3.479
31532WAT     H294839   7.251   4.580   3.637
31533WAT      O94840   6.679   6.142   9.396
31533WAT     H194841   6.770   6.106   9.380
31533WAT     H294842   6.684   6.241   9.414
31534WAT      O94843   6.921   5.914   4.377
31534WAT     H194844   6.925   6.011   4.354
31534WAT     H294845   6.935   5.903   4.476
31535WAT      O94846   4.266   2.639   9.233
31535WAT     H194847   4.168   2.658   9.234
31535WAT     H294848   4.314   2.714   9.188
31536WAT      O94849   6.570   1.531   4.230
31536WAT     H194850   6.588   1.627   4.208
31536WAT     H294851   6.533   1.485   4.149
31537WAT      O94852   3.128   2.711   9.368
31537WAT     H194853   3.044   2.739   9.321
31537WAT     H294854   3.203   2.703   9.301
31538WAT      O94855   0.690   4.370   0.827
31538WAT     H194856   0.700   4.422   0.912
31538WAT     H294857   0.760   4.399   0.762
31539WAT      O94858   3.981   2.418   1.476
31539WAT     H194859   3.967   2.447   1.381
31539WAT     H294860   4.055   2.351   1.479
31540WAT      O94861   7.063   0.966   6.797
31540WAT     H194862   7.122   0.973   6.878
31540WAT     H294863   7.024   0.874   6.793
31541WAT      O94864   1.720   2.704   1.041
31541WAT     H194865   1.695   2.607   1.042
31541WAT     H294866   1.702   2.742   0.950
31542WAT      O94867   1.265   7.534   9.421
31542WAT     H194868   1.231   7.487   9.503
31542WAT     H294869   1.296   7.625   9.446
31543WAT      O94870   4.502   4.411   3.092
31543WAT     H194871   4.562   4.481   3.052
31543WAT     H294872   4.468   4.443   3.180
31544WAT      O94873   6.235   1.111   3.959
31544WAT     H194874   6.139   1.132   3.979
31544WAT     H294875   6.293   1.175   4.008
31545WAT      O94876   0.189   5.573   0.835
31545WAT     H194877   0.143   5.649   0.789
31545WAT     H294878   0.284   5.568   0.802
31546WAT      O94879   8.617   9.307   0.167
31546WAT     H194880   8.582   9.398   0.188
31546WAT     H294881   8.582   9.277   0.078
31547WAT      O94882   9.693   5.571   3.007
31547WAT     H194883   9.658   5.664   3.014
31547WAT     H294884   9.619   5.505   3.021
31548WAT      O94885   2.667   8.969   2.623
31548WAT     H194886   2.628   8.878   2.631
31548WAT     H294887   2.707   8.981   2.531
31549WAT      O94888   4.050   2.557   7.578
31549WAT     H194889   4.014   2.468   7.605
31549WAT     H294890   4.094   2.601   7.656
31550WAT      O94891   7.401   8.087   2.909
31550WAT     H194892   7.410   8.164   2.846
31550WAT     H294893   7.351   8.116   2.991
31551WAT      O94894   6.859   2.273   3.523
31551WAT     H194895   6.959   2.284   3.518
31551WAT     H294896   6.820   2.290   3.432
31552WAT      O94897   7.581   8.470   0.984
31552WAT     H194898   7.501   8.478   1.044
31552WAT     H294899   7.654   8.530   1.018
31553WAT      O94900   7.986   2.701   7.952
31553WAT     H194901   8.000   2.758   8.033
31553WAT     H294902   8.068   2.705   7.894
31554WAT      O94903   7.352   7.572   2.368
31554WAT     H194904   7.390   7.637   2.434
31554WAT     H294905   7.408   7.490   2.365
31555WAT      O94906   1.693   7.398   6.509
31555WAT     H194907   1.774   7.375   6.456
31555WAT     H294908   1.721   7.439   6.596
31556WAT      O94909   9.282   3.310   9.758
31556WAT     H194910   9.183   3.328   9.755
31556WAT     H294911   9.300   3.220   9.719
31557WAT      O94912   1.978   1.934   4.601
31557WAT     H194913   1.909   1.889   4.657
31557WAT     H294914   1.989   2.029   4.631
31558WAT      O94915   2.682   8.580   4.508
31558WAT     H194916   2.727   8.651   4.455
31558WAT     H294917   2.741   8.552   4.584
31559WAT      O94918   0.848   3.835   3.635
31559WAT     H194919   0.776   3.903   3.621
31559WAT     H294920   0.807   3.744   3.645
31560WAT      O94921   4.951   9.227   2.725
31560WAT     H194922   5.030   9.174   2.758
31560WAT     H294923   4.890   9.247   2.801
31561WAT      O94924   0.784   0.197   0.702
31561WAT     H194925   0.736   0.245   0.775
31561WAT     H294926   0.778   0.098   0.718
31562WAT      O94927   4.962   2.254   2.335
31562WAT     H194928   4.893   2.284   2.269
31562WAT     H294929   5.039   2.317   2.333
31563WAT      O94930   7.572   1.201   3.483
31563WAT     H194931   7.661   1.163   3.509
31563WAT     H294932   7.557   1.286   3.534
31564WAT      O94933   9.731   3.412   4.245
31564WAT     H194934   9.701   3.325   4.205
31564WAT     H294935   9.692   3.488   4.193
31565WAT      O94936   0.054   6.325   4.379
31565WAT     H194937   0.003   6.409   4.396
31565WAT     H294938   0.151   6.340   4.401
31566WAT      O94939   6.742   7.831   3.529
31566WAT     H194940   6.788   7.742   3.535
31566WAT     H294941   6.806   7.899   3.495
31567WAT      O94942   9.259   4.212   0.061
31567WAT     H194943   9.177   4.244   0.013
31567WAT     H294944   9.320   4.166  -0.003
31568WAT      O94945   0.624   1.307   2.020
31568WAT     H194946   0.596   1.241   2.090
31568WAT     H294947   0.584   1.283   1.932
31569WAT      O94948   5.475   1.154   0.023
31569WAT     H194949   5.383   1.147   0.061
31569WAT     H294950   5.542   1.142   0.097
31570WAT      O94951   1.696   4.862   0.668
31570WAT     H194952   1.762   4.876   0.743
31570WAT     H294953   1.615   4.918   0.685
31571WAT      O94954   5.525   1.830   1.739
31571WAT     H194955   5.513   1.857   1.644
31571WAT     H294956   5.536   1.912   1.796
31572WAT      O94957   3.541   4.391   4.215
31572WAT     H194958   3.529   4.402   4.116
31572WAT     H294959   3.638   4.405   4.237
31573WAT      O94960   5.577   2.549   0.685
31573WAT     H194961   5.621   2.610   0.751
31573WAT     H294962   5.640   2.532   0.609
31574WAT      O94963   0.863   2.153   7.895
31574WAT     H194964   0.851   2.164   7.797
31574WAT     H294965   0.951   2.108   7.912
31575WAT      O94966   6.907   9.721   7.907
31575WAT     H194967   6.930   9.632   7.867
31575WAT     H294968   6.899   9.711   8.007
31576WAT      O94969   1.968   6.155   1.206
31576WAT     H194970   1.982   6.250   1.176
31576WAT     H294971   1.964   6.095   1.126
31577WAT      O94972   7.734   1.347   6.413
31577WAT     H194973   7.825   1.389   6.407
31577WAT     H294974   7.742   1.254   6.449
31578WAT      O94975   1.494   8.348   4.081
31578WAT     H194976   1.494   8.437   4.035
31578WAT     H294977   1.577   8.339   4.136
31579WAT      O94978   9.279   5.610   9.583
31579WAT     H194979   9.322   5.616   9.493
31579WAT     H294980   9.346   5.578   9.650
31580WAT      O94981   0.433   5.389   2.911
31580WAT     H194982   0.503   5.319   2.923
31580WAT     H294983   0.472   5.466   2.860
31581WAT      O94984   6.484   9.528   8.698
31581WAT     H194985   6.584   9.522   8.709
31581WAT     H294986   6.453   9.618   8.728
31582WAT      O94987   0.484   9.669   5.204
31582WAT     H194988   0.436   9.658   5.291
31582WAT     H294989   0.554   9.739   5.213
31583WAT      O94990   3.524   0.130   6.340
31583WAT     H194991   3.535   0.142   6.241
31583WAT     H294992   3.449   0.068   6.358
31584WAT      O94993   0.208   8.710   7.978
31584WAT     H194994   0.147   8.665   7.912
31584WAT     H294995   0.303   8.689   7.955
31585WAT      O94996   9.132   2.049   1.109
31585WAT     H194997   9.088   2.028   1.196
31585WAT     H294998   9.130   1.969   1.050
31586WAT      O94999   4.613   5.958   1.994
31586WAT     H195000   4.552   5.906   1.934
31586WAT     H295001   4.643   6.042   1.947
31587WAT      O95002   7.730   3.798   0.979
31587WAT     H195003   7.807   3.738   0.961
31587WAT     H295004   7.723   3.815   1.078
31588WAT      O95005   5.276   2.395   8.715
31588WAT     H195006   5.309   2.406   8.622
31588WAT     H295007   5.275   2.484   8.761
31589WAT      O95008   9.570   9.285   4.613
31589WAT     H195009   9.595   9.381   4.607
31589WAT     H295010   9.481   9.276   4.659
31590WAT      O95011   9.578   8.918   6.530
31590WAT     H195012   9.664   8.914   6.580
31590WAT     H295013   9.513   8.975   6.580
31591WAT      O95014   2.301   0.233   0.260
31591WAT     H195015   2.240   0.301   0.220
31591WAT     H295016   2.254   0.185   0.334
31592WAT      O95017   3.505   5.247   2.948
31592WAT     H195018   3.578   5.312   2.923
31592WAT     H295019   3.547   5.162   2.980
31593WAT      O95020   7.118   6.025   5.497
31593WAT     H195021   7.124   5.933   5.538
31593WAT     H295022   7.182   6.086   5.543
31594WAT      O95023   1.470   8.420   7.721
31594WAT     H195024   1.436   8.326   7.707
31594WAT     H295025   1.521   8.424   7.806
31595WAT      O95026   0.780   4.491   0.562
31595WAT     H195027   0.756   4.587   0.572
31595WAT     H295028   0.879   4.479   0.570
31596WAT      O95029   5.403   2.780   6.826
31596WAT     H195030   5.320   2.796   6.773
31596WAT     H295031   5.457   2.864   6.831
31597WAT      O95032   4.448   4.007   0.786
31597WAT     H195033   4.479   4.012   0.881
31597WAT     H295034   4.401   4.092   0.763
31598WAT      O95035   3.640   7.374   8.252
31598WAT     H195036   3.685   7.373   8.341
31598WAT     H295037   3.699   7.420   8.186
31599WAT      O95038   1.007   2.482   8.566
31599WAT     H195039   1.084   2.432   8.526
31599WAT     H295040   1.029   2.508   8.660
31600WAT      O95041   9.318   5.474   0.084
31600WAT     H195042   9.380   5.499   0.159
31600WAT     H295043   9.326   5.376   0.066
31601WAT      O95044   1.659   4.649   4.958
31601WAT     H195045   1.691   4.689   5.043
31601WAT     H295046   1.572   4.690   4.932
31602WAT      O95047   8.812   2.476   5.247
31602WAT     H195048   8.772   2.443   5.162
31602WAT     H295049   8.900   2.431   5.262
31603WAT      O95050   3.068   0.081   4.402
31603WAT     H195051   3.116   0.161   4.439
31603WAT     H295052   3.031   0.103   4.312
31604WAT      O95053   5.274   7.464   2.964
31604WAT     H195054   5.295   7.409   3.045
31604WAT     H295055   5.241   7.554   2.994
31605WAT      O95056   3.184   0.697   5.861
31605WAT     H195057   3.134   0.628   5.915
31605WAT     H295058   3.186   0.783   5.912
31606WAT      O95059   4.043   9.095   3.620
31606WAT     H195060   4.140   9.089   3.643
31606WAT     H295061   4.002   9.004   3.628
31607WAT      O95062   8.623   3.030   0.441
31607WAT     H195063   8.635   2.933   0.461
31607WAT     H295064   8.527   3.056   0.456
31608WAT      O95065   5.494   6.588   2.757
31608WAT     H195066   5.566   6.643   2.716
31608WAT     H295067   5.424   6.566   2.689
31609WAT      O95068   6.030   9.073   6.721
31609WAT     H195069   6.054   9.135   6.647
31609WAT     H295070   5.995   8.988   6.683
31610WAT      O95071   1.900   2.861   6.475
31610WAT     H195072   1.852   2.857   6.562
31610WAT     H295073   1.994   2.830   6.488
31611WAT      O95074   3.533   7.936   3.505
31611WAT     H195075   3.455   7.882   3.535
31611WAT     H295076   3.609   7.876   3.483
31612WAT      O95077   8.776   6.404   4.822
31612WAT     H195078   8.812   6.374   4.910
31612WAT     H295079   8.687   6.362   4.807
31613WAT      O95080   3.757   2.586   5.805
31613WAT     H195081   3.747   2.639   5.721
31613WAT     H295082   3.840   2.530   5.800
31614WAT      O95083   8.323   0.150   5.314
31614WAT     H195084   8.366   0.156   5.224
31614WAT     H295085   8.373   0.206   5.379
31615WAT      O95086   6.019   2.039   6.852
31615WAT     H195087   6.027   1.943   6.880
31615WAT     H295088   5.925   2.058   6.825
31616WAT      O95089   4.889   6.324   6.138
31616WAT     H195090   4.835   6.259   6.192
31616WAT     H295091   4.918   6.281   6.053
31617WAT      O95092   1.807   5.935   0.092
31617WAT     H195093   1.708   5.930   0.091
31617WAT     H295094   1.839   5.987   0.013
31618WAT      O95095   8.572   4.246   5.039
31618WAT     H195096   8.529   4.159   5.014
31618WAT     H295097   8.570   4.257   5.139
31619WAT      O95098   1.830   0.770   7.372
31619WAT     H195099   1.858   0.692   7.427
31619WAT     H295100   1.863   0.854   7.414
31620WAT      O95101   7.211   4.766   2.479
31620WAT     H195102   7.189   4.724   2.568
31620WAT     H295103   7.256   4.854   2.494
31621WAT      O95104   9.459   7.300   8.770
31621WAT     H195105   9.493   7.360   8.697
31621WAT     H295106   9.533   7.242   8.803
31622WAT      O95107   5.579   5.658   3.138
31622WAT     H195108   5.493   5.609   3.136
31622WAT     H295109   5.655   5.594   3.126
31623WAT      O95110   2.781   5.029   9.814
31623WAT     H195111   2.717   5.102   9.789
31623WAT     H295112   2.735   4.962   9.872
31624WAT      O95113   7.258   2.943   0.581
31624WAT     H195114   7.226   2.951   0.487
31624WAT     H295115   7.252   3.032   0.627
31625WAT      O95116   4.100   2.867   4.237
31625WAT     H195117   4.133   2.913   4.319
31625WAT     H295118   4.090   2.933   4.162
31626WAT      O95119   7.360   0.287   6.645
31626WAT     H195120   7.276   0.305   6.697
31626WAT     H295121   7.437   0.333   6.690
31627WAT      O95122   5.113   6.466   8.876
31627WAT     H195123   5.132   6.368   8.869
31627WAT     H295124   5.016   6.480   8.893
31628WAT      O95125   2.938   8.214   4.767
31628WAT     H195126   3.011   8.239   4.704
31628WAT     H295127   2.864   8.169   4.716
31629WAT      O95128   8.420   2.832   5.730
31629WAT     H195129   8.426   2.741   5.689
31629WAT     H295130   8.418   2.824   5.830
31630WAT      O95131   0.667   7.733   7.866
31630WAT     H195132   0.741   7.666   7.872
31630WAT     H295133   0.579   7.686   7.870
31631WAT      O95134   5.041   3.193   2.662
31631WAT     H195135   5.051   3.275   2.604
31631WAT     H295136   5.010   3.221   2.753
31632WAT      O95137   2.846   1.101   4.761
31632WAT     H195138   2.917   1.158   4.719
31632WAT     H295139   2.839   1.122   4.858
31633WAT      O95140   0.148   7.448   2.210
31633WAT     H195141   0.191   7.361   2.190
31633WAT     H295142   0.049   7.435   2.221
31634WAT      O95143   2.964   0.615   8.475
31634WAT     H195144   3.039   0.559   8.439
31634WAT     H295145   2.952   0.596   8.572
31635WAT      O95146   3.084   1.117   5.324
31635WAT     H195147   3.095   1.104   5.422
31635WAT     H295148   3.027   1.044   5.286
31636WAT      O95149   9.638   3.697   4.810
31636WAT     H195150   9.690   3.714   4.726
31636WAT     H295151   9.659   3.768   4.877
31637WAT      O95152   0.386   7.280   4.121
31637WAT     H195153   0.368   7.228   4.204
31637WAT     H295154   0.370   7.222   4.041
31638WAT      O95155   6.562   9.243   0.985
31638WAT     H195156   6.507   9.170   0.943
31638WAT     H295157   6.656   9.211   0.995
31639WAT      O95158   3.091   4.140   2.088
31639WAT     H195159   3.138   4.068   2.038
31639WAT     H295160   3.029   4.188   2.026
31640WAT      O95161   2.978   9.802   3.872
31640WAT     H195162   2.995   9.889   3.827
31640WAT     H295163   2.898   9.758   3.830
31641WAT      O95164   2.673   5.532   1.611
31641WAT     H195165   2.766   5.496   1.621
31641WAT     H295166   2.622   5.472   1.549
31642WAT      O95167   3.994   1.904   4.874
31642WAT     H195168   3.979   1.825   4.934
31642WAT     H295169   3.961   1.986   4.920
31643WAT      O95170   4.194   2.320   4.558
31643WAT     H195171   4.148   2.407   4.536
31643WAT     H295172   4.246   2.289   4.478
31644WAT      O95173   7.727   4.972   1.337
31644WAT     H195174   7.707   5.069   1.321
31644WAT     H295175   7.741   4.926   1.249
31645WAT      O95176   1.620   2.537   9.361
31645WAT     H195177   1.582   2.447   9.340
31645WAT     H295178   1.681   2.530   9.439
31646WAT      O95179   0.579   9.670   0.509
31646WAT     H195180   0.645   9.735   0.473
31646WAT     H295181   0.543   9.614   0.434
31647WAT      O95182   5.582   2.724   7.400
31647WAT     H195183   5.621   2.705   7.490
31647WAT     H295184   5.612   2.814   7.369
31648WAT      O95185   7.943   0.993   1.263
31648WAT     H195186   7.996   0.972   1.344
31648WAT     H295187   7.999   1.046   1.198
31649WAT      O95188   9.403   0.040   6.206
31649WAT     H195189   9.462   0.116   6.178
31649WAT     H295190   9.319   0.077   6.247
31650WAT      O95191   4.824   0.228   5.334
31650WAT     H195192   4.754   0.163   5.364
31650WAT     H295193   4.780   0.304   5.285
31651WAT      O95194   0.962   1.081   0.739
31651WAT     H195195   0.955   0.985   0.714
31651WAT     H295196   1.053   1.116   0.716
31652WAT      O95197   9.262   9.144   2.549
31652WAT     H195198   9.236   9.238   2.526
31652WAT     H295199   9.182   9.094   2.579
31653WAT      O95200   2.717   0.462   1.315
31653WAT     H195201   2.774   0.540   1.344
31653WAT     H295202   2.623   0.493   1.301
31654WAT      O95203   3.477   8.075   1.772
31654WAT     H195204   3.466   8.173   1.787
31654WAT     H295205   3.574   8.053   1.762
31655WAT      O95206   7.915   7.106   8.078
31655WAT     H195207   7.887   7.196   8.109
31655WAT     H295208   8.000   7.113   8.025
31656WAT      O95209   3.835   7.306   4.705
31656WAT     H195210   3.933   7.293   4.716
31656WAT     H295211   3.818   7.371   4.631
31657WAT      O95212   7.663   4.786   6.025
31657WAT     H195213   7.685   4.793   6.122
31657WAT     H295214   7.720   4.850   5.974
31658WAT      O95215   5.559   1.857   7.283
31658WAT     H195216   5.610   1.880   7.366
31658WAT     H295217   5.462   1.876   7.297
31659WAT      O95218   0.174   2.143   6.930
31659WAT     H195219   0.184   2.074   6.858
31659WAT     H295220   0.080   2.143   6.965
31660WAT      O95221   7.157   2.117   0.775
31660WAT     H195222   7.148   2.163   0.687
31660WAT     H295223   7.067   2.114   0.820
31661WAT      O95224   9.024   4.189   0.948
31661WAT     H195225   9.113   4.162   0.911
31661WAT     H295226   9.025   4.287   0.967
31662WAT      O95227   4.302   2.897   7.571
31662WAT     H195228   4.323   2.832   7.498
31662WAT     H295229   4.367   2.974   7.567
31663WAT      O95230   4.046   1.286   5.058
31663WAT     H195231   3.951   1.315   5.070
31663WAT     H295232   4.084   1.327   4.975
31664WAT      O95233   3.731   2.752   3.501
31664WAT     H195234   3.806   2.771   3.437
31664WAT     H295235   3.740   2.658   3.535
31665WAT      O95236   5.861   5.694   5.321
31665WAT     H195237   5.925   5.718   5.394
31665WAT     H295238   5.889   5.738   5.236
31666WAT      O95239   0.315   0.750   7.602
31666WAT     H195240   0.225   0.789   7.581
31666WAT     H295241   0.303   0.668   7.659
31667WAT      O95242   0.912   7.537   1.387
31667WAT     H195243   1.003   7.511   1.356
31667WAT     H295244   0.855   7.560   1.309
31668WAT      O95245   6.893   5.561   4.994
31668WAT     H195246   6.895   5.617   5.077
31668WAT     H295247   6.822   5.594   4.933
31669WAT      O95248   6.941   7.547   9.772
31669WAT     H195249   6.984   7.637   9.762
31669WAT     H295250   6.885   7.528   9.692
31670WAT      O95251   5.001   9.229   6.534
31670WAT     H195252   5.019   9.165   6.610
31670WAT     H295253   5.068   9.303   6.537
31671WAT      O95254   0.661   5.601   0.831
31671WAT     H195255   0.744   5.560   0.870
31671WAT     H295256   0.651   5.695   0.865
31672WAT      O95257   3.515   4.394   2.962
31672WAT     H195258   3.586   4.329   2.936
31672WAT     H295259   3.457   4.413   2.883
31673WAT      O95260   3.785   4.967   8.845
31673WAT     H195261   3.780   5.023   8.927
31673WAT     H295262   3.754   4.874   8.867
31674WAT      O95263   9.587   5.314   7.126
31674WAT     H195264   9.521   5.308   7.051
31674WAT     H295265   9.604   5.410   7.148
31675WAT      O95266   8.258   8.053   3.011
31675WAT     H195267   8.210   8.129   3.054
31675WAT     H295268   8.356   8.062   3.027
31676WAT      O95269   0.434   0.487   2.106
31676WAT     H195270   0.357   0.480   2.169
31676WAT     H295271   0.401   0.511   2.015
31677WAT      O95272   6.893   4.891   8.220
31677WAT     H195273   6.882   4.990   8.233
31677WAT     H295274   6.955   4.856   8.291
31678WAT      O95275   1.747   9.781   0.659
31678WAT     H195276   1.760   9.723   0.578
31678WAT     H295277   1.800   9.745   0.735
31679WAT      O95278   8.382   1.377   6.684
31679WAT     H195279   8.351   1.283   6.674
31679WAT     H295280   8.305   1.434   6.714
31680WAT      O95281   5.428   3.336   2.992
31680WAT     H195282   5.436   3.415   2.930
31680WAT     H295283   5.389   3.367   3.079
31681WAT      O95284   0.905   7.764   4.505
31681WAT     H195285   0.888   7.795   4.598
31681WAT     H295286   0.849   7.683   4.486
31682WAT      O95287   0.426   2.605   0.654
31682WAT     H195288   0.443   2.606   0.753
31682WAT     H295289   0.462   2.690   0.613
31683WAT      O95290   8.900   6.431   8.106
31683WAT     H195291   8.894   6.405   8.009
31683WAT     H295292   8.954   6.363   8.156
31684WAT      O95293   6.069   2.518   8.910
31684WAT     H195294   6.038   2.612   8.901
31684WAT     H295295   6.004   2.467   8.967
31685WAT      O95296   5.770   9.190   9.829
31685WAT     H195297   5.729   9.249   9.899
31685WAT     H295298   5.852   9.146   9.866
31686WAT      O95299   9.230   7.171   1.438
31686WAT     H195300   9.226   7.153   1.537
31686WAT     H295301   9.283   7.254   1.422
31687WAT      O95302   8.391   3.306   3.941
31687WAT     H195303   8.368   3.209   3.943
31687WAT     H295304   8.481   3.319   3.983
31688WAT      O95305   5.914   8.612   0.303
31688WAT     H195306   5.968   8.665   0.238
31688WAT     H295307   5.889   8.671   0.380
31689WAT      O95308   3.365   7.939   0.102
31689WAT     H195309   3.337   7.861   0.158
31689WAT     H295310   3.463   7.955   0.113
31690WAT      O95311   1.776   6.603   1.019
31690WAT     H195312   1.784   6.632   0.923
31690WAT     H295313   1.810   6.675   1.078
31691WAT      O95314   2.021   0.937   3.898
31691WAT     H195315   1.935   0.978   3.869
31691WAT     H295316   2.002   0.853   3.949
31692WAT      O95317   5.115   4.456   2.215
31692WAT     H195318   5.127   4.432   2.118
31692WAT     H295319   5.017   4.463   2.235
31693WAT      O95320   5.201   0.582   1.201
31693WAT     H195321   5.300   0.595   1.209
31693WAT     H295322   5.155   0.670   1.207
31694WAT      O95323   0.310   1.239   4.653
31694WAT     H195324   0.347   1.229   4.745
31694WAT     H295325   0.334   1.159   4.599
31695WAT      O95326   0.238   1.459   5.748
31695WAT     H195327   0.287   1.499   5.825
31695WAT     H295328   0.182   1.529   5.704
31696WAT      O95329   7.630   7.493   5.430
31696WAT     H195330   7.631   7.545   5.515
31696WAT     H295331   7.672   7.546   5.357
31697WAT      O95332   5.659   7.958   9.322
31697WAT     H195333   5.615   7.912   9.244
31697WAT     H295334   5.723   8.027   9.287
31698WAT      O95335   5.208   8.499   9.800
31698WAT     H195336   5.299   8.480   9.763
31698WAT     H295337   5.165   8.414   9.830
31699WAT      O95338   2.861   6.487   2.186
31699WAT     H195339   2.782   6.480   2.126
31699WAT     H295340   2.854   6.419   2.259
31700WAT      O95341   4.227   2.463   8.042
31700WAT     H195342   4.174   2.389   8.000
31700WAT     H295343   4.230   2.450   8.141
31701WAT      O95344   7.105   7.054   8.148
31701WAT     H195345   7.118   6.971   8.201
31701WAT     H295346   7.190   7.077   8.100
31702WAT      O95347   4.451   7.366   4.695
31702WAT     H195348   4.547   7.390   4.685
31702WAT     H295349   4.429   7.289   4.635
31703WAT      O95350   6.986   1.355   4.820
31703WAT     H195351   6.990   1.332   4.917
31703WAT     H295352   7.078   1.372   4.786
31704WAT      O95353   1.850   9.738   0.889
31704WAT     H195354   1.810   9.823   0.922
31704WAT     H295355   1.902   9.694   0.962
31705WAT      O95356   2.450   2.308   6.084
31705WAT     H195357   2.372   2.251   6.111
31705WAT     H295358   2.504   2.330   6.166
31706WAT      O95359   3.710   3.569   2.453
31706WAT     H195360   3.805   3.587   2.479
31706WAT     H295361   3.650   3.629   2.507
31707WAT      O95362   3.165   0.504   3.922
31707WAT     H195363   3.070   0.512   3.890
31707WAT     H295364   3.197   0.410   3.907
31708WAT      O95365   9.001   9.393   1.541
31708WAT     H195366   8.980   9.490   1.526
31708WAT     H295367   8.978   9.368   1.635
31709WAT      O95368   1.743   0.306   2.316
31709WAT     H195369   1.842   0.308   2.325
31709WAT     H295370   1.714   0.216   2.283
31710WAT      O95371   2.889   1.483   3.740
31710WAT     H195372   2.796   1.510   3.761
31710WAT     H295373   2.919   1.413   3.805
31711WAT      O95374   7.181   8.560   3.923
31711WAT     H195375   7.082   8.578   3.928
31711WAT     H295376   7.227   8.600   4.002
31712WAT      O95377   1.788   1.615   5.875
31712WAT     H195378   1.692   1.636   5.858
31712WAT     H295379   1.810   1.636   5.971
31713WAT      O95380   6.811   6.905   1.101
31713WAT     H195381   6.719   6.924   1.065
31713WAT     H295382   6.859   6.990   1.119
31714WAT      O95383   3.679   2.370   9.543
31714WAT     H195384   3.669   2.276   9.511
31714WAT     H295385   3.589   2.410   9.561
31715WAT      O95386   2.914   6.509   4.841
31715WAT     H195387   2.972   6.429   4.821
31715WAT     H295388   2.868   6.496   4.928
31716WAT      O95389   2.147   3.203   4.909
31716WAT     H195390   2.140   3.273   4.979
31716WAT     H295391   2.123   3.242   4.820
31717WAT      O95392   0.415   0.972   0.338
31717WAT     H195393   0.472   1.010   0.412
31717WAT     H295394   0.338   1.034   0.321
31718WAT      O95395   3.615   6.144   0.452
31718WAT     H195396   3.568   6.059   0.476
31718WAT     H295397   3.667   6.130   0.368
31719WAT      O95398   1.029   7.037   5.727
31719WAT     H195399   1.093   7.110   5.748
31719WAT     H295400   1.072   6.948   5.744
31720WAT      O95401   2.350   2.524   2.836
31720WAT     H195402   2.344   2.502   2.933
31720WAT     H295403   2.282   2.594   2.813
31721WAT      O95404   9.744   2.081   3.927
31721WAT     H195405   9.735   2.179   3.909
31721WAT     H295406   9.789   2.068   4.016
31722WAT      O95407   5.037   3.002   0.747
31722WAT     H195408   5.118   3.046   0.786
31722WAT     H295409   4.964   3.000   0.816
31723WAT      O95410   3.497   9.309   5.827
31723WAT     H195411   3.521   9.398   5.864
31723WAT     H295412   3.538   9.237   5.883
31724WAT      O95413   4.509   8.328   0.803
31724WAT     H195414   4.582   8.301   0.740
31724WAT     H295415   4.429   8.357   0.751
31725WAT      O95416   1.384   5.856   2.523
31725WAT     H195417   1.461   5.795   2.541
31725WAT     H295418   1.304   5.801   2.498
31726WAT      O95419   3.297   3.562   1.395
31726WAT     H195420   3.373   3.524   1.341
31726WAT     H295421   3.215   3.564   1.338
31727WAT      O95422   9.163   3.257   8.619
31727WAT     H195423   9.171   3.178   8.680
31727WAT     H295424   9.253   3.299   8.608
31728WAT      O95425   6.596   5.274   6.401
31728WAT     H195426   6.665   5.236   6.339
31728WAT     H295427   6.642   5.309   6.483
31729WAT      O95428   7.638   6.740   4.880
31729WAT     H195429   7.697   6.659   4.884
31729WAT     H295430   7.568   6.734   4.952
31730WAT      O95431   3.829   5.363   3.332
31730WAT     H195432   3.807   5.442   3.276
31730WAT     H295433   3.862   5.289   3.273
31731WAT      O95434   1.440   1.616   5.472
31731WAT     H195435   1.489   1.607   5.385
31731WAT     H295436   1.347   1.648   5.455
31732WAT      O95437   1.227   4.337   2.382
31732WAT     H195438   1.300   4.291   2.330
31732WAT     H295439   1.263   4.364   2.471
31733WAT      O95440   2.138   8.440   1.168
31733WAT     H195441   2.163   8.378   1.242
31733WAT     H295442   2.170   8.533   1.190
31734WAT      O95443   1.436   3.127   8.107
31734WAT     H195444   1.370   3.191   8.147
31734WAT     H295445   1.394   3.036   8.099
31735WAT      O95446   9.322   1.639   8.351
31735WAT     H195447   9.319   1.608   8.446
31735WAT     H295448   9.270   1.724   8.341
31736WAT      O95449   2.230   6.048   0.818
31736WAT     H195450   2.209   5.993   0.899
31736WAT     H295451   2.311   6.011   0.773
31737WAT      O95452   9.529   4.196   2.873
31737WAT     H195453   9.586   4.273   2.844
31737WAT     H295454   9.467   4.225   2.946
31738WAT      O95455   2.761   1.430   4.252
31738WAT     H195456   2.831   1.481   4.203
31738WAT     H295457   2.803   1.354   4.301
31739WAT      O95458   3.260   0.588   8.844
31739WAT     H195459   3.214   0.632   8.921
31739WAT     H295460   3.225   0.495   8.832
31740WAT      O95461   5.232   1.364   1.280
31740WAT     H195462   5.251   1.330   1.372
31740WAT     H295463   5.245   1.289   1.214
31741WAT      O95464   9.470   5.228   4.541
31741WAT     H195465   9.544   5.267   4.596
31741WAT     H295466   9.419   5.161   4.596
31742WAT      O95467   6.697   5.174   1.566
31742WAT     H195468   6.701   5.159   1.665
31742WAT     H295469   6.789   5.165   1.527
31743WAT      O95470   4.590   2.280   8.510
31743WAT     H195471   4.608   2.374   8.539
31743WAT     H295472   4.675   2.228   8.513
31744WAT      O95473   3.085   1.560   0.180
31744WAT     H195474   3.097   1.555   0.279
31744WAT     H295475   3.174   1.555   0.135
31745WAT      O95476   4.602   8.681   7.718
31745WAT     H195477   4.551   8.749   7.666
31745WAT     H295478   4.597   8.702   7.815
31746WAT      O95479   5.054   7.155   2.159
31746WAT     H195480   5.131   7.216   2.139
31746WAT     H295481   5.077   7.062   2.130
31747WAT      O95482   2.620   5.620   7.254
31747WAT     H195483   2.695   5.567   7.295
31747WAT     H295484   2.601   5.584   7.162
31748WAT      O95485   5.122   5.151   3.196
31748WAT     H195486   5.050   5.193   3.252
31748WAT     H295487   5.080   5.093   3.126
31749WAT      O95488   6.800   7.216   4.316
31749WAT     H195489   6.816   7.134   4.262
31749WAT     H295490   6.761   7.190   4.405
31750WAT      O95491   6.887   1.788   3.044
31750WAT     H195492   6.954   1.730   3.088
31750WAT     H295493   6.854   1.744   2.960
31751WAT      O95494   0.236   4.444   6.682
31751WAT     H195495   0.194   4.530   6.654
31751WAT     H295496   0.261   4.450   6.779
31752WAT      O95497   1.166   1.292   6.914
31752WAT     H195498   1.262   1.267   6.928
31752WAT     H295499   1.111   1.209   6.905
31753WAT      O95500   6.261   3.371   4.388
31753WAT     H195501   6.187   3.321   4.434
31753WAT     H295502   6.323   3.305   4.345
31754WAT      O95503   8.976   3.295   8.898
31754WAT     H195504   8.916   3.327   8.972
31754WAT     H295505   8.977   3.364   8.825
31755WAT      O95506   9.514   1.351   4.598
31755WAT     H195507   9.421   1.333   4.627
31755WAT     H295508   9.554   1.266   4.561
31756WAT      O95509   5.589   6.849   1.545
31756WAT     H195510   5.515   6.912   1.521
31756WAT     H295511   5.616   6.797   1.464
31757WAT      O95512   4.671   2.855   3.330
31757WAT     H195513   4.666   2.932   3.395
31757WAT     H295514   4.766   2.824   3.322
31758WAT      O95515   3.767   1.092   5.287
31758WAT     H195516   3.767   1.029   5.209
31758WAT     H295517   3.826   1.056   5.359
31759WAT      O95518   8.135   9.707   8.321
31759WAT     H195519   8.152   9.609   8.320
31759WAT     H295520   8.195   9.751   8.387
31760WAT      O95521   9.786   6.987   4.248
31760WAT     H195522   9.825   6.955   4.334
31760WAT     H295523   9.838   7.065   4.215
31761WAT      O95524   5.675   4.052   5.262
31761WAT     H195525   5.578   4.044   5.238
31761WAT     H295526   5.730   4.053   5.179
31762WAT      O95527   5.732   3.464   5.906
31762WAT     H195528   5.648   3.456   5.852
31762WAT     H295529   5.715   3.431   5.999
31763WAT      O95530   2.075   7.972   5.555
31763WAT     H195531   1.977   7.983   5.569
31763WAT     H295532   2.109   8.046   5.497
31764WAT      O95533   2.945   0.762   8.776
31764WAT     H195534   3.000   0.747   8.857
31764WAT     H295535   2.878   0.688   8.767
31765WAT      O95536   8.787   2.549   0.932
31765WAT     H195537   8.702   2.543   0.880
31765WAT     H295538   8.859   2.585   0.874
31766WAT      O95539   7.824   0.665   7.545
31766WAT     H195540   7.872   0.667   7.632
31766WAT     H295541   7.891   0.652   7.471
31767WAT      O95542   4.624   9.102   3.228
31767WAT     H195543   4.578   9.055   3.303
31767WAT     H295544   4.689   9.040   3.184
31768WAT      O95545   4.393   7.325   8.392
31768WAT     H195546   4.425   7.330   8.297
31768WAT     H295547   4.471   7.310   8.452
31769WAT      O95548   9.016   2.224   0.166
31769WAT     H195549   8.937   2.175   0.128
31769WAT     H295550   8.986   2.312   0.201
31770WAT      O95551   5.254   5.004   8.666
31770WAT     H195552   5.206   5.078   8.712
31770WAT     H295553   5.261   5.023   8.568
31771WAT      O95554   0.573   7.948   6.658
31771WAT     H195555   0.481   7.929   6.691
31771WAT     H295556   0.573   8.036   6.611
31772WAT      O95557   7.650   8.886   8.145
31772WAT     H195558   7.697   8.798   8.158
31772WAT     H295559   7.686   8.931   8.063
31773WAT      O95560   9.758   9.078   9.696
31773WAT     H195561   9.747   9.136   9.777
31773WAT     H295562   9.744   8.982   9.720
31774WAT      O95563   3.167   0.849   4.328
31774WAT     H195564   3.178   0.936   4.280
31774WAT     H295565   3.246   0.790   4.309
31775WAT      O95566   2.620   4.543   5.815
31775WAT     H195567   2.599   4.463   5.871
31775WAT     H295568   2.541   4.566   5.759
31776WAT      O95569   6.799   3.527   0.778
31776WAT     H195570   6.713   3.490   0.744
31776WAT     H295571   6.782   3.592   0.851
31777WAT      O95572   4.975   4.504   1.027
31777WAT     H195573   5.006   4.473   0.938
31777WAT     H295574   4.932   4.594   1.018
31778WAT      O95575   2.211   5.151   6.156
31778WAT     H195576   2.125   5.131   6.110
31778WAT     H295577   2.272   5.201   6.094
31779WAT      O95578   5.169   6.445   2.845
31779WAT     H195579   5.095   6.431   2.780
31779WAT     H295580   5.199   6.541   2.842
31780WAT      O95581   7.895   5.831   9.582
31780WAT     H195582   7.907   5.892   9.503
31780WAT     H295583   7.822   5.866   9.640
31781WAT      O95584   1.626   5.132   9.687
31781WAT     H195585   1.687   5.086   9.622
31781WAT     H295586   1.672   5.214   9.721
31782WAT      O95587   0.413   5.544   7.488
31782WAT     H195588   0.499   5.498   7.465
31782WAT     H295589   0.429   5.642   7.495
31783WAT      O95590   8.085   5.306   9.500
31783WAT     H195591   8.066   5.265   9.589
31783WAT     H295592   8.032   5.390   9.489
31784WAT      O95593   9.541   5.333   6.244
31784WAT     H195594   9.490   5.352   6.160
31784WAT     H295595   9.598   5.252   6.231
31785WAT      O95596   4.748   0.616   1.422
31785WAT     H195597   4.709   0.636   1.512
31785WAT     H295598   4.719   0.526   1.392
31786WAT      O95599   4.226   4.957   0.036
31786WAT     H195600   4.146   4.907   0.068
31786WAT     H295601   4.309   4.907   0.062
31787WAT      O95602   7.335   4.720   3.213
31787WAT     H195603   7.425   4.690   3.182
31787WAT     H295604   7.284   4.642   3.250
31788WAT      O95605   1.210   6.881   9.850
31788WAT     H195606   1.137   6.902   9.785
31788WAT     H295607   1.174   6.882   9.943
31789WAT      O95608   5.491   9.234   7.289
31789WAT     H195609   5.574   9.178   7.296
31789WAT     H295610   5.517   9.331   7.284
31790WAT      O95611   6.414   0.378   2.343
31790WAT     H195612   6.390   0.385   2.246
31790WAT     H295613   6.378   0.457   2.392
31791WAT      O95614   0.503   7.827   8.820
31791WAT     H195615   0.525   7.924   8.810
31791WAT     H295616   0.477   7.809   8.915
31792WAT      O95617   8.902   6.529   6.786
31792WAT     H195618   8.875   6.625   6.776
31792WAT     H295619   8.909   6.507   6.883
31793WAT      O95620   0.895   5.041   1.826
31793WAT     H195621   0.988   5.005   1.833
31793WAT     H295622   0.864   5.072   1.916
31794WAT      O95623   5.226   8.714   7.622
31794WAT     H195624   5.307   8.745   7.672
31794WAT     H295625   5.242   8.723   7.523
31795WAT      O95626   4.863   5.784   1.911
31795WAT     H195627   4.775   5.828   1.931
31795WAT     H295628   4.902   5.747   1.995
31796WAT      O95629   5.603   6.805   2.445
31796WAT     H195630   5.633   6.900   2.444
31796WAT     H295631   5.624   6.763   2.357
31797WAT      O95632   0.701   3.560   9.345
31797WAT     H195633   0.697   3.478   9.288
31797WAT     H295634   0.753   3.631   9.297
31798WAT      O95635   1.296   2.006   0.150
31798WAT     H195636   1.377   1.948   0.164
31798WAT     H295637   1.235   1.962   0.084
31799WAT      O95638   9.372   0.238   9.501
31799WAT     H195639   9.407   0.331   9.510
31799WAT     H295640   9.279   0.233   9.538
31800WAT      O95641   2.170   7.825   3.072
31800WAT     H195642   2.239   7.862   3.133
31800WAT     H295643   2.113   7.760   3.122
31801WAT      O95644   3.965   5.950   9.395
31801WAT     H195645   3.982   6.047   9.414
31801WAT     H295646   3.868   5.930   9.407
31802WAT      O95647   5.601   2.269   5.887
31802WAT     H195648   5.532   2.277   5.816
31802WAT     H295649   5.572   2.320   5.968
31803WAT      O95650   4.699   1.783   7.016
31803WAT     H195651   4.660   1.839   7.089
31803WAT     H295652   4.630   1.765   6.947
31804WAT      O95653   4.703   2.699   0.780
31804WAT     H195654   4.772   2.658   0.839
31804WAT     H295655   4.644   2.627   0.743
31805WAT      O95656   1.002   4.115   4.583
31805WAT     H195657   0.990   4.052   4.506
31805WAT     H295658   0.999   4.064   4.669
31806WAT      O95659   8.817   2.685   7.623
31806WAT     H195660   8.774   2.775   7.625
31806WAT     H295661   8.879   2.676   7.701
31807WAT      O95662   0.008   1.229   3.222
31807WAT     H195663   0.069   1.298   3.184
31807WAT     H295664   0.062   1.156   3.263
31808WAT      O95665   2.633   8.298   9.890
31808WAT     H195666   2.581   8.230   9.942
31808WAT     H295667   2.570   8.351   9.832
31809WAT      O95668   8.615   6.120   0.564
31809WAT     H195669   8.643   6.195   0.505
31809WAT     H295670   8.533   6.077   0.527
31810WAT      O95671   3.047   3.801   3.233
31810WAT     H195672   3.010   3.894   3.245
31810WAT     H295673   3.077   3.766   3.322
31811WAT      O95674   0.323   8.285   2.489
31811WAT     H195675   0.329   8.364   2.427
31811WAT     H295676   0.415   8.250   2.506
31812WAT      O95677   4.844   8.671   8.400
31812WAT     H195678   4.760   8.686   8.452
31812WAT     H295679   4.885   8.584   8.427
31813WAT      O95680   9.086   8.103   0.910
31813WAT     H195681   9.043   8.144   0.829
31813WAT     H295682   9.179   8.073   0.886
31814WAT      O95683   6.277   3.719   0.548
31814WAT     H195684   6.331   3.716   0.632
31814WAT     H295685   6.338   3.716   0.469
31815WAT      O95686   5.080   9.558   2.930
31815WAT     H195687   5.028   9.641   2.905
31815WAT     H295688   5.151   9.542   2.861
31816WAT      O95689   2.941   2.581   7.557
31816WAT     H195690   2.956   2.484   7.577
31816WAT     H295691   2.963   2.598   7.461
31817WAT      O95692   2.854   1.896   3.353
31817WAT     H195693   2.778   1.960   3.340
31817WAT     H295694   2.852   1.859   3.445
31818WAT      O95695   8.263   8.996   4.131
31818WAT     H195696   8.186   8.943   4.097
31818WAT     H295697   8.332   8.934   4.169
31819WAT      O95698   0.100   6.302   7.023
31819WAT     H195699   0.068   6.208   7.015
31819WAT     H295700   0.091   6.332   7.118
31820WAT      O95701   0.313   7.232   7.595
31820WAT     H195702   0.214   7.218   7.598
31820WAT     H295703   0.358   7.171   7.660
31821WAT      O95704   6.415   8.033   1.334
31821WAT     H195705   6.506   7.994   1.324
31821WAT     H295706   6.418   8.131   1.311
31822WAT      O95707   3.312   4.109   9.633
31822WAT     H195708   3.343   4.072   9.721
31822WAT     H295709   3.284   4.204   9.646
31823WAT      O95710   9.035   1.300   7.071
31823WAT     H195711   9.099   1.363   7.027
31823WAT     H295712   9.082   1.249   7.143
31824WAT      O95713   0.036   0.501   4.054
31824WAT     H195714   0.075   0.498   4.147
31824WAT     H295715   0.059   0.416   4.006
31825WAT      O95716   4.287   2.614   1.342
31825WAT     H195717   4.322   2.701   1.307
31825WAT     H295718   4.284   2.616   1.442
31826WAT      O95719   4.258   6.859   5.555
31826WAT     H195720   4.303   6.909   5.629
31826WAT     H295721   4.219   6.923   5.489
31827WAT      O95722   2.615   3.516   6.712
31827WAT     H195723   2.688   3.546   6.651
31827WAT     H295724   2.627   3.559   6.802
31828WAT      O95725   1.096   4.404   0.356
31828WAT     H195726   1.088   4.460   0.274
31828WAT     H295727   1.173   4.341   0.346
31829WAT      O95728   6.061   0.096   7.286
31829WAT     H195729   6.130   0.169   7.296
31829WAT     H295730   6.098   0.024   7.227
31830WAT      O95731   3.828   6.426   4.403
31830WAT     H195732   3.757   6.420   4.474
31830WAT     H295733   3.913   6.458   4.443
31831WAT      O95734   1.518   3.701   0.789
31831WAT     H195735   1.599   3.693   0.848
31831WAT     H295736   1.493   3.611   0.755
31832WAT      O95737   9.569   3.533   3.834
31832WAT     H195738   9.534   3.591   3.907
31832WAT     H295739   9.520   3.446   3.833
31833WAT      O95740   4.512   7.679   1.168
31833WAT     H195741   4.433   7.619   1.162
31833WAT     H295742   4.530   7.701   1.264
31834WAT      O95743   7.378   4.774   9.475
31834WAT     H195744   7.402   4.871   9.481
31834WAT     H295745   7.279   4.764   9.466
31835WAT      O95746   9.324   3.496   9.506
31835WAT     H195747   9.333   3.447   9.592
31835WAT     H295748   9.275   3.582   9.521
31836WAT      O95749   5.225   0.024   2.696
31836WAT     H195750   5.202   0.018   2.599
31836WAT     H295751   5.167   0.093   2.740
31837WAT      O95752   4.794   4.612   6.732
31837WAT     H195753   4.831   4.520   6.718
31837WAT     H295754   4.730   4.611   6.809
31838WAT      O95755   3.115   4.716   0.541
31838WAT     H195756   3.113   4.816   0.552
31838WAT     H295757   3.190   4.691   0.479
31839WAT      O95758   1.848   5.334   2.605
31839WAT     H195759   1.798   5.262   2.654
31839WAT     H295760   1.946   5.325   2.624
31840WAT      O95761   5.290   2.956   8.048
31840WAT     H195762   5.284   3.051   8.016
31840WAT     H295763   5.335   2.953   8.137
31841WAT      O95764   8.902   9.346   0.660
31841WAT     H195765   8.908   9.274   0.592
31841WAT     H295766   8.814   9.341   0.707
31842WAT      O95767   7.281   2.769   2.231
31842WAT     H195768   7.312   2.825   2.308
31842WAT     H295769   7.185   2.743   2.246
31843WAT      O95770   2.072   2.283   8.000
31843WAT     H195771   2.037   2.374   7.977
31843WAT     H295772   2.003   2.214   7.978
31844WAT      O95773   2.130   0.148   8.357
31844WAT     H195774   2.209   0.087   8.363
31844WAT     H295775   2.050   0.103   8.396
31845WAT      O95776   7.050   5.764   3.080
31845WAT     H195777   6.955   5.789   3.098
31845WAT     H295778   7.054   5.706   2.998
31846WAT      O95779   4.572   1.988   2.785
31846WAT     H195780   4.553   2.004   2.882
31846WAT     H295781   4.667   1.959   2.775
31847WAT      O95782   6.888   9.711   3.162
31847WAT     H195783   6.873   9.637   3.227
31847WAT     H295784   6.800   9.749   3.134
31848WAT      O95785   8.635   3.762   8.621
31848WAT     H195786   8.536   3.761   8.608
31848WAT     H295787   8.677   3.821   8.552
31849WAT      O95788   5.136   8.325   5.537
31849WAT     H195789   5.155   8.339   5.634
31849WAT     H295790   5.157   8.230   5.512
31850WAT      O95791   7.675   6.403   6.559
31850WAT     H195792   7.672   6.460   6.641
31850WAT     H295793   7.610   6.327   6.569
31851WAT      O95794   9.250   6.574   0.733
31851WAT     H195795   9.157   6.598   0.762
31851WAT     H295796   9.298   6.656   0.703
31852WAT      O95797   2.818   5.427   2.386
31852WAT     H195798   2.893   5.430   2.321
31852WAT     H295799   2.839   5.363   2.459
31853WAT      O95800   3.969   0.239   6.352
31853WAT     H195801   4.044   0.173   6.350
31853WAT     H295802   3.885   0.193   6.384
31854WAT      O95803   3.983   4.037   2.337
31854WAT     H195804   3.906   4.001   2.284
31854WAT     H295805   3.979   4.002   2.430
31855WAT      O95806   5.490   6.090   3.190
31855WAT     H195807   5.436   6.089   3.105
31855WAT     H295808   5.563   6.158   3.182
31856WAT      O95809   3.796   4.445   7.287
31856WAT     H195810   3.700   4.423   7.307
31856WAT     H295811   3.820   4.412   7.196
31857WAT      O95812   4.588   6.227   5.697
31857WAT     H195813   4.600   6.246   5.794
31857WAT     H295814   4.671   6.182   5.662
31858WAT      O95815   4.728   3.940   9.817
31858WAT     H195816   4.724   3.959   9.915
31858WAT     H295817   4.764   4.020   9.769
31859WAT      O95818   0.278   8.266   3.984
31859WAT     H195819   0.225   8.186   4.011
31859WAT     H295820   0.369   8.238   3.954
31860WAT      O95821   4.347   1.425   8.128
31860WAT     H195822   4.439   1.408   8.162
31860WAT     H295823   4.319   1.518   8.152
31861WAT      O95824   1.142   9.101   8.297
31861WAT     H195825   1.157   9.003   8.304
31861WAT     H295826   1.085   9.121   8.217
31862WAT      O95827   0.770   9.656   1.044
31862WAT     H195828   0.711   9.596   1.098
31862WAT     H295829   0.847   9.604   1.008
31863WAT      O95830   1.841   3.934   3.121
31863WAT     H195831   1.918   3.994   3.098
31863WAT     H295832   1.792   3.973   3.200
31864WAT      O95833   7.527   0.010   4.070
31864WAT     H195834   7.504  -0.067   4.129
31864WAT     H295835   7.502  -0.011   3.975
31865WAT      O95836   8.201   4.161   4.643
31865WAT     H195837   8.142   4.237   4.615
31865WAT     H295838   8.153   4.105   4.711
31866WAT      O95839   2.257   3.971   2.543
31866WAT     H195840   2.231   4.065   2.565
31866WAT     H295841   2.318   3.971   2.463
31867WAT      O95842   3.751   7.112   5.176
31867WAT     H195843   3.664   7.129   5.223
31867WAT     H295844   3.733   7.079   5.084
31868WAT      O95845   5.708   8.315   6.962
31868WAT     H195846   5.685   8.273   7.049
31868WAT     H295847   5.760   8.399   6.979
31869WAT      O95848   8.556   9.549   0.241
31869WAT     H195849   8.471   9.589   0.278
31869WAT     H295850   8.618   9.623   0.216
31870WAT      O95851   5.137   3.709   0.955
31870WAT     H195852   5.213   3.771   0.936
31870WAT     H295853   5.052   3.762   0.964
31871WAT      O95854   8.282   6.341   0.544
31871WAT     H195855   8.286   6.243   0.528
31871WAT     H295856   8.233   6.360   0.629
31872WAT      O95857   3.272   4.252   4.710
31872WAT     H195858   3.269   4.350   4.693
31872WAT     H295859   3.211   4.229   4.786
31873WAT      O95860   4.810   9.825   1.847
31873WAT     H195861   4.769   9.796   1.760
31873WAT     H295862   4.903   9.858   1.830
31874WAT      O95863   9.597   7.250   6.814
31874WAT     H195864   9.619   7.304   6.895
31874WAT     H295865   9.558   7.310   6.743
31875WAT      O95866   4.227   6.765   8.369
31875WAT     H195867   4.167   6.724   8.300
31875WAT     H295868   4.306   6.706   8.383
31876WAT      O95869   8.405   4.848   6.081
31876WAT     H195870   8.493   4.837   6.035
31876WAT     H295871   8.409   4.805   6.171
31877WAT      O95872   4.398   5.922   2.666
31877WAT     H195873   4.497   5.927   2.678
31877WAT     H295874   4.357   6.009   2.696
31878WAT      O95875   6.736   2.445   5.189
31878WAT     H195876   6.760   2.374   5.122
31878WAT     H295877   6.644   2.478   5.171
31879WAT      O95878   7.447   7.122   9.698
31879WAT     H195879   7.439   7.183   9.776
31879WAT     H295880   7.511   7.048   9.719
31880WAT      O95881   4.750   2.325   0.807
31880WAT     H195882   4.667   2.337   0.861
31880WAT     H295883   4.823   2.383   0.844
31881WAT      O95884   6.015   1.189   1.046
31881WAT     H195885   5.991   1.286   1.059
31881WAT     H295886   6.027   1.171   0.948
31882WAT      O95887   7.717   0.505   0.202
31882WAT     H195888   7.672   0.567   0.266
31882WAT     H295889   7.777   0.442   0.251
31883WAT      O95890   9.288   9.236   8.912
31883WAT     H195891   9.305   9.265   9.006
31883WAT     H295892   9.347   9.289   8.850
31884WAT      O95893   0.574   3.995   1.868
31884WAT     H195894   0.492   4.047   1.846
31884WAT     H295895   0.580   3.981   1.966
31885WAT      O95896   6.854   6.239   3.887
31885WAT     H195897   6.759   6.260   3.911
31885WAT     H295898   6.913   6.258   3.965
31886WAT      O95899   1.162   3.886   3.940
31886WAT     H195900   1.090   3.889   4.010
31886WAT     H295901   1.251   3.888   3.984
31887WAT      O95902   4.535   8.168   6.187
31887WAT     H195903   4.445   8.131   6.210
31887WAT     H295904   4.525   8.253   6.136
31888WAT      O95905   3.129   7.303   8.892
31888WAT     H195906   3.183   7.262   8.818
31888WAT     H295907   3.084   7.230   8.945
31889WAT      O95908   6.185   0.714   2.665
31889WAT     H195909   6.217   0.808   2.651
31889WAT     H295910   6.149   0.705   2.758
31890WAT      O95911   2.143   6.662   4.130
31890WAT     H195912   2.113   6.740   4.074
31890WAT     H295913   2.190   6.696   4.212
31891WAT      O95914   7.831   2.876   4.332
31891WAT     H195915   7.828   2.777   4.319
31891WAT     H295916   7.829   2.922   4.243
31892WAT      O95917   6.652   0.736   9.550
31892WAT     H195918   6.628   0.753   9.454
31892WAT     H295919   6.613   0.808   9.607
31893WAT      O95920   3.281   4.758   2.572
31893WAT     H195921   3.253   4.701   2.649
31893WAT     H295922   3.321   4.843   2.607
31894WAT      O95923   6.246   7.013   3.880
31894WAT     H195924   6.325   7.066   3.910
31894WAT     H295925   6.172   7.075   3.852
31895WAT      O95926   6.638   0.647   1.706
31895WAT     H195927   6.654   0.738   1.668
31895WAT     H295928   6.553   0.610   1.670
31896WAT      O95929   4.072   1.309   8.891
31896WAT     H195930   4.168   1.336   8.899
31896WAT     H295931   4.044   1.311   8.794
31897WAT      O95932   1.154   5.640   6.252
31897WAT     H195933   1.114   5.723   6.289
31897WAT     H295934   1.238   5.663   6.203
31898WAT      O95935   8.517   4.386   0.613
31898WAT     H195936   8.439   4.401   0.674
31898WAT     H295937   8.556   4.296   0.632
31899WAT      O95938   7.470   6.441   2.260
31899WAT     H195939   7.462   6.494   2.175
31899WAT     H295940   7.527   6.360   2.243
   9.88928    9.84380    9.89279 
